Mo                                      
   1.00000000000000     
     3.169300    0.000000    0.000000
     0.000000    3.169300    0.000000
     0.000000    0.000000    3.169300
   Mo
     2
Direct
  0.000000  0.000000  0.000000
  0.500000  0.500000  0.500000
 
   28   28   28
  238.90      237.97      231.14      210.73      174.09      127.64      82.820      48.611      27.437      16.514    
  11.456      9.1581      8.1611      7.7303      7.6020      7.7303      8.1611      9.1581      11.456      16.514    
  27.437      48.611      82.820      127.64      174.09      210.73      231.14      237.97      237.97      236.48    
  228.36      206.80      169.83      123.97      80.252      47.132      26.742      16.257      11.376      9.1441    
  8.1699      7.7471      7.6210      7.7471      8.1699      9.1441      11.376      16.257      26.742      47.132    
  80.252      123.97      169.83      206.80      228.36      236.48      231.14      228.36      217.37      193.53    
  156.55      113.01      72.765      42.898      24.788      15.537      11.146      9.1021      8.1935      7.7939    
  7.6745      7.7939      8.1935      9.1021      11.146      15.537      24.788      42.898      72.765      113.01    
  156.55      193.53      217.37      228.36      210.73      206.80      193.53      168.80      134.01      95.494    
  61.278      36.608      21.961      14.490      10.797      9.0322      8.2243      7.8617      7.7528      7.8617    
  8.2243      9.0322      10.797      14.490      21.961      36.608      61.278      95.494      134.01      168.80    
  193.53      206.80      174.09      169.83      156.55      134.01      104.67      73.938      47.753      29.475    
  18.838      13.277      10.373      8.9370      8.2522      7.9363      7.8410      7.9363      8.2522      8.9370    
  10.373      13.277      18.838      29.475      47.753      73.938      104.67      134.01      156.55      169.83    
  127.64      123.97      113.01      95.494      73.938      52.421      34.807      22.883      15.953      12.059    
  9.9271      8.8215      8.2666      8.0020      7.9214      8.0020      8.2666      8.8215      9.9271      12.059    
  15.953      22.883      34.807      52.421      73.938      95.494      113.01      123.97      82.820      80.252    
  72.765      61.278      47.753      34.807      24.582      17.754      13.535      10.973      9.5029      8.6925    
  8.2594      8.0440      7.9776      8.0440      8.2594      8.6925      9.5029      10.973      13.535      17.754    
  24.582      34.807      47.753      61.278      72.765      80.252      48.611      47.132      42.898      36.608    
  29.475      22.883      17.754      14.128      11.662      10.089      9.1273      8.5552      8.2253      8.0522    
  7.9977      8.0522      8.2253      8.5552      9.1273      10.089      11.662      14.128      17.754      22.883    
  29.475      36.608      42.898      47.132      27.437      26.742      24.788      21.961      18.838      15.953    
  13.535      11.662      10.323      9.4121      8.8076      8.4126      8.1630      8.0231      7.9776      8.0231    
  8.1630      8.4126      8.8076      9.4121      10.323      11.662      13.535      15.953      18.838      21.961    
  24.788      26.742      16.514      16.257      15.537      14.490      13.277      12.059      10.973      10.089    
  9.4121      8.9089      8.5379      8.2662      8.0755      7.9603      7.9214      7.9603      8.0755      8.2662    
  8.5379      8.9089      9.4121      10.089      10.973      12.059      13.277      14.490      15.537      16.257    
  11.456      11.376      11.146      10.797      10.373      9.9271      9.5029      9.1273      8.8076      8.5379    
  8.3097      8.1191      7.9706      7.8745      7.8410      7.8745      7.9706      8.1191      8.3097      8.5379    
  8.8076      9.1273      9.5029      9.9271      10.373      10.797      11.146      11.376      9.1581      9.1441    
  9.1021      9.0322      8.9370      8.8215      8.6925      8.5552      8.4126      8.2662      8.1191      7.9796    
  7.8615      7.7813      7.7528      7.7813      7.8615      7.9796      8.1191      8.2662      8.4126      8.5552    
  8.6925      8.8215      8.9370      9.0322      9.1021      9.1441      8.1611      8.1699      8.1935      8.2243    
  8.2522      8.2666      8.2594      8.2253      8.1630      8.0755      7.9706      7.8615      7.7650      7.6983    
  7.6745      7.6983      7.7650      7.8615      7.9706      8.0755      8.1630      8.2253      8.2594      8.2666    
  8.2522      8.2243      8.1935      8.1699      7.7303      7.7471      7.7939      7.8617      7.9363      8.0020    
  8.0440      8.0522      8.0231      7.9603      7.8745      7.7813      7.6983      7.6413      7.6210      7.6413    
  7.6983      7.7813      7.8745      7.9603      8.0231      8.0522      8.0440      8.0020      7.9363      7.8617    
  7.7939      7.7471      7.6020      7.6210      7.6745      7.7528      7.8410      7.9214      7.9776      7.9977    
  7.9776      7.9214      7.8410      7.7528      7.6745      7.6210      7.6020      7.6210      7.6745      7.7528    
  7.8410      7.9214      7.9776      7.9977      7.9776      7.9214      7.8410      7.7528      7.6745      7.6210    
  7.7303      7.7471      7.7939      7.8617      7.9363      8.0020      8.0440      8.0522      8.0231      7.9603    
  7.8745      7.7813      7.6983      7.6413      7.6210      7.6413      7.6983      7.7813      7.8745      7.9603    
  8.0231      8.0522      8.0440      8.0020      7.9363      7.8617      7.7939      7.7471      8.1611      8.1699    
  8.1935      8.2243      8.2522      8.2666      8.2594      8.2253      8.1630      8.0755      7.9706      7.8615    
  7.7650      7.6983      7.6745      7.6983      7.7650      7.8615      7.9706      8.0755      8.1630      8.2253    
  8.2594      8.2666      8.2522      8.2243      8.1935      8.1699      9.1581      9.1441      9.1021      9.0322    
  8.9370      8.8215      8.6925      8.5552      8.4126      8.2662      8.1191      7.9796      7.8615      7.7813    
  7.7528      7.7813      7.8615      7.9796      8.1191      8.2662      8.4126      8.5552      8.6925      8.8215    
  8.9370      9.0322      9.1021      9.1441      11.456      11.376      11.146      10.797      10.373      9.9271    
  9.5029      9.1273      8.8076      8.5379      8.3097      8.1191      7.9706      7.8745      7.8410      7.8745    
  7.9706      8.1191      8.3097      8.5379      8.8076      9.1273      9.5029      9.9271      10.373      10.797    
  11.146      11.376      16.514      16.257      15.537      14.490      13.277      12.059      10.973      10.089    
  9.4121      8.9089      8.5379      8.2662      8.0755      7.9603      7.9214      7.9603      8.0755      8.2662    
  8.5379      8.9089      9.4121      10.089      10.973      12.059      13.277      14.490      15.537      16.257    
  27.437      26.742      24.788      21.961      18.838      15.953      13.535      11.662      10.323      9.4121    
  8.8076      8.4126      8.1630      8.0231      7.9776      8.0231      8.1630      8.4126      8.8076      9.4121    
  10.323      11.662      13.535      15.953      18.838      21.961      24.788      26.742      48.611      47.132    
  42.898      36.608      29.475      22.883      17.754      14.128      11.662      10.089      9.1273      8.5552    
  8.2253      8.0522      7.9977      8.0522      8.2253      8.5552      9.1273      10.089      11.662      14.128    
  17.754      22.883      29.475      36.608      42.898      47.132      82.820      80.252      72.765      61.278    
  47.753      34.807      24.582      17.754      13.535      10.973      9.5029      8.6925      8.2594      8.0440    
  7.9776      8.0440      8.2594      8.6925      9.5029      10.973      13.535      17.754      24.582      34.807    
  47.753      61.278      72.765      80.252      127.64      123.97      113.01      95.494      73.938      52.421    
  34.807      22.883      15.953      12.059      9.9271      8.8215      8.2666      8.0020      7.9214      8.0020    
  8.2666      8.8215      9.9271      12.059      15.953      22.883      34.807      52.421      73.938      95.494    
  113.01      123.97      174.09      169.83      156.55      134.01      104.67      73.938      47.753      29.475    
  18.838      13.277      10.373      8.9370      8.2522      7.9363      7.8410      7.9363      8.2522      8.9370    
  10.373      13.277      18.838      29.475      47.753      73.938      104.67      134.01      156.55      169.83    
  210.73      206.80      193.53      168.80      134.01      95.494      61.278      36.608      21.961      14.490    
  10.797      9.0322      8.2243      7.8617      7.7528      7.8617      8.2243      9.0322      10.797      14.490    
  21.961      36.608      61.278      95.494      134.01      168.80      193.53      206.80      231.14      228.36    
  217.37      193.53      156.55      113.01      72.765      42.898      24.788      15.537      11.146      9.1021    
  8.1935      7.7939      7.6745      7.7939      8.1935      9.1021      11.146      15.537      24.788      42.898    
  72.765      113.01      156.55      193.53      217.37      228.36      237.97      236.48      228.36      206.80    
  169.83      123.97      80.252      47.132      26.742      16.257      11.376      9.1441      8.1699      7.7471    
  7.6210      7.7471      8.1699      9.1441      11.376      16.257      26.742      47.132      80.252      123.97    
  169.83      206.80      228.36      236.48      237.97      236.48      228.36      206.80      169.83      123.97    
  80.252      47.132      26.742      16.257      11.376      9.1441      8.1699      7.7471      7.6210      7.7471    
  8.1699      9.1441      11.376      16.257      26.742      47.132      80.252      123.97      169.83      206.80    
  228.36      236.48      236.48      234.49      225.23      202.69      165.54      120.34      77.737      45.695    
  26.075      16.012      11.300      9.1326      8.1803      7.7652      7.6413      7.7652      8.1803      9.1326    
  11.300      16.012      26.075      45.695      77.737      120.34      165.54      202.69      225.23      234.49    
  228.36      225.23      213.48      189.10      152.25      109.54      70.428      41.597      24.200      15.327    
  11.084      9.0969      8.2083      7.8158      7.6983      7.8158      8.2083      9.0969      11.084      15.327    
  24.200      41.597      70.428      109.54      152.25      189.10      213.48      225.23      206.80      202.69    
  189.10      164.29      129.98      92.394      59.275      35.534      21.496      14.327      10.753      9.0361    
  8.2451      7.8884      7.7813      7.8884      8.2451      9.0361      10.753      14.327      21.496      35.534    
  59.275      92.394      129.98      164.29      189.10      202.69      169.83      165.54      152.25      129.98    
  101.27      71.457      46.219      28.692      18.516      13.164      10.350      8.9508      8.2794      7.9684    
  7.8745      7.9684      8.2794      8.9508      10.350      13.164      18.516      28.692      46.219      71.457    
  101.27      129.98      152.25      165.54      123.97      120.34      109.54      92.394      71.457      50.695    
  33.792      22.394      15.756      11.994      9.9247      8.8456      8.3006      8.0397      7.9603      8.0397    
  8.3006      8.8456      9.9247      11.994      15.756      22.394      33.792      50.695      71.457      92.394    
  109.54      120.34      80.252      77.737      70.428      59.275      46.219      33.792      24.019      17.494    
  13.428      10.949      9.5193      8.7269      8.3011      8.0886      8.0231      8.0886      8.3011      8.7269    
  9.5193      10.949      13.428      17.494      24.019      33.792      46.219      59.275      70.428      77.737    
  47.132      45.695      41.597      35.534      28.692      22.394      17.494      14.005      11.622      10.097    
  9.1603      8.6006      8.2765      8.1060      8.0522      8.1060      8.2765      8.6006      9.1603      10.097    
  11.622      14.005      17.494      22.394      28.692      35.534      41.597      45.695      26.742      26.075    
  24.200      21.496      18.516      15.756      13.428      11.622      10.327      9.4434      8.8554      8.4701    
  8.2259      8.0886      8.0440      8.0886      8.2259      8.4701      8.8554      9.4434      10.327      11.622    
  13.428      15.756      18.516      21.496      24.200      26.075      16.257      16.012      15.327      14.327    
  13.164      11.994      10.949      10.097      9.4434      8.9576      8.5992      8.3364      8.1516      8.0397    
  8.0020      8.0397      8.1516      8.3364      8.5992      8.9576      9.4434      10.097      10.949      11.994    
  13.164      14.327      15.327      16.012      11.376      11.300      11.084      10.753      10.350      9.9247    
  9.5193      9.1603      8.8554      8.5992      8.3827      8.2018      8.0603      7.9684      7.9363      7.9684    
  8.0603      8.2018      8.3827      8.5992      8.8554      9.1603      9.5193      9.9247      10.350      10.753    
  11.084      11.300      9.1441      9.1326      9.0969      9.0361      8.9508      8.8456      8.7269      8.6006    
  8.4701      8.3364      8.2018      8.0732      7.9635      7.8884      7.8617      7.8884      7.9635      8.0732    
  8.2018      8.3364      8.4701      8.6006      8.7269      8.8456      8.9508      9.0361      9.0969      9.1326    
  8.1699      8.1803      8.2083      8.2451      8.2794      8.3006      8.3011      8.2765      8.2259      8.1516    
  8.0603      7.9635      7.8765      7.8158      7.7939      7.8158      7.8765      7.9635      8.0603      8.1516    
  8.2259      8.2765      8.3011      8.3006      8.2794      8.2451      8.2083      8.1803      7.7471      7.7652    
  7.8158      7.8884      7.9684      8.0397      8.0886      8.1060      8.0886      8.0397      7.9684      7.8884    
  7.8158      7.7652      7.7471      7.7652      7.8158      7.8884      7.9684      8.0397      8.0886      8.1060    
  8.0886      8.0397      7.9684      7.8884      7.8158      7.7652      7.6210      7.6413      7.6983      7.7813    
  7.8745      7.9603      8.0231      8.0522      8.0440      8.0020      7.9363      7.8617      7.7939      7.7471    
  7.7303      7.7471      7.7939      7.8617      7.9363      8.0020      8.0440      8.0522      8.0231      7.9603    
  7.8745      7.7813      7.6983      7.6413      7.7471      7.7652      7.8158      7.8884      7.9684      8.0397    
  8.0886      8.1060      8.0886      8.0397      7.9684      7.8884      7.8158      7.7652      7.7471      7.7652    
  7.8158      7.8884      7.9684      8.0397      8.0886      8.1060      8.0886      8.0397      7.9684      7.8884    
  7.8158      7.7652      8.1699      8.1803      8.2083      8.2451      8.2794      8.3006      8.3011      8.2765    
  8.2259      8.1516      8.0603      7.9635      7.8765      7.8158      7.7939      7.8158      7.8765      7.9635    
  8.0603      8.1516      8.2259      8.2765      8.3011      8.3006      8.2794      8.2451      8.2083      8.1803    
  9.1441      9.1326      9.0969      9.0361      8.9508      8.8456      8.7269      8.6006      8.4701      8.3364    
  8.2018      8.0732      7.9635      7.8884      7.8617      7.8884      7.9635      8.0732      8.2018      8.3364    
  8.4701      8.6006      8.7269      8.8456      8.9508      9.0361      9.0969      9.1326      11.376      11.300    
  11.084      10.753      10.350      9.9247      9.5193      9.1603      8.8554      8.5992      8.3827      8.2018    
  8.0603      7.9684      7.9363      7.9684      8.0603      8.2018      8.3827      8.5992      8.8554      9.1603    
  9.5193      9.9247      10.350      10.753      11.084      11.300      16.257      16.012      15.327      14.327    
  13.164      11.994      10.949      10.097      9.4434      8.9576      8.5992      8.3364      8.1516      8.0397    
  8.0020      8.0397      8.1516      8.3364      8.5992      8.9576      9.4434      10.097      10.949      11.994    
  13.164      14.327      15.327      16.012      26.742      26.075      24.200      21.496      18.516      15.756    
  13.428      11.622      10.327      9.4434      8.8554      8.4701      8.2259      8.0886      8.0440      8.0886    
  8.2259      8.4701      8.8554      9.4434      10.327      11.622      13.428      15.756      18.516      21.496    
  24.200      26.075      47.132      45.695      41.597      35.534      28.692      22.394      17.494      14.005    
  11.622      10.097      9.1603      8.6006      8.2765      8.1060      8.0522      8.1060      8.2765      8.6006    
  9.1603      10.097      11.622      14.005      17.494      22.394      28.692      35.534      41.597      45.695    
  80.252      77.737      70.428      59.275      46.219      33.792      24.019      17.494      13.428      10.949    
  9.5193      8.7269      8.3011      8.0886      8.0231      8.0886      8.3011      8.7269      9.5193      10.949    
  13.428      17.494      24.019      33.792      46.219      59.275      70.428      77.737      123.97      120.34    
  109.54      92.394      71.457      50.695      33.792      22.394      15.756      11.994      9.9247      8.8456    
  8.3006      8.0397      7.9603      8.0397      8.3006      8.8456      9.9247      11.994      15.756      22.394    
  33.792      50.695      71.457      92.394      109.54      120.34      169.83      165.54      152.25      129.98    
  101.27      71.457      46.219      28.692      18.516      13.164      10.350      8.9508      8.2794      7.9684    
  7.8745      7.9684      8.2794      8.9508      10.350      13.164      18.516      28.692      46.219      71.457    
  101.27      129.98      152.25      165.54      206.80      202.69      189.10      164.29      129.98      92.394    
  59.275      35.534      21.496      14.327      10.753      9.0361      8.2451      7.8884      7.7813      7.8884    
  8.2451      9.0361      10.753      14.327      21.496      35.534      59.275      92.394      129.98      164.29    
  189.10      202.69      228.36      225.23      213.48      189.10      152.25      109.54      70.428      41.597    
  24.200      15.327      11.084      9.0969      8.2083      7.8158      7.6983      7.8158      8.2083      9.0969    
  11.084      15.327      24.200      41.597      70.428      109.54      152.25      189.10      213.48      225.23    
  236.48      234.49      225.23      202.69      165.54      120.34      77.737      45.695      26.075      16.012    
  11.300      9.1326      8.1803      7.7652      7.6413      7.7652      8.1803      9.1326      11.300      16.012    
  26.075      45.695      77.737      120.34      165.54      202.69      225.23      234.49      231.14      228.36    
  217.37      193.53      156.55      113.01      72.765      42.898      24.788      15.537      11.146      9.1021    
  8.1935      7.7939      7.6745      7.7939      8.1935      9.1021      11.146      15.537      24.788      42.898    
  72.765      113.01      156.55      193.53      217.37      228.36      228.36      225.23      213.48      189.10    
  152.25      109.54      70.428      41.597      24.200      15.327      11.084      9.0969      8.2083      7.8158    
  7.6983      7.8158      8.2083      9.0969      11.084      15.327      24.200      41.597      70.428      109.54    
  152.25      189.10      213.48      225.23      217.37      213.48      200.17      175.00      139.22      99.320    
  63.696      37.911      22.558      14.737      10.903      9.0792      8.2482      7.8765      7.7650      7.8765    
  8.2482      9.0792      10.903      14.737      22.558      37.911      63.696      99.320      139.22      175.00    
  200.17      213.48      193.53      189.10      175.00      150.53      118.01      83.418      53.570      32.520    
  20.205      13.866      10.625      9.0441      8.3021      7.9635      7.8615      7.9635      8.3021      9.0441    
  10.625      13.866      20.205      32.520      53.570      83.418      118.01      150.53      175.00      189.10    
  156.55      152.25      139.22      118.01      91.406      64.379      41.906      26.515      17.622      12.842    
  10.283      8.9888      8.3566      8.0603      7.9706      8.0603      8.3566      8.9888      10.283      12.842    
  17.622      26.515      41.906      64.379      91.406      118.01      139.22      152.25      113.01      109.54    
  99.320      83.418      64.379      45.837      30.971      21.041      15.203      11.809      9.9184      8.9159    
  8.4009      8.1516      8.0755      8.1516      8.4009      8.9159      9.9184      11.809      15.203      21.041    
  30.971      45.837      64.379      83.418      99.320      109.54      72.765      70.428      63.696      53.570    
  41.906      30.971      22.466      16.770      13.129      10.883      9.5707      8.8319      8.4289      8.2259    
  8.1630      8.2259      8.4289      8.8319      9.5707      10.883      13.129      16.770      22.466      30.971    
  41.906      53.570      63.696      70.428      42.898      41.597      37.911      32.520      26.515      21.041    
  16.770      13.657      11.512      10.126      9.2649      8.7438      8.4384      8.2765      8.2253      8.2765    
  8.4384      8.7438      9.2649      10.126      11.512      13.657      16.770      21.041      26.515      32.520    
  37.911      41.597      24.788      24.200      22.558      20.205      17.622      15.203      13.129      11.512    
  10.346      9.5455      9.0091      8.6550      8.4289      8.3011      8.2594      8.3011      8.4289      8.6550    
  9.0091      9.5455      10.346      11.512      13.129      15.203      17.622      20.205      22.558      24.200    
  15.537      15.327      14.737      13.866      12.842      11.809      10.883      10.126      9.5455      9.1149    
  8.7979      8.5653      8.4009      8.3006      8.2666      8.3006      8.4009      8.5653      8.7979      9.1149    
  9.5455      10.126      10.883      11.809      12.842      13.866      14.737      15.327      11.146      11.084    
  10.903      10.625      10.283      9.9184      9.5707      9.2649      9.0091      8.7979      8.6215      8.4737    
  8.3566      8.2794      8.2522      8.2794      8.3566      8.4737      8.6215      8.7979      9.0091      9.2649    
  9.5707      9.9184      10.283      10.625      10.903      11.084      9.1021      9.0969      9.0792      9.0441    
  8.9888      8.9159      8.8319      8.7438      8.6550      8.5653      8.4737      8.3829      8.3021      8.2451    
  8.2243      8.2451      8.3021      8.3829      8.4737      8.5653      8.6550      8.7438      8.8319      8.9159    
  8.9888      9.0441      9.0792      9.0969      8.1935      8.2083      8.2482      8.3021      8.3566      8.4009    
  8.4289      8.4384      8.4289      8.4009      8.3566      8.3021      8.2482      8.2083      8.1935      8.2083    
  8.2482      8.3021      8.3566      8.4009      8.4289      8.4384      8.4289      8.4009      8.3566      8.3021    
  8.2482      8.2083      7.7939      7.8158      7.8765      7.9635      8.0603      8.1516      8.2259      8.2765    
  8.3011      8.3006      8.2794      8.2451      8.2083      8.1803      8.1699      8.1803      8.2083      8.2451    
  8.2794      8.3006      8.3011      8.2765      8.2259      8.1516      8.0603      7.9635      7.8765      7.8158    
  7.6745      7.6983      7.7650      7.8615      7.9706      8.0755      8.1630      8.2253      8.2594      8.2666    
  8.2522      8.2243      8.1935      8.1699      8.1611      8.1699      8.1935      8.2243      8.2522      8.2666    
  8.2594      8.2253      8.1630      8.0755      7.9706      7.8615      7.7650      7.6983      7.7939      7.8158    
  7.8765      7.9635      8.0603      8.1516      8.2259      8.2765      8.3011      8.3006      8.2794      8.2451    
  8.2083      8.1803      8.1699      8.1803      8.2083      8.2451      8.2794      8.3006      8.3011      8.2765    
  8.2259      8.1516      8.0603      7.9635      7.8765      7.8158      8.1935      8.2083      8.2482      8.3021    
  8.3566      8.4009      8.4289      8.4384      8.4289      8.4009      8.3566      8.3021      8.2482      8.2083    
  8.1935      8.2083      8.2482      8.3021      8.3566      8.4009      8.4289      8.4384      8.4289      8.4009    
  8.3566      8.3021      8.2482      8.2083      9.1021      9.0969      9.0792      9.0441      8.9888      8.9159    
  8.8319      8.7438      8.6550      8.5653      8.4737      8.3829      8.3021      8.2451      8.2243      8.2451    
  8.3021      8.3829      8.4737      8.5653      8.6550      8.7438      8.8319      8.9159      8.9888      9.0441    
  9.0792      9.0969      11.146      11.084      10.903      10.625      10.283      9.9184      9.5707      9.2649    
  9.0091      8.7979      8.6215      8.4737      8.3566      8.2794      8.2522      8.2794      8.3566      8.4737    
  8.6215      8.7979      9.0091      9.2649      9.5707      9.9184      10.283      10.625      10.903      11.084    
  15.537      15.327      14.737      13.866      12.842      11.809      10.883      10.126      9.5455      9.1149    
  8.7979      8.5653      8.4009      8.3006      8.2666      8.3006      8.4009      8.5653      8.7979      9.1149    
  9.5455      10.126      10.883      11.809      12.842      13.866      14.737      15.327      24.788      24.200    
  22.558      20.205      17.622      15.203      13.129      11.512      10.346      9.5455      9.0091      8.6550    
  8.4289      8.3011      8.2594      8.3011      8.4289      8.6550      9.0091      9.5455      10.346      11.512    
  13.129      15.203      17.622      20.205      22.558      24.200      42.898      41.597      37.911      32.520    
  26.515      21.041      16.770      13.657      11.512      10.126      9.2649      8.7438      8.4384      8.2765    
  8.2253      8.2765      8.4384      8.7438      9.2649      10.126      11.512      13.657      16.770      21.041    
  26.515      32.520      37.911      41.597      72.765      70.428      63.696      53.570      41.906      30.971    
  22.466      16.770      13.129      10.883      9.5707      8.8319      8.4289      8.2259      8.1630      8.2259    
  8.4289      8.8319      9.5707      10.883      13.129      16.770      22.466      30.971      41.906      53.570    
  63.696      70.428      113.01      109.54      99.320      83.418      64.379      45.837      30.971      21.041    
  15.203      11.809      9.9184      8.9159      8.4009      8.1516      8.0755      8.1516      8.4009      8.9159    
  9.9184      11.809      15.203      21.041      30.971      45.837      64.379      83.418      99.320      109.54    
  156.55      152.25      139.22      118.01      91.406      64.379      41.906      26.515      17.622      12.842    
  10.283      8.9888      8.3566      8.0603      7.9706      8.0603      8.3566      8.9888      10.283      12.842    
  17.622      26.515      41.906      64.379      91.406      118.01      139.22      152.25      193.53      189.10    
  175.00      150.53      118.01      83.418      53.570      32.520      20.205      13.866      10.625      9.0441    
  8.3021      7.9635      7.8615      7.9635      8.3021      9.0441      10.625      13.866      20.205      32.520    
  53.570      83.418      118.01      150.53      175.00      189.10      217.37      213.48      200.17      175.00    
  139.22      99.320      63.696      37.911      22.558      14.737      10.903      9.0792      8.2482      7.8765    
  7.7650      7.8765      8.2482      9.0792      10.903      14.737      22.558      37.911      63.696      99.320    
  139.22      175.00      200.17      213.48      228.36      225.23      213.48      189.10      152.25      109.54    
  70.428      41.597      24.200      15.327      11.084      9.0969      8.2083      7.8158      7.6983      7.8158    
  8.2083      9.0969      11.084      15.327      24.200      41.597      70.428      109.54      152.25      189.10    
  213.48      225.23      210.73      206.80      193.53      168.80      134.01      95.494      61.278      36.608    
  21.961      14.490      10.797      9.0322      8.2243      7.8617      7.7528      7.8617      8.2243      9.0322    
  10.797      14.490      21.961      36.608      61.278      95.494      134.01      168.80      193.53      206.80    
  206.80      202.69      189.10      164.29      129.98      92.394      59.275      35.534      21.496      14.327    
  10.753      9.0361      8.2451      7.8884      7.7813      7.8884      8.2451      9.0361      10.753      14.327    
  21.496      35.534      59.275      92.394      129.98      164.29      189.10      202.69      193.53      189.10    
  175.00      150.53      118.01      83.418      53.570      32.520      20.205      13.866      10.625      9.0441    
  8.3021      7.9635      7.8615      7.9635      8.3021      9.0441      10.625      13.866      20.205      32.520    
  53.570      83.418      118.01      150.53      175.00      189.10      168.80      164.29      150.53      127.88    
  99.190      69.786      45.154      28.182      18.368      13.174      10.425      9.0484      8.3829      8.0732    