Mo                                      
   1.00000000000000     
     3.169300    0.000000    0.000000
     0.000000    3.169300    0.000000
     0.000000    0.000000    3.169300
   Mo
     2
Direct
  0.000000  0.000000  0.000000
  0.500000  0.500000  0.500000
 
   28   28   28
 0.23890154565E+03 0.23797269179E+03 0.23114284905E+03 0.21073194061E+03 0.17408751610E+03
 0.12763607929E+03 0.82820028126E+02 0.48611468219E+02 0.27436569768E+02 0.16513816559E+02
 0.11455807365E+02 0.91580874483E+01 0.81611351499E+01 0.77303452746E+01 0.76020448353E+01
 0.77303452746E+01 0.81611351499E+01 0.91580874483E+01 0.11455807365E+02 0.16513816559E+02
 0.27436569768E+02 0.48611468219E+02 0.82820028126E+02 0.12763607929E+03 0.17408751610E+03
 0.21073194061E+03 0.23114284905E+03 0.23797269179E+03 0.23797269179E+03 0.23648209118E+03
 0.22836168797E+03 0.20679985892E+03 0.16983231164E+03 0.12397346048E+03 0.80252359277E+02
 0.47131649371E+02 0.26742196458E+02 0.16256708274E+02 0.11375824309E+02 0.91441408548E+01
 0.81699189723E+01 0.77470537575E+01 0.76210002411E+01 0.77470537575E+01 0.81699189723E+01
 0.91441408548E+01 0.11375824309E+02 0.16256708274E+02 0.26742196458E+02 0.47131649371E+02
 0.80252359277E+02 0.12397346048E+03 0.16983231164E+03 0.20679985892E+03 0.22836168797E+03
 0.23648209118E+03 0.23114284905E+03 0.22836168797E+03 0.21736954044E+03 0.19353237553E+03
 0.15654695322E+03 0.11301119269E+03 0.72765297492E+02 0.42898269589E+02 0.24787711184E+02
 0.15536690637E+02 0.11146118158E+02 0.91020940896E+01 0.81934967317E+01 0.77939308122E+01
 0.76745135680E+01 0.77939308122E+01 0.81934967317E+01 0.91020940896E+01 0.11146118158E+02
 0.15536690637E+02 0.24787711184E+02 0.42898269589E+02 0.72765297492E+02 0.11301119269E+03
 0.15654695322E+03 0.19353237553E+03 0.21736954044E+03 0.22836168797E+03 0.21073194061E+03
 0.20679985892E+03 0.19353237553E+03 0.16879633564E+03 0.13401432158E+03 0.95493600594E+02
 0.61278350462E+02 0.36608204427E+02 0.21960665981E+02 0.14489740304E+02 0.10796663861E+02
 0.90322166245E+01 0.82243262595E+01 0.78616602749E+01 0.77528284349E+01 0.78616602749E+01
 0.82243262595E+01 0.90322166245E+01 0.10796663861E+02 0.14489740304E+02 0.21960665981E+02
 0.36608204427E+02 0.61278350462E+02 0.95493600594E+02 0.13401432158E+03 0.16879633564E+03
 0.19353237553E+03 0.20679985892E+03 0.17408751610E+03 0.16983231164E+03 0.15654695322E+03
 0.13401432158E+03 0.10466948001E+03 0.73937932884E+02 0.47753060831E+02 0.29475059492E+02
 0.18837603810E+02 0.13276513945E+02 0.10373110916E+02 0.89369558479E+01 0.82521587258E+01
 0.79363116854E+01 0.78409968994E+01 0.79363116854E+01 0.82521587258E+01 0.89369558479E+01
 0.10373110916E+02 0.13276513945E+02 0.18837603810E+02 0.29475059492E+02 0.47753060831E+02
 0.73937932884E+02 0.10466948001E+03 0.13401432158E+03 0.15654695322E+03 0.16983231164E+03
 0.12763607929E+03 0.12397346048E+03 0.11301119269E+03 0.95493600594E+02 0.73937932884E+02
 0.52420785939E+02 0.34806859087E+02 0.22883401167E+02 0.15952524924E+02 0.12059016579E+02
 0.99270823621E+01 0.88215291596E+01 0.82666193598E+01 0.80019533043E+01 0.79214371508E+01
 0.80019533043E+01 0.82666193598E+01 0.88215291596E+01 0.99270823621E+01 0.12059016579E+02
 0.15952524924E+02 0.22883401167E+02 0.34806859087E+02 0.52420785939E+02 0.73937932884E+02
 0.95493600594E+02 0.11301119269E+03 0.12397346048E+03 0.82820028126E+02 0.80252359277E+02
 0.72765297492E+02 0.61278350462E+02 0.47753060831E+02 0.34806859087E+02 0.24581773196E+02
 0.17753835192E+02 0.13534842862E+02 0.10973352449E+02 0.95029101861E+01 0.86924795114E+01
 0.82593656567E+01 0.80439800827E+01 0.79776007889E+01 0.80439800827E+01 0.82593656567E+01
 0.86924795114E+01 0.95029101861E+01 0.10973352449E+02 0.13534842862E+02 0.17753835192E+02
 0.24581773196E+02 0.34806859087E+02 0.47753060831E+02 0.61278350462E+02 0.72765297492E+02
 0.80252359277E+02 0.48611468219E+02 0.47131649371E+02 0.42898269589E+02 0.36608204427E+02
 0.29475059492E+02 0.22883401167E+02 0.17753835192E+02 0.14128371931E+02 0.11662331576E+02
 0.10089249839E+02 0.91273165747E+01 0.85552139446E+01 0.82252917598E+01 0.80522250414E+01
 0.79977356942E+01 0.80522250414E+01 0.82252917598E+01 0.85552139446E+01 0.91273165747E+01
 0.10089249839E+02 0.11662331576E+02 0.14128371931E+02 0.17753835192E+02 0.22883401167E+02
 0.29475059492E+02 0.36608204427E+02 0.42898269589E+02 0.47131649371E+02 0.27436569768E+02
 0.26742196458E+02 0.24787711184E+02 0.21960665981E+02 0.18837603810E+02 0.15952524924E+02
 0.13534842862E+02 0.11662331576E+02 0.10323185524E+02 0.94120837950E+01 0.88075577191E+01
 0.84126220080E+01 0.81630420359E+01 0.80230711141E+01 0.79776007889E+01 0.80230711141E+01
 0.81630420359E+01 0.84126220080E+01 0.88075577191E+01 0.94120837950E+01 0.10323185524E+02
 0.11662331576E+02 0.13534842862E+02 0.15952524924E+02 0.18837603810E+02 0.21960665981E+02
 0.24787711184E+02 0.26742196458E+02 0.16513816559E+02 0.16256708274E+02 0.15536690637E+02
 0.14489740304E+02 0.13276513945E+02 0.12059016579E+02 0.10973352449E+02 0.10089249839E+02
 0.94120837950E+01 0.89089430452E+01 0.85379214321E+01 0.82661823466E+01 0.80755240808E+01
 0.79602780245E+01 0.79214371508E+01 0.79602780245E+01 0.80755240808E+01 0.82661823466E+01
 0.85379214321E+01 0.89089430452E+01 0.94120837950E+01 0.10089249839E+02 0.10973352449E+02
 0.12059016579E+02 0.13276513945E+02 0.14489740304E+02 0.15536690637E+02 0.16256708274E+02
 0.11455807365E+02 0.11375824309E+02 0.11146118158E+02 0.10796663861E+02 0.10373110916E+02
 0.99270823621E+01 0.95029101861E+01 0.91273165747E+01 0.88075577191E+01 0.85379214321E+01
 0.83096845655E+01 0.81191299676E+01 0.79706390415E+01 0.78744842109E+01 0.78409968994E+01
 0.78744842109E+01 0.79706390415E+01 0.81191299676E+01 0.83096845655E+01 0.85379214321E+01
 0.88075577191E+01 0.91273165747E+01 0.95029101861E+01 0.99270823621E+01 0.10373110916E+02
 0.10796663861E+02 0.11146118158E+02 0.11375824309E+02 0.91580874483E+01 0.91441408548E+01
 0.91020940896E+01 0.90322166245E+01 0.89369558479E+01 0.88215291596E+01 0.86924795114E+01
 0.85552139446E+01 0.84126220080E+01 0.82661823466E+01 0.81191299676E+01 0.79796248139E+01
 0.78614962060E+01 0.77813278280E+01 0.77528284349E+01 0.77813278280E+01 0.78614962060E+01
 0.79796248139E+01 0.81191299676E+01 0.82661823466E+01 0.84126220080E+01 0.85552139446E+01
 0.86924795114E+01 0.88215291596E+01 0.89369558479E+01 0.90322166245E+01 0.91020940896E+01
 0.91441408548E+01 0.81611351499E+01 0.81699189723E+01 0.81934967317E+01 0.82243262595E+01
 0.82521587258E+01 0.82666193598E+01 0.82593656567E+01 0.82252917598E+01 0.81630420359E+01
 0.80755240808E+01 0.79706390415E+01 0.78614962060E+01 0.77649898774E+01 0.76983397897E+01
 0.76745135680E+01 0.76983397897E+01 0.77649898774E+01 0.78614962060E+01 0.79706390415E+01
 0.80755240808E+01 0.81630420359E+01 0.82252917598E+01 0.82593656567E+01 0.82666193598E+01
 0.82521587258E+01 0.82243262595E+01 0.81934967317E+01 0.81699189723E+01 0.77303452746E+01
 0.77470537575E+01 0.77939308122E+01 0.78616602749E+01 0.79363116854E+01 0.80019533043E+01
 0.80439800827E+01 0.80522250414E+01 0.80230711141E+01 0.79602780245E+01 0.78744842109E+01
 0.77813278280E+01 0.76983397897E+01 0.76412922222E+01 0.76210002411E+01 0.76412922222E+01
 0.76983397897E+01 0.77813278280E+01 0.78744842109E+01 0.79602780245E+01 0.80230711141E+01
 0.80522250414E+01 0.80439800827E+01 0.80019533043E+01 0.79363116854E+01 0.78616602749E+01
 0.77939308122E+01 0.77470537575E+01 0.76020448353E+01 0.76210002411E+01 0.76745135680E+01
 0.77528284349E+01 0.78409968994E+01 0.79214371508E+01 0.79776007889E+01 0.79977356942E+01
 0.79776007889E+01 0.79214371508E+01 0.78409968994E+01 0.77528284349E+01 0.76745135680E+01
 0.76210002411E+01 0.76020448353E+01 0.76210002411E+01 0.76745135680E+01 0.77528284349E+01
 0.78409968994E+01 0.79214371508E+01 0.79776007889E+01 0.79977356942E+01 0.79776007889E+01
 0.79214371508E+01 0.78409968994E+01 0.77528284349E+01 0.76745135680E+01 0.76210002411E+01
 0.77303452746E+01 0.77470537575E+01 0.77939308122E+01 0.78616602749E+01 0.79363116854E+01
 0.80019533043E+01 0.80439800827E+01 0.80522250414E+01 0.80230711141E+01 0.79602780245E+01
 0.78744842109E+01 0.77813278280E+01 0.76983397897E+01 0.76412922222E+01 0.76210002411E+01
 0.76412922222E+01 0.76983397897E+01 0.77813278280E+01 0.78744842109E+01 0.79602780245E+01
 0.80230711141E+01 0.80522250414E+01 0.80439800827E+01 0.80019533043E+01 0.79363116854E+01
 0.78616602749E+01 0.77939308122E+01 0.77470537575E+01 0.81611351499E+01 0.81699189723E+01
 0.81934967317E+01 0.82243262595E+01 0.82521587258E+01 0.82666193598E+01 0.82593656567E+01
 0.82252917598E+01 0.81630420359E+01 0.80755240808E+01 0.79706390415E+01 0.78614962060E+01
 0.77649898774E+01 0.76983397897E+01 0.76745135680E+01 0.76983397897E+01 0.77649898774E+01
 0.78614962060E+01 0.79706390415E+01 0.80755240808E+01 0.81630420359E+01 0.82252917598E+01
 0.82593656567E+01 0.82666193598E+01 0.82521587258E+01 0.82243262595E+01 0.81934967317E+01
 0.81699189723E+01 0.91580874483E+01 0.91441408548E+01 0.91020940896E+01 0.90322166245E+01
 0.89369558479E+01 0.88215291596E+01 0.86924795114E+01 0.85552139446E+01 0.84126220080E+01
 0.82661823466E+01 0.81191299676E+01 0.79796248139E+01 0.78614962060E+01 0.77813278280E+01
 0.77528284349E+01 0.77813278280E+01 0.78614962060E+01 0.79796248139E+01 0.81191299676E+01
 0.82661823466E+01 0.84126220080E+01 0.85552139446E+01 0.86924795114E+01 0.88215291596E+01
 0.89369558479E+01 0.90322166245E+01 0.91020940896E+01 0.91441408548E+01 0.11455807365E+02
 0.11375824309E+02 0.11146118158E+02 0.10796663861E+02 0.10373110916E+02 0.99270823621E+01
 0.95029101861E+01 0.91273165747E+01 0.88075577191E+01 0.85379214321E+01 0.83096845655E+01
 0.81191299676E+01 0.79706390415E+01 0.78744842109E+01 0.78409968994E+01 0.78744842109E+01
 0.79706390415E+01 0.81191299676E+01 0.83096845655E+01 0.85379214321E+01 0.88075577191E+01
 0.91273165747E+01 0.95029101861E+01 0.99270823621E+01 0.10373110916E+02 0.10796663861E+02
 0.11146118158E+02 0.11375824309E+02 0.16513816559E+02 0.16256708274E+02 0.15536690637E+02
 0.14489740304E+02 0.13276513945E+02 0.12059016579E+02 0.10973352449E+02 0.10089249839E+02
 0.94120837950E+01 0.89089430452E+01 0.85379214321E+01 0.82661823466E+01 0.80755240808E+01
 0.79602780245E+01 0.79214371508E+01 0.79602780245E+01 0.80755240808E+01 0.82661823466E+01
 0.85379214321E+01 0.89089430452E+01 0.94120837950E+01 0.10089249839E+02 0.10973352449E+02
 0.12059016579E+02 0.13276513945E+02 0.14489740304E+02 0.15536690637E+02 0.16256708274E+02
 0.27436569768E+02 0.26742196458E+02 0.24787711184E+02 0.21960665981E+02 0.18837603810E+02
 0.15952524924E+02 0.13534842862E+02 0.11662331576E+02 0.10323185524E+02 0.94120837950E+01
 0.88075577191E+01 0.84126220080E+01 0.81630420359E+01 0.80230711141E+01 0.79776007889E+01
 0.80230711141E+01 0.81630420359E+01 0.84126220080E+01 0.88075577191E+01 0.94120837950E+01
 0.10323185524E+02 0.11662331576E+02 0.13534842862E+02 0.15952524924E+02 0.18837603810E+02
 0.21960665981E+02 0.24787711184E+02 0.26742196458E+02 0.48611468219E+02 0.47131649371E+02
 0.42898269589E+02 0.36608204427E+02 0.29475059492E+02 0.22883401167E+02 0.17753835192E+02
 0.14128371931E+02 0.11662331576E+02 0.10089249839E+02 0.91273165747E+01 0.85552139446E+01
 0.82252917598E+01 0.80522250414E+01 0.79977356942E+01 0.80522250414E+01 0.82252917598E+01
 0.85552139446E+01 0.91273165747E+01 0.10089249839E+02 0.11662331576E+02 0.14128371931E+02
 0.17753835192E+02 0.22883401167E+02 0.29475059492E+02 0.36608204427E+02 0.42898269589E+02
 0.47131649371E+02 0.82820028126E+02 0.80252359277E+02 0.72765297492E+02 0.61278350462E+02
 0.47753060831E+02 0.34806859087E+02 0.24581773196E+02 0.17753835192E+02 0.13534842862E+02
 0.10973352449E+02 0.95029101861E+01 0.86924795114E+01 0.82593656567E+01 0.80439800827E+01
 0.79776007889E+01 0.80439800827E+01 0.82593656567E+01 0.86924795114E+01 0.95029101861E+01
 0.10973352449E+02 0.13534842862E+02 0.17753835192E+02 0.24581773196E+02 0.34806859087E+02
 0.47753060831E+02 0.61278350462E+02 0.72765297492E+02 0.80252359277E+02 0.12763607929E+03
 0.12397346048E+03 0.11301119269E+03 0.95493600594E+02 0.73937932884E+02 0.52420785939E+02
 0.34806859087E+02 0.22883401167E+02 0.15952524924E+02 0.12059016579E+02 0.99270823621E+01
 0.88215291596E+01 0.82666193598E+01 0.80019533043E+01 0.79214371508E+01 0.80019533043E+01
 0.82666193598E+01 0.88215291596E+01 0.99270823621E+01 0.12059016579E+02 0.15952524924E+02
 0.22883401167E+02 0.34806859087E+02 0.52420785939E+02 0.73937932884E+02 0.95493600594E+02
 0.11301119269E+03 0.12397346048E+03 0.17408751610E+03 0.16983231164E+03 0.15654695322E+03
 0.13401432158E+03 0.10466948001E+03 0.73937932884E+02 0.47753060831E+02 0.29475059492E+02
 0.18837603810E+02 0.13276513945E+02 0.10373110916E+02 0.89369558479E+01 0.82521587258E+01
 0.79363116854E+01 0.78409968994E+01 0.79363116854E+01 0.82521587258E+01 0.89369558479E+01
 0.10373110916E+02 0.13276513945E+02 0.18837603810E+02 0.29475059492E+02 0.47753060831E+02
 0.73937932884E+02 0.10466948001E+03 0.13401432158E+03 0.15654695322E+03 0.16983231164E+03
 0.21073194061E+03 0.20679985892E+03 0.19353237553E+03 0.16879633564E+03 0.13401432158E+03
 0.95493600594E+02 0.61278350462E+02 0.36608204427E+02 0.21960665981E+02 0.14489740304E+02
 0.10796663861E+02 0.90322166245E+01 0.82243262595E+01 0.78616602749E+01 0.77528284349E+01
 0.78616602749E+01 0.82243262595E+01 0.90322166245E+01 0.10796663861E+02 0.14489740304E+02
 0.21960665981E+02 0.36608204427E+02 0.61278350462E+02 0.95493600594E+02 0.13401432158E+03
 0.16879633564E+03 0.19353237553E+03 0.20679985892E+03 0.23114284905E+03 0.22836168797E+03
 0.21736954044E+03 0.19353237553E+03 0.15654695322E+03 0.11301119269E+03 0.72765297492E+02
 0.42898269589E+02 0.24787711184E+02 0.15536690637E+02 0.11146118158E+02 0.91020940896E+01
 0.81934967317E+01 0.77939308122E+01 0.76745135680E+01 0.77939308122E+01 0.81934967317E+01
 0.91020940896E+01 0.11146118158E+02 0.15536690637E+02 0.24787711184E+02 0.42898269589E+02
 0.72765297492E+02 0.11301119269E+03 0.15654695322E+03 0.19353237553E+03 0.21736954044E+03
 0.22836168797E+03 0.23797269179E+03 0.23648209118E+03 0.22836168797E+03 0.20679985892E+03
 0.16983231164E+03 0.12397346048E+03 0.80252359277E+02 0.47131649371E+02 0.26742196458E+02
 0.16256708274E+02 0.11375824309E+02 0.91441408548E+01 0.81699189723E+01 0.77470537575E+01
 0.76210002411E+01 0.77470537575E+01 0.81699189723E+01 0.91441408548E+01 0.11375824309E+02
 0.16256708274E+02 0.26742196458E+02 0.47131649371E+02 0.80252359277E+02 0.12397346048E+03
 0.16983231164E+03 0.20679985892E+03 0.22836168797E+03 0.23648209118E+03 0.23797269179E+03
 0.23648209118E+03 0.22836168797E+03 0.20679985892E+03 0.16983231164E+03 0.12397346048E+03
 0.80252359277E+02 0.47131649371E+02 0.26742196458E+02 0.16256708274E+02 0.11375824309E+02
 0.91441408548E+01 0.81699189723E+01 0.77470537575E+01 0.76210002411E+01 0.77470537575E+01
 0.81699189723E+01 0.91441408548E+01 0.11375824309E+02 0.16256708274E+02 0.26742196458E+02
 0.47131649371E+02 0.80252359277E+02 0.12397346048E+03 0.16983231164E+03 0.20679985892E+03
 0.22836168797E+03 0.23648209118E+03 0.23648209118E+03 0.23448996768E+03 0.22523042642E+03
 0.20269283253E+03 0.16553872783E+03 0.12034469275E+03 0.77737260379E+02 0.45695328770E+02
 0.26074894695E+02 0.16012192153E+02 0.11300497849E+02 0.91325534972E+01 0.81803317857E+01
 0.77651618888E+01 0.76412922222E+01 0.77651618888E+01 0.81803317857E+01 0.91325534972E+01
 0.11300497849E+02 0.16012192153E+02 0.26074894695E+02 0.45695328770E+02 0.77737260379E+02
 0.12034469275E+03 0.16553872783E+03 0.20269283253E+03 0.22523042642E+03 0.23448996768E+03
 0.22836168797E+03 0.22523042642E+03 0.21347763508E+03 0.18909625224E+03 0.15225017562E+03
 0.10953738513E+03 0.70428189682E+02 0.41597133847E+02 0.24200186656E+02 0.15326990493E+02
 0.11083734713E+02 0.90969499190E+01 0.82082821725E+01 0.78157549326E+01 0.76983397897E+01
 0.78157549326E+01 0.82082821725E+01 0.90969499190E+01 0.11083734713E+02 0.15326990493E+02
 0.24200186656E+02 0.41597133847E+02 0.70428189682E+02 0.10953738513E+03 0.15225017562E+03
 0.18909625224E+03 0.21347763508E+03 0.22523042642E+03 0.20679985892E+03 0.20269283253E+03
 0.18909625224E+03 0.16429030696E+03 0.12997545334E+03 0.92394470011E+02 0.59274581108E+02
 0.35534237938E+02 0.21496385408E+02 0.14327498212E+02 0.10752843944E+02 0.90360743751E+01
 0.82450512722E+01 0.78884347405E+01 0.77813278280E+01 0.78884347405E+01 0.82450512722E+01
 0.90360743751E+01 0.10752843944E+02 0.14327498212E+02 0.21496385408E+02 0.35534237938E+02
 0.59274581108E+02 0.92394470011E+02 0.12997545334E+03 0.16429030696E+03 0.18909625224E+03
 0.20269283253E+03 0.16983231164E+03 0.16553872783E+03 0.15225017562E+03 0.12997545334E+03
 0.10127012838E+03 0.71456963915E+02 0.46219387815E+02 0.28691824071E+02 0.18515704257E+02
 0.13163624134E+02 0.10350208077E+02 0.89508177321E+01 0.82793651609E+01 0.79684047607E+01
 0.78744842109E+01 0.79684047607E+01 0.82793651609E+01 0.89508177321E+01 0.10350208077E+02
 0.13163624134E+02 0.18515704257E+02 0.28691824071E+02 0.46219387815E+02 0.71456963915E+02
 0.10127012838E+03 0.12997545334E+03 0.15225017562E+03 0.16553872783E+03 0.12397346048E+03
 0.12034469275E+03 0.10953738513E+03 0.92394470011E+02 0.71456963915E+02 0.50694505405E+02
 0.33792223602E+02 0.22393634547E+02 0.15756247381E+02 0.11993889028E+02 0.99247293307E+01
 0.88455511009E+01 0.83006215742E+01 0.80397215816E+01 0.79602780245E+01 0.80397215816E+01
 0.83006215742E+01 0.88455511009E+01 0.99247293307E+01 0.11993889028E+02 0.15756247381E+02
 0.22393634547E+02 0.33792223602E+02 0.50694505405E+02 0.71456963915E+02 0.92394470011E+02
 0.10953738513E+03 0.12034469275E+03 0.80252359277E+02 0.77737260379E+02 0.70428189682E+02
 0.59274581108E+02 0.46219387815E+02 0.33792223602E+02 0.24018696968E+02 0.17493714433E+02
 0.13428452328E+02 0.10949082693E+02 0.95192655585E+01 0.87268512711E+01 0.83010754847E+01
 0.80886150084E+01 0.80230711141E+01 0.80886150084E+01 0.83010754847E+01 0.87268512711E+01
 0.95192655585E+01 0.10949082693E+02 0.13428452328E+02 0.17493714433E+02 0.24018696968E+02
 0.33792223602E+02 0.46219387815E+02 0.59274581108E+02 0.70428189682E+02 0.77737260379E+02
 0.47131649371E+02 0.45695328770E+02 0.41597133847E+02 0.35534237938E+02 0.28691824071E+02
 0.22393634547E+02 0.17493714433E+02 0.14004634813E+02 0.11622013422E+02 0.10096886784E+02
 0.91602826434E+01 0.86006241986E+01 0.82764804875E+01 0.81059667390E+01 0.80522250414E+01
 0.81059667390E+01 0.82764804875E+01 0.86006241986E+01 0.91602826434E+01 0.10096886784E+02
 0.11622013422E+02 0.14004634813E+02 0.17493714433E+02 0.22393634547E+02 0.28691824071E+02
 0.35534237938E+02 0.41597133847E+02 0.45695328770E+02 0.26742196458E+02 0.26074894695E+02
 0.24200186656E+02 0.21496385408E+02 0.18515704257E+02 0.15756247381E+02 0.13428452328E+02
 0.11622013422E+02 0.10326975138E+02 0.94434000759E+01 0.88553961339E+01 0.84700775478E+01
 0.82258690581E+01 0.80886150084E+01 0.80439800827E+01 0.80886150084E+01 0.82258690581E+01
 0.84700775478E+01 0.88553961339E+01 0.94434000759E+01 0.10326975138E+02 0.11622013422E+02
 0.13428452328E+02 0.15756247381E+02 0.18515704257E+02 0.21496385408E+02 0.24200186656E+02
 0.26074894695E+02 0.16256708274E+02 0.16012192153E+02 0.15326990493E+02 0.14327498212E+02
 0.13163624134E+02 0.11993889028E+02 0.10949082693E+02 0.10096886784E+02 0.94434000759E+01
 0.89575756856E+01 0.85991666083E+01 0.83363766664E+01 0.81516328595E+01 0.80397215816E+01
 0.80019533043E+01 0.80397215816E+01 0.81516328595E+01 0.83363766664E+01 0.85991666083E+01
 0.89575756856E+01 0.94434000759E+01 0.10096886784E+02 0.10949082693E+02 0.11993889028E+02
 0.13163624134E+02 0.14327498212E+02 0.15326990493E+02 0.16012192153E+02 0.11375824309E+02
 0.11300497849E+02 0.11083734713E+02 0.10752843944E+02 0.10350208077E+02 0.99247293307E+01
 0.95192655585E+01 0.91602826434E+01 0.88553961339E+01 0.85991666083E+01 0.83827028876E+01
 0.82017928673E+01 0.80603426364E+01 0.79684047607E+01 0.79363116854E+01 0.79684047607E+01
 0.80603426364E+01 0.82017928673E+01 0.83827028876E+01 0.85991666083E+01 0.88553961339E+01
 0.91602826434E+01 0.95192655585E+01 0.99247293307E+01 0.10350208077E+02 0.10752843944E+02
 0.11083734713E+02 0.11300497849E+02 0.91441408548E+01 0.91325534972E+01 0.90969499190E+01
 0.90360743751E+01 0.89508177321E+01 0.88455511009E+01 0.87268512711E+01 0.86006241986E+01
 0.84700775478E+01 0.83363766664E+01 0.82017928673E+01 0.80732338112E+01 0.79634584876E+01
 0.78884347405E+01 0.78616602749E+01 0.78884347405E+01 0.79634584876E+01 0.80732338112E+01
 0.82017928673E+01 0.83363766664E+01 0.84700775478E+01 0.86006241986E+01 0.87268512711E+01
 0.88455511009E+01 0.89508177321E+01 0.90360743751E+01 0.90969499190E+01 0.91325534972E+01
 0.81699189723E+01 0.81803317857E+01 0.82082821725E+01 0.82450512722E+01 0.82793651609E+01
 0.83006215742E+01 0.83010754847E+01 0.82764804875E+01 0.82258690581E+01 0.81516328595E+01
 0.80603426364E+01 0.79634584876E+01 0.78764719946E+01 0.78157549326E+01 0.77939308122E+01
 0.78157549326E+01 0.78764719946E+01 0.79634584876E+01 0.80603426364E+01 0.81516328595E+01
 0.82258690581E+01 0.82764804875E+01 0.83010754847E+01 0.83006215742E+01 0.82793651609E+01
 0.82450512722E+01 0.82082821725E+01 0.81803317857E+01 0.77470537575E+01 0.77651618888E+01
 0.78157549326E+01 0.78884347405E+01 0.79684047607E+01 0.80397215816E+01 0.80886150084E+01
 0.81059667390E+01 0.80886150084E+01 0.80397215816E+01 0.79684047607E+01 0.78884347405E+01
 0.78157549326E+01 0.77651618888E+01 0.77470537575E+01 0.77651618888E+01 0.78157549326E+01
 0.78884347405E+01 0.79684047607E+01 0.80397215816E+01 0.80886150084E+01 0.81059667390E+01
 0.80886150084E+01 0.80397215816E+01 0.79684047607E+01 0.78884347405E+01 0.78157549326E+01
 0.77651618888E+01 0.76210002411E+01 0.76412922222E+01 0.76983397897E+01 0.77813278280E+01
 0.78744842109E+01 0.79602780245E+01 0.80230711141E+01 0.80522250414E+01 0.80439800827E+01
 0.80019533043E+01 0.79363116854E+01 0.78616602749E+01 0.77939308122E+01 0.77470537575E+01
 0.77303452746E+01 0.77470537575E+01 0.77939308122E+01 0.78616602749E+01 0.79363116854E+01
 0.80019533043E+01 0.80439800827E+01 0.80522250414E+01 0.80230711141E+01 0.79602780245E+01
 0.78744842109E+01 0.77813278280E+01 0.76983397897E+01 0.76412922222E+01 0.77470537575E+01
 0.77651618888E+01 0.78157549326E+01 0.78884347405E+01 0.79684047607E+01 0.80397215816E+01
 0.80886150084E+01 0.81059667390E+01 0.80886150084E+01 0.80397215816E+01 0.79684047607E+01
 0.78884347405E+01 0.78157549326E+01 0.77651618888E+01 0.77470537575E+01 0.77651618888E+01
 0.78157549326E+01 0.78884347405E+01 0.79684047607E+01 0.80397215816E+01 0.80886150084E+01
 0.81059667390E+01 0.80886150084E+01 0.80397215816E+01 0.79684047607E+01 0.78884347405E+01
 0.78157549326E+01 0.77651618888E+01 0.81699189723E+01 0.81803317857E+01 0.82082821725E+01
 0.82450512722E+01 0.82793651609E+01 0.83006215742E+01 0.83010754847E+01 0.82764804875E+01
 0.82258690581E+01 0.81516328595E+01 0.80603426364E+01 0.79634584876E+01 0.78764719946E+01
 0.78157549326E+01 0.77939308122E+01 0.78157549326E+01 0.78764719946E+01 0.79634584876E+01
 0.80603426364E+01 0.81516328595E+01 0.82258690581E+01 0.82764804875E+01 0.83010754847E+01
 0.83006215742E+01 0.82793651609E+01 0.82450512722E+01 0.82082821725E+01 0.81803317857E+01
 0.91441408548E+01 0.91325534972E+01 0.90969499190E+01 0.90360743751E+01 0.89508177321E+01
 0.88455511009E+01 0.87268512711E+01 0.86006241986E+01 0.84700775478E+01 0.83363766664E+01
 0.82017928673E+01 0.80732338112E+01 0.79634584876E+01 0.78884347405E+01 0.78616602749E+01
 0.78884347405E+01 0.79634584876E+01 0.80732338112E+01 0.82017928673E+01 0.83363766664E+01
 0.84700775478E+01 0.86006241986E+01 0.87268512711E+01 0.88455511009E+01 0.89508177321E+01
 0.90360743751E+01 0.90969499190E+01 0.91325534972E+01 0.11375824309E+02 0.11300497849E+02
 0.11083734713E+02 0.10752843944E+02 0.10350208077E+02 0.99247293307E+01 0.95192655585E+01
 0.91602826434E+01 0.88553961339E+01 0.85991666083E+01 0.83827028876E+01 0.82017928673E+01
 0.80603426364E+01 0.79684047607E+01 0.79363116854E+01 0.79684047607E+01 0.80603426364E+01
 0.82017928673E+01 0.83827028876E+01 0.85991666083E+01 0.88553961339E+01 0.91602826434E+01
 0.95192655585E+01 0.99247293307E+01 0.10350208077E+02 0.10752843944E+02 0.11083734713E+02
 0.11300497849E+02 0.16256708274E+02 0.16012192153E+02 0.15326990493E+02 0.14327498212E+02
 0.13163624134E+02 0.11993889028E+02 0.10949082693E+02 0.10096886784E+02 0.94434000759E+01
 0.89575756856E+01 0.85991666083E+01 0.83363766663E+01 0.81516328595E+01 0.80397215816E+01
 0.80019533043E+01 0.80397215816E+01 0.81516328595E+01 0.83363766663E+01 0.85991666083E+01
 0.89575756856E+01 0.94434000759E+01 0.10096886784E+02 0.10949082693E+02 0.11993889028E+02
 0.13163624134E+02 0.14327498212E+02 0.15326990493E+02 0.16012192153E+02 0.26742196458E+02
 0.26074894695E+02 0.24200186656E+02 0.21496385408E+02 0.18515704257E+02 0.15756247381E+02
 0.13428452328E+02 0.11622013422E+02 0.10326975138E+02 0.94434000759E+01 0.88553961339E+01
 0.84700775478E+01 0.82258690581E+01 0.80886150084E+01 0.80439800827E+01 0.80886150084E+01
 0.82258690581E+01 0.84700775478E+01 0.88553961339E+01 0.94434000759E+01 0.10326975138E+02
 0.11622013422E+02 0.13428452328E+02 0.15756247381E+02 0.18515704257E+02 0.21496385408E+02
 0.24200186656E+02 0.26074894695E+02 0.47131649371E+02 0.45695328770E+02 0.41597133847E+02
 0.35534237938E+02 0.28691824071E+02 0.22393634547E+02 0.17493714433E+02 0.14004634813E+02
 0.11622013422E+02 0.10096886784E+02 0.91602826434E+01 0.86006241986E+01 0.82764804875E+01
 0.81059667390E+01 0.80522250414E+01 0.81059667390E+01 0.82764804875E+01 0.86006241986E+01
 0.91602826434E+01 0.10096886784E+02 0.11622013422E+02 0.14004634813E+02 0.17493714433E+02
 0.22393634547E+02 0.28691824071E+02 0.35534237938E+02 0.41597133847E+02 0.45695328770E+02
 0.80252359277E+02 0.77737260379E+02 0.70428189682E+02 0.59274581108E+02 0.46219387815E+02
 0.33792223602E+02 0.24018696968E+02 0.17493714433E+02 0.13428452328E+02 0.10949082693E+02
 0.95192655585E+01 0.87268512711E+01 0.83010754847E+01 0.80886150084E+01 0.80230711141E+01
 0.80886150084E+01 0.83010754847E+01 0.87268512711E+01 0.95192655585E+01 0.10949082693E+02
 0.13428452328E+02 0.17493714433E+02 0.24018696968E+02 0.33792223602E+02 0.46219387815E+02
 0.59274581108E+02 0.70428189682E+02 0.77737260379E+02 0.12397346048E+03 0.12034469275E+03
 0.10953738513E+03 0.92394470011E+02 0.71456963915E+02 0.50694505405E+02 0.33792223602E+02
 0.22393634547E+02 0.15756247381E+02 0.11993889028E+02 0.99247293307E+01 0.88455511009E+01
 0.83006215742E+01 0.80397215816E+01 0.79602780245E+01 0.80397215816E+01 0.83006215742E+01
 0.88455511009E+01 0.99247293307E+01 0.11993889028E+02 0.15756247381E+02 0.22393634547E+02
 0.33792223602E+02 0.50694505405E+02 0.71456963915E+02 0.92394470011E+02 0.10953738513E+03
 0.12034469275E+03 0.16983231164E+03 0.16553872783E+03 0.15225017562E+03 0.12997545334E+03
 0.10127012838E+03 0.71456963915E+02 0.46219387815E+02 0.28691824071E+02 0.18515704257E+02
 0.13163624134E+02 0.10350208077E+02 0.89508177321E+01 0.82793651609E+01 0.79684047607E+01
 0.78744842109E+01 0.79684047607E+01 0.82793651609E+01 0.89508177321E+01 0.10350208077E+02
 0.13163624134E+02 0.18515704257E+02 0.28691824071E+02 0.46219387815E+02 0.71456963915E+02
 0.10127012838E+03 0.12997545334E+03 0.15225017562E+03 0.16553872783E+03 0.20679985892E+03
 0.20269283253E+03 0.18909625224E+03 0.16429030696E+03 0.12997545334E+03 0.92394470011E+02
 0.59274581108E+02 0.35534237938E+02 0.21496385408E+02 0.14327498212E+02 0.10752843944E+02
 0.90360743751E+01 0.82450512722E+01 0.78884347405E+01 0.77813278280E+01 0.78884347405E+01
 0.82450512722E+01 0.90360743751E+01 0.10752843944E+02 0.14327498212E+02 0.21496385408E+02
 0.35534237938E+02 0.59274581108E+02 0.92394470011E+02 0.12997545334E+03 0.16429030696E+03
 0.18909625224E+03 0.20269283253E+03 0.22836168797E+03 0.22523042642E+03 0.21347763508E+03
 0.18909625224E+03 0.15225017562E+03 0.10953738513E+03 0.70428189682E+02 0.41597133847E+02
 0.24200186656E+02 0.15326990493E+02 0.11083734713E+02 0.90969499190E+01 0.82082821725E+01
 0.78157549326E+01 0.76983397897E+01 0.78157549326E+01 0.82082821725E+01 0.90969499190E+01
 0.11083734713E+02 0.15326990493E+02 0.24200186656E+02 0.41597133847E+02 0.70428189682E+02
 0.10953738513E+03 0.15225017562E+03 0.18909625224E+03 0.21347763508E+03 0.22523042642E+03
 0.23648209118E+03 0.23448996768E+03 0.22523042642E+03 0.20269283253E+03 0.16553872783E+03
 0.12034469275E+03 0.77737260379E+02 0.45695328770E+02 0.26074894695E+02 0.16012192153E+02
 0.11300497849E+02 0.91325534972E+01 0.81803317857E+01 0.77651618888E+01 0.76412922222E+01
 0.77651618888E+01 0.81803317857E+01 0.91325534972E+01 0.11300497849E+02 0.16012192153E+02
 0.26074894695E+02 0.45695328770E+02 0.77737260379E+02 0.12034469275E+03 0.16553872783E+03
 0.20269283253E+03 0.22523042642E+03 0.23448996768E+03 0.23114284905E+03 0.22836168797E+03
 0.21736954044E+03 0.19353237553E+03 0.15654695322E+03 0.11301119269E+03 0.72765297492E+02
 0.42898269589E+02 0.24787711184E+02 0.15536690637E+02 0.11146118158E+02 0.91020940896E+01
 0.81934967317E+01 0.77939308122E+01 0.76745135680E+01 0.77939308122E+01 0.81934967317E+01
 0.91020940896E+01 0.11146118158E+02 0.15536690637E+02 0.24787711184E+02 0.42898269589E+02
 0.72765297492E+02 0.11301119269E+03 0.15654695322E+03 0.19353237553E+03 0.21736954044E+03
 0.22836168797E+03 0.22836168797E+03 0.22523042642E+03 0.21347763508E+03 0.18909625224E+03
 0.15225017562E+03 0.10953738513E+03 0.70428189682E+02 0.41597133847E+02 0.24200186656E+02
 0.15326990493E+02 0.11083734713E+02 0.90969499190E+01 0.82082821725E+01 0.78157549326E+01
 0.76983397897E+01 0.78157549326E+01 0.82082821725E+01 0.90969499190E+01 0.11083734713E+02
 0.15326990493E+02 0.24200186656E+02 0.41597133847E+02 0.70428189682E+02 0.10953738513E+03
 0.15225017562E+03 0.18909625224E+03 0.21347763508E+03 0.22523042642E+03 0.21736954044E+03
 0.21347763508E+03 0.20017116486E+03 0.17499888273E+03 0.13922449935E+03 0.99319785339E+02