   2   2   0   0
  0.1591696E+02  0.3169300E-09  0.3169300E-09  0.3169300E-09  0.5000000E-15
  1.000000000000000E-004
  CAR 
 Mo                                      
     67.38018101    -54.48815294  301     12.29438144      1.00000000
    -54.488  0.0000E+00  0.0000E+00
    -54.082  0.0000E+00  0.0000E+00
    -53.676  0.0000E+00  0.0000E+00
    -53.269  0.0000E+00  0.0000E+00
    -52.863  0.0000E+00  0.0000E+00
    -52.457  0.0000E+00  0.0000E+00
    -52.051  0.0000E+00  0.0000E+00
    -51.645  0.0000E+00  0.0000E+00
    -51.238  0.0000E+00  0.0000E+00
    -50.832  0.0000E+00  0.0000E+00
    -50.426  0.0000E+00  0.0000E+00
    -50.020  0.0000E+00  0.0000E+00
    -49.613  0.0000E+00  0.0000E+00
    -49.207  0.1415E-14  0.5748E-15
    -48.801  0.1391E+01  0.5652E+00
    -48.395  0.8170E+01  0.4000E+01
    -47.989  0.0000E+00  0.4000E+01
    -47.582  0.0000E+00  0.4000E+01
    -47.176  0.0000E+00  0.4000E+01
    -46.770  0.0000E+00  0.4000E+01
    -46.364  0.0000E+00  0.4000E+01
    -45.957  0.0000E+00  0.4000E+01
    -45.551  0.0000E+00  0.4000E+01
    -45.145  0.0000E+00  0.4000E+01
    -44.739  0.0000E+00  0.4000E+01
    -44.332  0.0000E+00  0.4000E+01
    -43.926  0.0000E+00  0.4000E+01
    -43.520  0.0000E+00  0.4000E+01
    -43.114  0.0000E+00  0.4000E+01
    -42.708  0.0000E+00  0.4000E+01
    -42.301  0.0000E+00  0.4000E+01
    -41.895  0.0000E+00  0.4000E+01
    -41.489  0.0000E+00  0.4000E+01
    -41.083  0.0000E+00  0.4000E+01
    -40.676  0.0000E+00  0.4000E+01
    -40.270  0.0000E+00  0.4000E+01
    -39.864  0.0000E+00  0.4000E+01
    -39.458  0.0000E+00  0.4000E+01
    -39.051  0.0000E+00  0.4000E+01
    -38.645  0.0000E+00  0.4000E+01
    -38.239  0.0000E+00  0.4000E+01
    -37.833  0.0000E+00  0.4000E+01
    -37.427  0.0000E+00  0.4000E+01
    -37.020  0.0000E+00  0.4000E+01
    -36.614  0.0000E+00  0.4000E+01
    -36.208  0.0000E+00  0.4000E+01
    -35.802  0.0000E+00  0.4000E+01
    -35.395  0.0000E+00  0.4000E+01
    -34.989  0.0000E+00  0.4000E+01
    -34.583  0.0000E+00  0.4000E+01
    -34.177  0.0000E+00  0.4000E+01
    -33.771  0.0000E+00  0.4000E+01
    -33.364  0.0000E+00  0.4000E+01
    -32.958  0.0000E+00  0.4000E+01
    -32.552  0.0000E+00  0.4000E+01
    -32.146  0.0000E+00  0.4000E+01
    -31.739  0.0000E+00  0.4000E+01
    -31.333  0.0000E+00  0.4000E+01
    -30.927  0.0000E+00  0.4000E+01
    -30.521  0.0000E+00  0.4000E+01
    -30.114  0.0000E+00  0.4000E+01
    -29.708  0.0000E+00  0.4000E+01
    -29.302  0.0000E+00  0.4000E+01
    -28.896  0.0000E+00  0.4000E+01
    -28.490  0.0000E+00  0.4000E+01
    -28.083  0.0000E+00  0.4000E+01
    -27.677  0.0000E+00  0.4000E+01
    -27.271  0.0000E+00  0.4000E+01
    -26.865  0.0000E+00  0.4000E+01
    -26.458  0.0000E+00  0.4000E+01
    -26.052  0.0000E+00  0.4000E+01
    -25.646  0.0000E+00  0.4000E+01
    -25.240  0.0000E+00  0.4000E+01
    -24.834  0.0000E+00  0.4000E+01
    -24.427  0.0000E+00  0.4000E+01
    -24.021  0.0000E+00  0.4000E+01
    -23.615  0.2297E-01  0.4009E+01
    -23.209  0.6997E+01  0.6852E+01
    -22.802  0.6574E+01  0.9732E+01
    -22.396  0.1073E+02  0.1429E+02
    -21.990  0.3201E+01  0.1600E+02
    -21.584  0.0000E+00  0.1600E+02
    -21.177  0.0000E+00  0.1600E+02
    -20.771  0.0000E+00  0.1600E+02
    -20.365  0.0000E+00  0.1600E+02
    -19.959  0.0000E+00  0.1600E+02
    -19.553  0.0000E+00  0.1600E+02
    -19.146  0.0000E+00  0.1600E+02
    -18.740  0.0000E+00  0.1600E+02
    -18.334  0.0000E+00  0.1600E+02
    -17.928  0.0000E+00  0.1600E+02
    -17.521  0.0000E+00  0.1600E+02
    -17.115  0.0000E+00  0.1600E+02
    -16.709  0.0000E+00  0.1600E+02
    -16.303  0.0000E+00  0.1600E+02
    -15.897  0.0000E+00  0.1600E+02
    -15.490  0.0000E+00  0.1600E+02
    -15.084  0.0000E+00  0.1600E+02
    -14.678  0.0000E+00  0.1600E+02
    -14.272  0.0000E+00  0.1600E+02
    -13.865  0.0000E+00  0.1600E+02
    -13.459  0.0000E+00  0.1600E+02
    -13.053  0.0000E+00  0.1600E+02
    -12.647  0.0000E+00  0.1600E+02
    -12.240  0.0000E+00  0.1600E+02
    -11.834  0.0000E+00  0.1600E+02
    -11.428  0.0000E+00  0.1600E+02
    -11.022  0.0000E+00  0.1600E+02
    -10.616  0.0000E+00  0.1600E+02
    -10.209  0.0000E+00  0.1600E+02
     -9.803  0.0000E+00  0.1600E+02
     -9.397  0.0000E+00  0.1600E+02
     -8.991  0.0000E+00  0.1600E+02
     -8.584  0.0000E+00  0.1600E+02
     -8.178  0.0000E+00  0.1600E+02
     -7.772  0.0000E+00  0.1600E+02
     -7.366  0.0000E+00  0.1600E+02
     -6.960  0.0000E+00  0.1600E+02
     -6.553  0.0000E+00  0.1600E+02
     -6.147  0.0000E+00  0.1600E+02
     -5.741  0.0000E+00  0.1600E+02
     -5.335  0.0000E+00  0.1600E+02
     -4.928  0.0000E+00  0.1600E+02
     -4.522  0.0000E+00  0.1600E+02
     -4.116  0.0000E+00  0.1600E+02
     -3.710  0.0000E+00  0.1600E+02
     -3.303  0.0000E+00  0.1600E+02
     -2.897  0.0000E+00  0.1600E+02
     -2.491  0.0000E+00  0.1600E+02
     -2.085  0.0000E+00  0.1600E+02
     -1.679  0.0000E+00  0.1600E+02
     -1.272  0.0000E+00  0.1600E+02
     -0.866  0.0000E+00  0.1600E+02
     -0.460  0.0000E+00  0.1600E+02
     -0.054  0.0000E+00  0.1600E+02
      0.353  0.0000E+00  0.1600E+02
      0.759  0.0000E+00  0.1600E+02
      1.165  0.0000E+00  0.1600E+02
      1.571  0.0000E+00  0.1600E+02
      1.978  0.0000E+00  0.1600E+02
      2.384  0.0000E+00  0.1600E+02
      2.790  0.0000E+00  0.1600E+02
      3.196  0.0000E+00  0.1600E+02
      3.602  0.0000E+00  0.1600E+02
      4.009  0.0000E+00  0.1600E+02
      4.415  0.0000E+00  0.1600E+02
      4.821  0.0000E+00  0.1600E+02
      5.227  0.9591E-02  0.1600E+02
      5.634  0.5770E-01  0.1603E+02
      6.040  0.1270E+00  0.1608E+02
      6.446  0.1200E+00  0.1613E+02
      6.852  0.3376E+00  0.1627E+02
      7.258  0.3262E+00  0.1645E+02
      7.665  0.2163E+01  0.1733E+02
      8.071  0.2105E+01  0.1823E+02
      8.477  0.3386E+01  0.1963E+02
      8.883  0.1490E+01  0.2029E+02
      9.290  0.3031E+01  0.2155E+02
      9.696  0.3438E+01  0.2299E+02
     10.102  0.1663E+01  0.2373E+02
     10.508  0.2546E+01  0.2477E+02
     10.915  0.3598E+01  0.2626E+02
     11.321  0.1646E+01  0.2697E+02
     11.727  0.1120E+01  0.2742E+02
     12.133  0.5238E+00  0.2771E+02
     12.539  0.1807E+01  0.2846E+02
     12.946  0.1002E+01  0.2890E+02
     13.352  0.3224E+01  0.3021E+02
     13.758  0.1532E+01  0.3098E+02
     14.164  0.3769E+01  0.3257E+02
     14.571  0.3352E+01  0.3397E+02
     14.977  0.3332E+01  0.3538E+02
     15.383  0.1036E+01  0.3582E+02
     15.789  0.2333E+01  0.3682E+02
     16.195  0.5366E+00  0.3709E+02
     16.602  0.8688E+00  0.3745E+02
     17.008  0.9092E+00  0.3784E+02
     17.414  0.3462E+00  0.3799E+02
     17.820  0.5696E+00  0.3822E+02
     18.227  0.4444E+00  0.3845E+02
     18.633  0.4206E+00  0.3862E+02
     19.039  0.6912E+00  0.3890E+02
     19.445  0.3043E+00  0.3903E+02
     19.852  0.6749E+00  0.3930E+02
     20.258  0.2317E+00  0.3940E+02
     20.664  0.3099E+00  0.3953E+02
     21.070  0.7684E+00  0.3984E+02
     21.476  0.2885E-01  0.3986E+02
     21.883  0.1416E+00  0.3992E+02
     22.289  0.4501E+00  0.4010E+02
     22.695  0.1220E+01  0.4060E+02
     23.101  0.6419E+00  0.4086E+02
     23.508  0.8016E+00  0.4123E+02
     23.914  0.1486E+01  0.4183E+02
     24.320  0.1170E+01  0.4231E+02
     24.726  0.6956E+00  0.4264E+02
     25.132  0.1836E+01  0.4339E+02
     25.539  0.1746E+01  0.4424E+02
     25.945  0.7896E+00  0.4457E+02
     26.351  0.2064E+01  0.4547E+02
     26.757  0.3834E+00  0.4562E+02
     27.164  0.1342E+01  0.4617E+02
     27.570  0.2176E+01  0.4706E+02
     27.976  0.1397E+01  0.4764E+02
     28.382  0.9788E+00  0.4807E+02
     28.789  0.1520E+01  0.4869E+02
     29.195  0.1825E+01  0.4944E+02
     29.601  0.9983E+00  0.4986E+02
     30.007  0.1292E+01  0.5039E+02
     30.413  0.1498E+01  0.5100E+02
     30.820  0.5313E+00  0.5122E+02
     31.226  0.7029E+00  0.5152E+02
     31.632  0.2008E+01  0.5234E+02
     32.038  0.1404E+01  0.5296E+02
     32.445  0.1825E+01  0.5371E+02
     32.851  0.1185E+01  0.5421E+02
     33.257  0.5303E+00  0.5443E+02
     33.663  0.7209E+00  0.5473E+02
     34.070  0.1499E+01  0.5534E+02
     34.476  0.1678E+01  0.5602E+02
     34.882  0.4963E+00  0.5629E+02
     35.288  0.3268E+00  0.5642E+02
     35.694  0.1826E+00  0.5650E+02
     36.101  0.2380E+01  0.5747E+02
     36.507  0.2669E+01  0.5862E+02
     36.913  0.9303E+00  0.5900E+02
     37.319  0.1255E+01  0.5951E+02
     37.726  0.1499E+01  0.6012E+02
     38.132  0.8102E+00  0.6048E+02
     38.538  0.1003E+01  0.6089E+02
     38.944  0.1159E+01  0.6141E+02
     39.350  0.2163E+01  0.6229E+02
     39.757  0.2577E+01  0.6334E+02
     40.163  0.7569E+00  0.6369E+02
     40.569  0.9477E+00  0.6413E+02
     40.975  0.1983E+01  0.6495E+02
     41.382  0.1412E+01  0.6558E+02
     41.788  0.1634E+01  0.6625E+02
     42.194  0.1636E+01  0.6693E+02
     42.600  0.2262E+01  0.6790E+02
     43.007  0.1178E+01  0.6848E+02
     43.413  0.2888E+00  0.6860E+02
     43.819  0.2798E+01  0.6974E+02
     44.225  0.1175E+01  0.7023E+02
     44.631  0.1316E+01  0.7085E+02
     45.038  0.1856E+01  0.7166E+02
     45.444  0.1158E+01  0.7216E+02
     45.850  0.1141E+01  0.7264E+02
     46.256  0.2222E+01  0.7354E+02
     46.663  0.7325E+00  0.7388E+02
     47.069  0.1502E+01  0.7449E+02
     47.475  0.1041E+01  0.7495E+02
     47.881  0.3389E+01  0.7633E+02
     48.287  0.1991E+01  0.7719E+02
     48.694  0.1435E+01  0.7785E+02
     49.100  0.1783E+01  0.7859E+02
     49.506  0.1030E+01  0.7904E+02
     49.912  0.1144E+01  0.7953E+02
     50.319  0.1178E+01  0.8006E+02
     50.725  0.2576E+01  0.8111E+02
     51.131  0.1696E+01  0.8182E+02
     51.537  0.1543E+01  0.8248E+02
     51.944  0.1449E+01  0.8312E+02
     52.350  0.2541E+01  0.8419E+02
     52.756  0.1819E+01  0.8495E+02
     53.162  0.2094E+01  0.8584E+02
     53.568  0.9623E+00  0.8626E+02
     53.975  0.1173E+01  0.8674E+02
     54.381  0.1767E+01  0.8750E+02
     54.787  0.1397E+01  0.8808E+02
     55.193  0.1086E+01  0.8857E+02
     55.600  0.1649E+01  0.8925E+02
     56.006  0.1471E+01  0.8985E+02
     56.412  0.7301E+00  0.9015E+02
     56.818  0.1008E+01  0.9056E+02
     57.224  0.1573E+01  0.9120E+02
     57.631  0.1633E+01  0.9191E+02
     58.037  0.2574E+01  0.9298E+02
     58.443  0.2338E+01  0.9398E+02
     58.849  0.1390E+01  0.9464E+02
     59.256  0.9958E+00  0.9505E+02
     59.662  0.1997E+00  0.9513E+02
     60.068  0.9124E+00  0.9551E+02
     60.474  0.2823E+00  0.9565E+02
     60.881  0.2322E+00  0.9574E+02
     61.287  0.4019E+00  0.9591E+02
     61.693  0.5829E-01  0.9593E+02
     62.099  0.1724E+00  0.9600E+02
     62.505  0.0000E+00  0.9600E+02
     62.912  0.0000E+00  0.9600E+02
     63.318  0.0000E+00  0.9600E+02
     63.724  0.0000E+00  0.9600E+02
     64.130  0.0000E+00  0.9600E+02
     64.537  0.0000E+00  0.9600E+02
     64.943  0.0000E+00  0.9600E+02
     65.349  0.0000E+00  0.9600E+02
     65.755  0.0000E+00  0.9600E+02
     66.161  0.0000E+00  0.9600E+02
     66.568  0.0000E+00  0.9600E+02
     66.974  0.0000E+00  0.9600E+02
     67.380  0.0000E+00  0.9600E+02
