       N       E                     dE             d eps       ncg     rms          rms(c)
DAV:   1    -0.218453349984E+02   -0.21845E+02   -0.66696E-05  1920   0.335E-02    0.237E-02
DAV:   2    -0.218453336782E+02    0.13201E-05   -0.69447E-06  1824   0.950E-03
   1 F= -.21845334E+02 E0= -.21844165E+02  d E =-.233798E-02
       N       E                     dE             ncg
DAV:   1    -0.116127690611E+05   -0.26244E+05     3552
DAV:   2    -0.125689399291E+05   -0.95617E+03     4896
DAV:   3    -0.125693498399E+05   -0.40991E+00     3840
DAV:   4    -0.125693499683E+05   -0.12848E-03     6192
DAV:   5    -0.125693499683E+05   -0.11096E-09     3696
       N       E                     dE             ncg
DAV:   1    -0.117526929501E+05   -0.48465E+05     4224
DAV:   2    -0.123893547790E+05   -0.63666E+03     3792
DAV:   3    -0.123899947424E+05   -0.63996E+00     5856
DAV:   4    -0.123899948418E+05   -0.99352E-04     4176
       N       E                     dE             ncg
DAV:   1    -0.113836389845E+05   -0.37380E+05     3600
DAV:   2    -0.123265084303E+05   -0.94287E+03     3984
DAV:   3    -0.123275644146E+05   -0.10560E+01     5376
DAV:   4    -0.123275645914E+05   -0.17685E-03     4560
DAV:   5    -0.123275645914E+05   -0.62573E-09     5040
       N       E                     dE             ncg
DAV:   1    -0.114327641413E+05   -0.21911E+05     3408
DAV:   2    -0.124855377736E+05   -0.10528E+04     4320
DAV:   3    -0.124865435358E+05   -0.10058E+01     4992
DAV:   4    -0.124865436169E+05   -0.81071E-04     5088
       N       E                     dE             ncg
DAV:   1     0.429956534163E+04   -0.23699E+04      672
DAV:   2     0.407397411420E+04   -0.22559E+03     1008
DAV:   3     0.407385900453E+04   -0.11511E+00      768
DAV:   4     0.407385897727E+04   -0.27267E-04     1248
