 DBCSR| CPU Multiplication driver                                           BLAS (U)
 DBCSR| Multrec recursion limit                                              512 (U)
 DBCSR| Multiplication stack size                                           1000 (D)
 DBCSR| Maximum elements for images                                    UNLIMITED (U)
 DBCSR| Multiplicative factor virtual images                                   1 (U)
 DBCSR| Use multiplication densification                                       T (D)
 DBCSR| Multiplication size stacks                                             3 (U)
 DBCSR| Use memory pool for CPU allocation                                     F (U)
 DBCSR| Number of 3D layers                                               SINGLE (U)
 DBCSR| Use MPI memory allocation                                              F (U)
 DBCSR| Use RMA algorithm                                                      F (U)
 DBCSR| Use Communication thread                                               T (U)
 DBCSR| Communication thread load                                             45 (D)
 DBCSR| MPI: My process id                                                     0
 DBCSR| MPI: Number of processes                                               8
 DBCSR| OMP: Current number of threads                                        12
 DBCSR| OMP: Max number of threads                                            12
 DBCSR| Split modifier for TAS multiplication algorithm                  1.0E+00 (U)


  **** **** ******  **  PROGRAM STARTED AT               2025-08-03 21:23:23.224
 ***** ** ***  *** **   PROGRAM STARTED ON                          i04r10c03s06
 **    ****   ******    PROGRAM STARTED BY                               di38fab
 ***** **    ** ** **   PROGRAM PROCESS ID                               1337683
  **** **  *******  **  PROGRAM STARTED IN /hppfs/scratch/04/di38fab/09_GTH/Delt
                                           a_Set/S/TZVP-MOLOPT-PBE-GTH/8x8x8

 CP2K| version string:                 CP2K version 2025.1 (Development Version)
 CP2K| source code revision number:                                  git:3130539
 CP2K| cp2kflags: omp libint fftw3 libxc parallel scalapack max_contr=4         
 CP2K| is freely available from                            https://www.cp2k.org/
 CP2K| Program compiled at                         Tue Jun  3 16:14:32 CEST 2025
 CP2K| Program compiled on                                               login01
 CP2K| Program compiled for                                        Supermuc-foss
 CP2K| Data directory path                  /hppfs/work/pn36zo/di38fab/cp2k/data
 CP2K| Input file name                                                    GW.inp

 GLOBAL| Force Environment number                                              1
 GLOBAL| Basis set file name            /hppfs/scratch/04/di38fab/09_GTH/BASIS_A
 GLOBAL| Potential file name            /hppfs/work/pn36zo/di38fab/cp2k/data/GTH
 GLOBAL| MM Potential file name                                     MM_POTENTIAL
 GLOBAL| Coordinate file name                                              S.cif
 GLOBAL| Method name                                                        CP2K
 GLOBAL| Project name                                                       WSe2
 GLOBAL| Run type                                                         ENERGY
 GLOBAL| FFT library                                                       FFTW3
 GLOBAL| Diagonalization library                                       ScaLAPACK
 GLOBAL| Cholesky decomposition library                                ScaLAPACK
 GLOBAL| DGEMM library                                                      BLAS
 GLOBAL| Orthonormality check for eigenvectors                          DISABLED
 GLOBAL| Matrix multiplication library                                 ScaLAPACK
 GLOBAL| All-to-all communication in single precision                          F
 GLOBAL| FFTs using library dependent lengths                                  F
 GLOBAL| Grid backend                                                       AUTO
 GLOBAL| Global print level                                               MEDIUM
 GLOBAL| MPI I/O enabled                                                       T
 GLOBAL| Total number of message passing processes                             8
 GLOBAL| Number of threads for this process                                   12
 GLOBAL| This output is from process                                           0
 GLOBAL| OpenMP stack size per thread (OMP_STACKSIZE)                    default
 GLOBAL| CPU model name             Intel(R) Xeon(R) Platinum 8174 CPU @ 3.10GHz

 MEMORY| system memory details [Kb]
 MEMORY|                        rank 0           min           max       average
 MEMORY| MemTotal             98436660      98436660      98436664      98436662
 MEMORY| MemFree              84678112      84678112      84716632      84697372
 MEMORY| Buffers                     0             0             0             0
 MEMORY| Cached                2346976       2346976       2372316       2359646
 MEMORY| Slab                  1264216       1264216       1269564       1266890
 MEMORY| SReclaimable           277688        277688        281876        279782
 MEMORY| MemLikelyFree        87302776      87302776      87370824      87336800


 *** Fundamental physical constants (SI units) ***

 *** Literature: B. J. Mohr and B. N. Taylor,
 ***             CODATA recommended values of the fundamental physical
 ***             constants: 2006, Web Version 5.1
 ***             http://physics.nist.gov/constants

 Speed of light in vacuum [m/s]                             2.99792458000000E+08
 Magnetic constant or permeability of vacuum [N/A**2]       1.25663706143592E-06
 Electric constant or permittivity of vacuum [F/m]          8.85418781762039E-12
 Planck constant (h) [J*s]                                  6.62606896000000E-34
 Planck constant (h-bar) [J*s]                              1.05457162825177E-34
 Elementary charge [C]                                      1.60217648700000E-19
 Electron mass [kg]                                         9.10938215000000E-31
 Electron g factor [ ]                                     -2.00231930436220E+00
 Proton mass [kg]                                           1.67262163700000E-27
 Fine-structure constant                                    7.29735253760000E-03
 Rydberg constant [1/m]                                     1.09737315685270E+07
 Avogadro constant [1/mol]                                  6.02214179000000E+23
 Boltzmann constant [J/K]                                   1.38065040000000E-23
 Atomic mass unit [kg]                                      1.66053878200000E-27
 Bohr radius [m]                                            5.29177208590000E-11

 *** Conversion factors ***

 [u] -> [a.u.]                                              1.82288848426455E+03
 [Angstrom] -> [Bohr] = [a.u.]                              1.88972613288564E+00
 [a.u.] = [Bohr] -> [Angstrom]                              5.29177208590000E-01
 [a.u.] -> [s]                                              2.41888432650478E-17
 [a.u.] -> [fs]                                             2.41888432650478E-02
 [a.u.] -> [J]                                              4.35974393937059E-18
 [a.u.] -> [N]                                              8.23872205491840E-08
 [a.u.] -> [K]                                              3.15774647902944E+05
 [a.u.] -> [kJ/mol]                                         2.62549961709828E+03
 [a.u.] -> [kcal/mol]                                       6.27509468713739E+02
 [a.u.] -> [Pa]                                             2.94210107994716E+13
 [a.u.] -> [bar]                                            2.94210107994716E+08
 [a.u.] -> [atm]                                            2.90362800883016E+08
 [a.u.] -> [eV]                                             2.72113838565563E+01
 [a.u.] -> [Hz]                                             6.57968392072181E+15
 [a.u.] -> [1/cm] (wave numbers)                            2.19474631370540E+05
 [a.u./Bohr**2] -> [1/cm]                                   5.14048714338585E+03
 

 CELL_TOP| Volume [angstrom^3]:                                        17.187145
 CELL_TOP| Vector a [angstrom     2.582     0.000     0.000   |a| =     2.581530
 CELL_TOP| Vector b [angstrom    -0.066     2.581     0.000   |b| =     2.581530
 CELL_TOP| Vector c [angstrom    -0.066    -0.067     2.580   |c| =     2.581530
 CELL_TOP| Angle (b,c), alpha [degree]:                                91.455410
 CELL_TOP| Angle (a,c), beta  [degree]:                                91.455410
 CELL_TOP| Angle (a,b), gamma [degree]:                                91.455410
 CELL_TOP| Numerically orthorhombic:                                          NO
 CELL_TOP| Periodicity                                                       XYZ

 CELL_CIF| Volume [angstrom^3]:                                        17.187145
 CELL_CIF| Vector a [angstrom     2.582     0.000     0.000   |a| =     2.581530
 CELL_CIF| Vector b [angstrom    -0.066     2.581     0.000   |b| =     2.581530
 CELL_CIF| Vector c [angstrom    -0.066    -0.067     2.580   |c| =     2.581530
 CELL_CIF| Angle (b,c), alpha [degree]:                                91.455410
 CELL_CIF| Angle (a,c), beta  [degree]:                                91.455410
 CELL_CIF| Angle (a,b), gamma [degree]:                                91.455410
 CELL_CIF| Numerically orthorhombic:                                          NO
 CELL_CIF| Periodicity                                                       XYZ

 GENERATE|  Preliminary Number of Bonds generated:                             0
 GENERATE|  Achieved consistency in connectivity generation.

 CELL| Volume [angstrom^3]:                                            17.187145
 CELL| Vector a [angstrom]:       2.582     0.000     0.000   |a| =     2.581530
 CELL| Vector b [angstrom]:      -0.066     2.581     0.000   |b| =     2.581530
 CELL| Vector c [angstrom]:      -0.066    -0.067     2.580   |c| =     2.581530
 CELL| Angle (b,c), alpha [degree]:                                    91.455410
 CELL| Angle (a,c), beta  [degree]:                                    91.455410
 CELL| Angle (a,b), gamma [degree]:                                    91.455410
 CELL| Numerically orthorhombic:                                              NO
 CELL| Periodicity                                                           XYZ

 CELL_REF| Volume [angstrom^3]:                                        17.187145
 CELL_REF| Vector a [angstrom     2.582     0.000     0.000   |a| =     2.581530
 CELL_REF| Vector b [angstrom    -0.066     2.581     0.000   |b| =     2.581530
 CELL_REF| Vector c [angstrom    -0.066    -0.067     2.580   |c| =     2.581530
 CELL_REF| Angle (b,c), alpha [degree]:                                91.455410
 CELL_REF| Angle (a,c), beta  [degree]:                                91.455410
 CELL_REF| Angle (a,b), gamma [degree]:                                91.455410
 CELL_REF| Numerically orthorhombic:                                          NO
 CELL_REF| Periodicity                                                       XYZ

 *** WARNING in cryssym.F:180 :: Symmetry library SPGLIB not available ***


 *******************************************************************************
                                    Kpoints
 *******************************************************************************
 BRILLOUIN| K-point scheme                                        Monkhorst-Pack
 BRILLOUIN| K-Point grid                                             8    8    8
 BRILLOUIN| Accuracy in Symmetry determination                      0.100000E-05
 BRILLOUIN| K-Point point group symmetrization                               OFF
 BRILLOUIN| Wavefunction type                                            COMPLEX
 BRILLOUIN| List of Kpoints [2 Pi/Bohr]                                      256
 BRILLOUIN| Number           Weight            X              Y              Z
 BRILLOUIN|     1           0.00391       -0.43750       -0.43750       -0.43750
 BRILLOUIN|     2           0.00391       -0.43750       -0.43750       -0.31250
 BRILLOUIN|     3           0.00391       -0.43750       -0.43750       -0.18750
 BRILLOUIN|     4           0.00391       -0.43750       -0.43750       -0.06250
 BRILLOUIN|     5           0.00391       -0.43750       -0.43750        0.06250
 BRILLOUIN|     6           0.00391       -0.43750       -0.43750        0.18750
 BRILLOUIN|     7           0.00391       -0.43750       -0.43750        0.31250
 BRILLOUIN|     8           0.00391       -0.43750       -0.43750        0.43750
 BRILLOUIN|     9           0.00391       -0.43750       -0.31250       -0.43750
 BRILLOUIN|    10           0.00391       -0.43750       -0.31250       -0.31250
 BRILLOUIN|    11           0.00391       -0.43750       -0.31250       -0.18750
 BRILLOUIN|    12           0.00391       -0.43750       -0.31250       -0.06250
 BRILLOUIN|    13           0.00391       -0.43750       -0.31250        0.06250
 BRILLOUIN|    14           0.00391       -0.43750       -0.31250        0.18750
 BRILLOUIN|    15           0.00391       -0.43750       -0.31250        0.31250
 BRILLOUIN|    16           0.00391       -0.43750       -0.31250        0.43750
 BRILLOUIN|    17           0.00391       -0.43750       -0.18750       -0.43750
 BRILLOUIN|    18           0.00391       -0.43750       -0.18750       -0.31250
 BRILLOUIN|    19           0.00391       -0.43750       -0.18750       -0.18750
 BRILLOUIN|    20           0.00391       -0.43750       -0.18750       -0.06250
 BRILLOUIN|    21           0.00391       -0.43750       -0.18750        0.06250
 BRILLOUIN|    22           0.00391       -0.43750       -0.18750        0.18750
 BRILLOUIN|    23           0.00391       -0.43750       -0.18750        0.31250
 BRILLOUIN|    24           0.00391       -0.43750       -0.18750        0.43750
 BRILLOUIN|    25           0.00391       -0.43750       -0.06250       -0.43750
 BRILLOUIN|    26           0.00391       -0.43750       -0.06250       -0.31250
 BRILLOUIN|    27           0.00391       -0.43750       -0.06250       -0.18750
 BRILLOUIN|    28           0.00391       -0.43750       -0.06250       -0.06250
 BRILLOUIN|    29           0.00391       -0.43750       -0.06250        0.06250
 BRILLOUIN|    30           0.00391       -0.43750       -0.06250        0.18750
 BRILLOUIN|    31           0.00391       -0.43750       -0.06250        0.31250
 BRILLOUIN|    32           0.00391       -0.43750       -0.06250        0.43750
 BRILLOUIN|    33           0.00391       -0.43750        0.06250       -0.43750
 BRILLOUIN|    34           0.00391       -0.43750        0.06250       -0.31250
 BRILLOUIN|    35           0.00391       -0.43750        0.06250       -0.18750
 BRILLOUIN|    36           0.00391       -0.43750        0.06250       -0.06250
 BRILLOUIN|    37           0.00391       -0.43750        0.06250        0.06250
 BRILLOUIN|    38           0.00391       -0.43750        0.06250        0.18750
 BRILLOUIN|    39           0.00391       -0.43750        0.06250        0.31250
 BRILLOUIN|    40           0.00391       -0.43750        0.06250        0.43750
 BRILLOUIN|    41           0.00391       -0.43750        0.18750       -0.43750
 BRILLOUIN|    42           0.00391       -0.43750        0.18750       -0.31250
 BRILLOUIN|    43           0.00391       -0.43750        0.18750       -0.18750
 BRILLOUIN|    44           0.00391       -0.43750        0.18750       -0.06250
 BRILLOUIN|    45           0.00391       -0.43750        0.18750        0.06250
 BRILLOUIN|    46           0.00391       -0.43750        0.18750        0.18750
 BRILLOUIN|    47           0.00391       -0.43750        0.18750        0.31250
 BRILLOUIN|    48           0.00391       -0.43750        0.18750        0.43750
 BRILLOUIN|    49           0.00391       -0.43750        0.31250       -0.43750
 BRILLOUIN|    50           0.00391       -0.43750        0.31250       -0.31250
 BRILLOUIN|    51           0.00391       -0.43750        0.31250       -0.18750
 BRILLOUIN|    52           0.00391       -0.43750        0.31250       -0.06250
 BRILLOUIN|    53           0.00391       -0.43750        0.31250        0.06250
 BRILLOUIN|    54           0.00391       -0.43750        0.31250        0.18750
 BRILLOUIN|    55           0.00391       -0.43750        0.31250        0.31250
 BRILLOUIN|    56           0.00391       -0.43750        0.31250        0.43750
 BRILLOUIN|    57           0.00391       -0.43750        0.43750       -0.43750
 BRILLOUIN|    58           0.00391       -0.43750        0.43750       -0.31250
 BRILLOUIN|    59           0.00391       -0.43750        0.43750       -0.18750
 BRILLOUIN|    60           0.00391       -0.43750        0.43750       -0.06250
 BRILLOUIN|    61           0.00391       -0.43750        0.43750        0.06250
 BRILLOUIN|    62           0.00391       -0.43750        0.43750        0.18750
 BRILLOUIN|    63           0.00391       -0.43750        0.43750        0.31250
 BRILLOUIN|    64           0.00391       -0.43750        0.43750        0.43750
 BRILLOUIN|    65           0.00391       -0.31250       -0.43750       -0.43750
 BRILLOUIN|    66           0.00391       -0.31250       -0.43750       -0.31250
 BRILLOUIN|    67           0.00391       -0.31250       -0.43750       -0.18750
 BRILLOUIN|    68           0.00391       -0.31250       -0.43750       -0.06250
 BRILLOUIN|    69           0.00391       -0.31250       -0.43750        0.06250
 BRILLOUIN|    70           0.00391       -0.31250       -0.43750        0.18750
 BRILLOUIN|    71           0.00391       -0.31250       -0.43750        0.31250
 BRILLOUIN|    72           0.00391       -0.31250       -0.43750        0.43750
 BRILLOUIN|    73           0.00391       -0.31250       -0.31250       -0.43750
 BRILLOUIN|    74           0.00391       -0.31250       -0.31250       -0.31250
 BRILLOUIN|    75           0.00391       -0.31250       -0.31250       -0.18750
 BRILLOUIN|    76           0.00391       -0.31250       -0.31250       -0.06250
 BRILLOUIN|    77           0.00391       -0.31250       -0.31250        0.06250
 BRILLOUIN|    78           0.00391       -0.31250       -0.31250        0.18750
 BRILLOUIN|    79           0.00391       -0.31250       -0.31250        0.31250
 BRILLOUIN|    80           0.00391       -0.31250       -0.31250        0.43750
 BRILLOUIN|    81           0.00391       -0.31250       -0.18750       -0.43750
 BRILLOUIN|    82           0.00391       -0.31250       -0.18750       -0.31250
 BRILLOUIN|    83           0.00391       -0.31250       -0.18750       -0.18750
 BRILLOUIN|    84           0.00391       -0.31250       -0.18750       -0.06250
 BRILLOUIN|    85           0.00391       -0.31250       -0.18750        0.06250
 BRILLOUIN|    86           0.00391       -0.31250       -0.18750        0.18750
 BRILLOUIN|    87           0.00391       -0.31250       -0.18750        0.31250
 BRILLOUIN|    88           0.00391       -0.31250       -0.18750        0.43750
 BRILLOUIN|    89           0.00391       -0.31250       -0.06250       -0.43750
 BRILLOUIN|    90           0.00391       -0.31250       -0.06250       -0.31250
 BRILLOUIN|    91           0.00391       -0.31250       -0.06250       -0.18750
 BRILLOUIN|    92           0.00391       -0.31250       -0.06250       -0.06250
 BRILLOUIN|    93           0.00391       -0.31250       -0.06250        0.06250
 BRILLOUIN|    94           0.00391       -0.31250       -0.06250        0.18750
 BRILLOUIN|    95           0.00391       -0.31250       -0.06250        0.31250
 BRILLOUIN|    96           0.00391       -0.31250       -0.06250        0.43750
 BRILLOUIN|    97           0.00391       -0.31250        0.06250       -0.43750
 BRILLOUIN|    98           0.00391       -0.31250        0.06250       -0.31250
 BRILLOUIN|    99           0.00391       -0.31250        0.06250       -0.18750
 BRILLOUIN|   100           0.00391       -0.31250        0.06250       -0.06250
 BRILLOUIN|   101           0.00391       -0.31250        0.06250        0.06250
 BRILLOUIN|   102           0.00391       -0.31250        0.06250        0.18750
 BRILLOUIN|   103           0.00391       -0.31250        0.06250        0.31250
 BRILLOUIN|   104           0.00391       -0.31250        0.06250        0.43750
 BRILLOUIN|   105           0.00391       -0.31250        0.18750       -0.43750
 BRILLOUIN|   106           0.00391       -0.31250        0.18750       -0.31250
 BRILLOUIN|   107           0.00391       -0.31250        0.18750       -0.18750
 BRILLOUIN|   108           0.00391       -0.31250        0.18750       -0.06250
 BRILLOUIN|   109           0.00391       -0.31250        0.18750        0.06250
 BRILLOUIN|   110           0.00391       -0.31250        0.18750        0.18750
 BRILLOUIN|   111           0.00391       -0.31250        0.18750        0.31250
 BRILLOUIN|   112           0.00391       -0.31250        0.18750        0.43750
 BRILLOUIN|   113           0.00391       -0.31250        0.31250       -0.43750
 BRILLOUIN|   114           0.00391       -0.31250        0.31250       -0.31250
 BRILLOUIN|   115           0.00391       -0.31250        0.31250       -0.18750
 BRILLOUIN|   116           0.00391       -0.31250        0.31250       -0.06250
 BRILLOUIN|   117           0.00391       -0.31250        0.31250        0.06250
 BRILLOUIN|   118           0.00391       -0.31250        0.31250        0.18750
 BRILLOUIN|   119           0.00391       -0.31250        0.31250        0.31250
 BRILLOUIN|   120           0.00391       -0.31250        0.31250        0.43750
 BRILLOUIN|   121           0.00391       -0.31250        0.43750       -0.43750
 BRILLOUIN|   122           0.00391       -0.31250        0.43750       -0.31250
 BRILLOUIN|   123           0.00391       -0.31250        0.43750       -0.18750
 BRILLOUIN|   124           0.00391       -0.31250        0.43750       -0.06250
 BRILLOUIN|   125           0.00391       -0.31250        0.43750        0.06250
 BRILLOUIN|   126           0.00391       -0.31250        0.43750        0.18750
 BRILLOUIN|   127           0.00391       -0.31250        0.43750        0.31250
 BRILLOUIN|   128           0.00391       -0.31250        0.43750        0.43750
 BRILLOUIN|   129           0.00391       -0.18750       -0.43750       -0.43750
 BRILLOUIN|   130           0.00391       -0.18750       -0.43750       -0.31250
 BRILLOUIN|   131           0.00391       -0.18750       -0.43750       -0.18750
 BRILLOUIN|   132           0.00391       -0.18750       -0.43750       -0.06250
 BRILLOUIN|   133           0.00391       -0.18750       -0.43750        0.06250
 BRILLOUIN|   134           0.00391       -0.18750       -0.43750        0.18750
 BRILLOUIN|   135           0.00391       -0.18750       -0.43750        0.31250
 BRILLOUIN|   136           0.00391       -0.18750       -0.43750        0.43750
 BRILLOUIN|   137           0.00391       -0.18750       -0.31250       -0.43750
 BRILLOUIN|   138           0.00391       -0.18750       -0.31250       -0.31250
 BRILLOUIN|   139           0.00391       -0.18750       -0.31250       -0.18750
 BRILLOUIN|   140           0.00391       -0.18750       -0.31250       -0.06250
 BRILLOUIN|   141           0.00391       -0.18750       -0.31250        0.06250
 BRILLOUIN|   142           0.00391       -0.18750       -0.31250        0.18750
 BRILLOUIN|   143           0.00391       -0.18750       -0.31250        0.31250
 BRILLOUIN|   144           0.00391       -0.18750       -0.31250        0.43750
 BRILLOUIN|   145           0.00391       -0.18750       -0.18750       -0.43750
 BRILLOUIN|   146           0.00391       -0.18750       -0.18750       -0.31250
 BRILLOUIN|   147           0.00391       -0.18750       -0.18750       -0.18750
 BRILLOUIN|   148           0.00391       -0.18750       -0.18750       -0.06250
 BRILLOUIN|   149           0.00391       -0.18750       -0.18750        0.06250
 BRILLOUIN|   150           0.00391       -0.18750       -0.18750        0.18750
 BRILLOUIN|   151           0.00391       -0.18750       -0.18750        0.31250
 BRILLOUIN|   152           0.00391       -0.18750       -0.18750        0.43750
 BRILLOUIN|   153           0.00391       -0.18750       -0.06250       -0.43750
 BRILLOUIN|   154           0.00391       -0.18750       -0.06250       -0.31250
 BRILLOUIN|   155           0.00391       -0.18750       -0.06250       -0.18750
 BRILLOUIN|   156           0.00391       -0.18750       -0.06250       -0.06250
 BRILLOUIN|   157           0.00391       -0.18750       -0.06250        0.06250
 BRILLOUIN|   158           0.00391       -0.18750       -0.06250        0.18750
 BRILLOUIN|   159           0.00391       -0.18750       -0.06250        0.31250
 BRILLOUIN|   160           0.00391       -0.18750       -0.06250        0.43750
 BRILLOUIN|   161           0.00391       -0.18750        0.06250       -0.43750
 BRILLOUIN|   162           0.00391       -0.18750        0.06250       -0.31250
 BRILLOUIN|   163           0.00391       -0.18750        0.06250       -0.18750
 BRILLOUIN|   164           0.00391       -0.18750        0.06250       -0.06250
 BRILLOUIN|   165           0.00391       -0.18750        0.06250        0.06250
 BRILLOUIN|   166           0.00391       -0.18750        0.06250        0.18750
 BRILLOUIN|   167           0.00391       -0.18750        0.06250        0.31250
 BRILLOUIN|   168           0.00391       -0.18750        0.06250        0.43750
 BRILLOUIN|   169           0.00391       -0.18750        0.18750       -0.43750
 BRILLOUIN|   170           0.00391       -0.18750        0.18750       -0.31250
 BRILLOUIN|   171           0.00391       -0.18750        0.18750       -0.18750
 BRILLOUIN|   172           0.00391       -0.18750        0.18750       -0.06250
 BRILLOUIN|   173           0.00391       -0.18750        0.18750        0.06250
 BRILLOUIN|   174           0.00391       -0.18750        0.18750        0.18750
 BRILLOUIN|   175           0.00391       -0.18750        0.18750        0.31250
 BRILLOUIN|   176           0.00391       -0.18750        0.18750        0.43750
 BRILLOUIN|   177           0.00391       -0.18750        0.31250       -0.43750
 BRILLOUIN|   178           0.00391       -0.18750        0.31250       -0.31250
 BRILLOUIN|   179           0.00391       -0.18750        0.31250       -0.18750
 BRILLOUIN|   180           0.00391       -0.18750        0.31250       -0.06250
 BRILLOUIN|   181           0.00391       -0.18750        0.31250        0.06250
 BRILLOUIN|   182           0.00391       -0.18750        0.31250        0.18750
 BRILLOUIN|   183           0.00391       -0.18750        0.31250        0.31250
 BRILLOUIN|   184           0.00391       -0.18750        0.31250        0.43750
 BRILLOUIN|   185           0.00391       -0.18750        0.43750       -0.43750
 BRILLOUIN|   186           0.00391       -0.18750        0.43750       -0.31250
 BRILLOUIN|   187           0.00391       -0.18750        0.43750       -0.18750
 BRILLOUIN|   188           0.00391       -0.18750        0.43750       -0.06250
 BRILLOUIN|   189           0.00391       -0.18750        0.43750        0.06250
 BRILLOUIN|   190           0.00391       -0.18750        0.43750        0.18750
 BRILLOUIN|   191           0.00391       -0.18750        0.43750        0.31250
 BRILLOUIN|   192           0.00391       -0.18750        0.43750        0.43750
 BRILLOUIN|   193           0.00391       -0.06250       -0.43750       -0.43750
 BRILLOUIN|   194           0.00391       -0.06250       -0.43750       -0.31250
 BRILLOUIN|   195           0.00391       -0.06250       -0.43750       -0.18750
 BRILLOUIN|   196           0.00391       -0.06250       -0.43750       -0.06250
 BRILLOUIN|   197           0.00391       -0.06250       -0.43750        0.06250
 BRILLOUIN|   198           0.00391       -0.06250       -0.43750        0.18750
 BRILLOUIN|   199           0.00391       -0.06250       -0.43750        0.31250
 BRILLOUIN|   200           0.00391       -0.06250       -0.43750        0.43750
 BRILLOUIN|   201           0.00391       -0.06250       -0.31250       -0.43750
 BRILLOUIN|   202           0.00391       -0.06250       -0.31250       -0.31250
 BRILLOUIN|   203           0.00391       -0.06250       -0.31250       -0.18750
 BRILLOUIN|   204           0.00391       -0.06250       -0.31250       -0.06250
 BRILLOUIN|   205           0.00391       -0.06250       -0.31250        0.06250
 BRILLOUIN|   206           0.00391       -0.06250       -0.31250        0.18750
 BRILLOUIN|   207           0.00391       -0.06250       -0.31250        0.31250
 BRILLOUIN|   208           0.00391       -0.06250       -0.31250        0.43750
 BRILLOUIN|   209           0.00391       -0.06250       -0.18750       -0.43750
 BRILLOUIN|   210           0.00391       -0.06250       -0.18750       -0.31250
 BRILLOUIN|   211           0.00391       -0.06250       -0.18750       -0.18750
 BRILLOUIN|   212           0.00391       -0.06250       -0.18750       -0.06250
 BRILLOUIN|   213           0.00391       -0.06250       -0.18750        0.06250
 BRILLOUIN|   214           0.00391       -0.06250       -0.18750        0.18750
 BRILLOUIN|   215           0.00391       -0.06250       -0.18750        0.31250
 BRILLOUIN|   216           0.00391       -0.06250       -0.18750        0.43750
 BRILLOUIN|   217           0.00391       -0.06250       -0.06250       -0.43750
 BRILLOUIN|   218           0.00391       -0.06250       -0.06250       -0.31250
 BRILLOUIN|   219           0.00391       -0.06250       -0.06250       -0.18750
 BRILLOUIN|   220           0.00391       -0.06250       -0.06250       -0.06250
 BRILLOUIN|   221           0.00391       -0.06250       -0.06250        0.06250
 BRILLOUIN|   222           0.00391       -0.06250       -0.06250        0.18750
 BRILLOUIN|   223           0.00391       -0.06250       -0.06250        0.31250
 BRILLOUIN|   224           0.00391       -0.06250       -0.06250        0.43750
 BRILLOUIN|   225           0.00391       -0.06250        0.06250       -0.43750
 BRILLOUIN|   226           0.00391       -0.06250        0.06250       -0.31250
 BRILLOUIN|   227           0.00391       -0.06250        0.06250       -0.18750
 BRILLOUIN|   228           0.00391       -0.06250        0.06250       -0.06250
 BRILLOUIN|   229           0.00391       -0.06250        0.06250        0.06250
 BRILLOUIN|   230           0.00391       -0.06250        0.06250        0.18750
 BRILLOUIN|   231           0.00391       -0.06250        0.06250        0.31250
 BRILLOUIN|   232           0.00391       -0.06250        0.06250        0.43750
 BRILLOUIN|   233           0.00391       -0.06250        0.18750       -0.43750
 BRILLOUIN|   234           0.00391       -0.06250        0.18750       -0.31250
 BRILLOUIN|   235           0.00391       -0.06250        0.18750       -0.18750
 BRILLOUIN|   236           0.00391       -0.06250        0.18750       -0.06250
 BRILLOUIN|   237           0.00391       -0.06250        0.18750        0.06250
 BRILLOUIN|   238           0.00391       -0.06250        0.18750        0.18750
 BRILLOUIN|   239           0.00391       -0.06250        0.18750        0.31250
 BRILLOUIN|   240           0.00391       -0.06250        0.18750        0.43750
 BRILLOUIN|   241           0.00391       -0.06250        0.31250       -0.43750
 BRILLOUIN|   242           0.00391       -0.06250        0.31250       -0.31250
 BRILLOUIN|   243           0.00391       -0.06250        0.31250       -0.18750
 BRILLOUIN|   244           0.00391       -0.06250        0.31250       -0.06250
 BRILLOUIN|   245           0.00391       -0.06250        0.31250        0.06250
 BRILLOUIN|   246           0.00391       -0.06250        0.31250        0.18750
 BRILLOUIN|   247           0.00391       -0.06250        0.31250        0.31250
 BRILLOUIN|   248           0.00391       -0.06250        0.31250        0.43750
 BRILLOUIN|   249           0.00391       -0.06250        0.43750       -0.43750
 BRILLOUIN|   250           0.00391       -0.06250        0.43750       -0.31250
 BRILLOUIN|   251           0.00391       -0.06250        0.43750       -0.18750
 BRILLOUIN|   252           0.00391       -0.06250        0.43750       -0.06250
 BRILLOUIN|   253           0.00391       -0.06250        0.43750        0.06250
 BRILLOUIN|   254           0.00391       -0.06250        0.43750        0.18750
 BRILLOUIN|   255           0.00391       -0.06250        0.43750        0.31250
 BRILLOUIN|   256           0.00391       -0.06250        0.43750        0.43750
 *******************************************************************************

 *******************************************************************************
 *******************************************************************************
 **                                                                           **
 **     #####                         ##              ##                      **
 **    ##   ##            ##          ##              ##                      **
 **   ##     ##                       ##            ######                    **
 **   ##     ##  ##   ##  ##   #####  ##  ##   ####   ##    #####    #####    **
 **   ##     ##  ##   ##  ##  ##      ## ##   ##      ##   ##   ##  ##   ##   **
 **   ##  ## ##  ##   ##  ##  ##      ####     ###    ##   ######   ######    **
 **    ##  ###   ##   ##  ##  ##      ## ##      ##   ##   ##       ##        **
 **     #######   #####   ##   #####  ##  ##  ####    ##    #####   ##        **
 **           ##                                                    ##        **
 **                                                                           **
 **                                                ... make the atoms dance   **
 **                                                                           **
 **            Copyright (C) by CP2K developers group (2000-2025)             **
 **                      J. Chem. Phys. 152, 194103 (2020)                    **
 **                                                                           **
 *******************************************************************************

 DFT| Spin restricted Kohn-Sham (RKS) calculation                            RKS
 DFT| Multiplicity                                                             1
 DFT| Number of spin states                                                    1
 DFT| Charge                                                                   0
 DFT| Self-interaction correction (SIC)                                       NO
 DFT| Cutoffs: density                                              1.000000E-10
 DFT|          gradient                                             1.000000E-10
 DFT|          tau                                                  1.000000E-10
 DFT|          cutoff_smoothing_range                               0.000000E+00
 DFT| XC density smoothing                                                  NONE
 DFT| XC derivatives                                                          PW

 FUNCTIONAL| PBE:
 FUNCTIONAL| J.P.Perdew, K.Burke, M.Ernzerhof, Phys. Rev. Letter, vol. 77, n 18,
 FUNCTIONAL|  pp. 3865-3868, (1996) {spin unpolarized}                          


 QS| Method:                                                                 GPW
 QS| Density plane wave grid type                        NON-SPHERICAL FULLSPACE
 QS| Number of grid levels:                                                    4
 QS| Density cutoff [a.u.]:                                                500.0
 QS| Multi grid cutoff [a.u.]: 1) grid level                               500.0
 QS|                           2) grid level                               166.7
 QS|                           3) grid level                                55.6
 QS|                           4) grid level                                18.5
 QS| Grid level progression factor:                                          3.0
 QS| Relative density cutoff [a.u.]:                                        50.0
 QS| Interaction thresholds: eps_pgf_orb:                                1.0E-16
 QS|                         eps_filter_matrix:                          0.0E+00
 QS|                         eps_core_charge:                            1.0E-18
 QS|                         eps_rho_gspace:                             1.0E-16
 QS|                         eps_rho_rspace:                             1.0E-16
 QS|                         eps_gvg_rspace:                             1.0E-08
 QS|                         eps_ppl:                                    1.0E-02
 QS|                         eps_ppnl:                                   1.0E-10


 ATOMIC KIND INFORMATION

  1. Atomic kind: S                                     Number of atoms:       1

     Orbital Basis Set                                    TZVP-MOLOPT-GGA-GTH-q6

       Number of orbital shell sets:                                           1
       Number of orbital shells:                                               7
       Number of primitive Cartesian functions:                                4
       Number of Cartesian basis functions:                                   18
       Number of spherical basis functions:                                   17
       Norm type:                                                              2

       Normalised Cartesian orbitals:

                        Set   Shell   Orbital            Exponent    Coefficient

                          1       1    2s                1.909285       0.317142
                                                         1.195069      -0.043753
                                                         0.372557      -0.224533
                                                         0.119646      -0.070852

                          1       2    3s                1.909285      -0.359750
                                                         1.195069      -0.143623
                                                         0.372557       0.347052
                                                         0.119646      -0.222614

                          1       3    4s                1.909285       0.697346
                                                         1.195069      -1.478645
                                                         0.372557       0.075945
                                                         0.119646       0.034089

                          1       4    3px               1.909285       0.542980
                                                         1.195069      -0.491283
                                                         0.372557      -0.270944
                                                         0.119646      -0.032363
                          1       4    3py               1.909285       0.542980
                                                         1.195069      -0.491283
                                                         0.372557      -0.270944
                                                         0.119646      -0.032363
                          1       4    3pz               1.909285       0.542980
                                                         1.195069      -0.491283
                                                         0.372557      -0.270944
                                                         0.119646      -0.032363

                          1       5    4px               1.909285       0.682434
                                                         1.195069      -0.508016
                                                         0.372557      -0.183204
                                                         0.119646       0.125359
                          1       5    4py               1.909285       0.682434
                                                         1.195069      -0.508016
                                                         0.372557      -0.183204
                                                         0.119646       0.125359
                          1       5    4pz               1.909285       0.682434
                                                         1.195069      -0.508016
                                                         0.372557      -0.183204
                                                         0.119646       0.125359

                          1       6    5px               1.909285      -4.787543
                                                         1.195069       1.991006
                                                         0.372557      -0.393268
                                                         0.119646       0.017618
                          1       6    5py               1.909285      -4.787543
                                                         1.195069       1.991006
                                                         0.372557      -0.393268
                                                         0.119646       0.017618
                          1       6    5pz               1.909285      -4.787543
                                                         1.195069       1.991006
                                                         0.372557      -0.393268
                                                         0.119646       0.017618

                          1       7    4dx2              1.909285       0.298660
                                                         1.195069       0.639898
                                                         0.372557       0.199968
                                                         0.119646       0.006416
                          1       7    4dxy              1.909285       0.517294
                                                         1.195069       1.108336
                                                         0.372557       0.346354
                                                         0.119646       0.011113
                          1       7    4dxz              1.909285       0.517294
                                                         1.195069       1.108336
                                                         0.372557       0.346354
                                                         0.119646       0.011113
                          1       7    4dy2              1.909285       0.298660
                                                         1.195069       0.639898
                                                         0.372557       0.199968
                                                         0.119646       0.006416
                          1       7    4dyz              1.909285       0.517294
                                                         1.195069       1.108336
                                                         0.372557       0.346354
                                                         0.119646       0.011113
                          1       7    4dz2              1.909285       0.298660
                                                         1.195069       0.639898
                                                         0.372557       0.199968
                                                         0.119646       0.006416

       Atomic covalent radius [Angstrom]:                                  1.020

       Atomic van der Waals radius [Angstrom]:                             1.800

     GTH Potential information for                                    GTH-PBE-q6

       Description:                       Goedecker-Teter-Hutter pseudopotential
                                           Goedecker et al., PRB 54, 1703 (1996)
                                          Hartwigsen et al., PRB 58, 3641 (1998)
                                                      Krack, TCA 114, 145 (2005)

       Gaussian exponent of the core charge distribution:               2.834467
       Electronic configuration (s p d ...):                               2   4

       Parameters of the local part of the GTH pseudopotential:

                          rloc        C1          C2          C3          C4
                        0.420000   -5.986260

       Parameters of the non-local part of the GTH (SOC) pseudopotential:

                   l      r(l)      h(i,j,l)
                                    k(i,j,l)
                   0    0.364820   13.143544   -4.241830
                                   -4.241830    5.476180
                   1    0.409480    3.700891    0.000000
                                    0.000000    0.000000
                                    0.034924   -0.026608
                                   -0.026608    0.031483


 MOLECULE KIND INFORMATION


 All atoms are their own molecule, skipping detailed information


 TOTAL NUMBERS AND MAXIMUM NUMBERS

  Total number of            - Atomic kinds:                                   1
                             - Atoms:                                          1
                             - Shell sets:                                     1
                             - Shells:                                         7
                             - Primitive Cartesian functions:                  4
                             - Cartesian basis functions:                     18
                             - Spherical basis functions:                     17

  Maximum angular momentum of- Orbital basis functions:                        2
                             - Local part of the GTH pseudopotential:          0
                             - Non-local part of the GTH pseudopotential:      3


 MODULE QUICKSTEP: ATOMIC COORDINATES IN ANGSTROM

   Atom Kind Element         X             Y             Z       Z(eff)     Mass
      1    1 S    16      0.000000      0.000000      0.000000   6.0000  32.0650



 SCF PARAMETERS         Density guess:                                    ATOMIC
                        --------------------------------------------------------
                        max_scf:                                             500
                        max_scf_history:                                       0
                        max_diis:                                              4
                        --------------------------------------------------------
                        eps_scf:                                        1.00E-09
                        eps_scf_history:                                0.00E+00
                        eps_diis:                                       1.00E-01
                        eps_eigval:                                     1.00E-05
                        --------------------------------------------------------
                        level_shift [a.u.]:                             0.000000
                        added MOs                                        14    0
                        --------------------------------------------------------
                        Mixing method:                            BROYDEN_MIXING
                                                charge density mixing in g-space
                        --------------------------------------------------------
                        No outer SCF

 PW_GRID| Information for grid number                                          1
 PW_GRID| Grid distributed over                                     8 processors
 PW_GRID| Real space group dimensions                                     8    1
 PW_GRID| the grid is blocked:                                                NO
 PW_GRID| Cutoff [a.u.]                                                    500.0
 PW_GRID| spherical cutoff:                                                   NO
 PW_GRID|   Bounds   1            -27      26                Points:          54
 PW_GRID|   Bounds   2            -27      26                Points:          54
 PW_GRID|   Bounds   3            -27      26                Points:          54
 PW_GRID| Volume element (a.u.^3)  0.7366E-03     Volume (a.u.^3)       115.9846
 PW_GRID| Grid span                                                    FULLSPACE
 PW_GRID|   Distribution                         Average         Max         Min
 PW_GRID|   G-Vectors                            19683.0       19710       19656
 PW_GRID|   G-Rays                                 364.5         365         364
 PW_GRID|   Real Space Points                    19683.0       20412       17496

 PW_GRID| Information for grid number                                          2
 PW_GRID| Number of the reference grid                                         1
 PW_GRID| Grid distributed over                                     8 processors
 PW_GRID| Real space group dimensions                                     8    1
 PW_GRID| the grid is blocked:                                                NO
 PW_GRID| Cutoff [a.u.]                                                    166.7
 PW_GRID| spherical cutoff:                                                   NO
 PW_GRID|   Bounds   1            -15      14                Points:          30
 PW_GRID|   Bounds   2            -15      14                Points:          30
 PW_GRID|   Bounds   3            -15      14                Points:          30
 PW_GRID| Volume element (a.u.^3)  0.4296E-02     Volume (a.u.^3)       115.9846
 PW_GRID| Grid span                                                    FULLSPACE
 PW_GRID|   Distribution                         Average         Max         Min
 PW_GRID|   G-Vectors                             3375.0        3390        3360
 PW_GRID|   G-Rays                                 112.5         113         112
 PW_GRID|   Real Space Points                     3375.0        3600        2700

 PW_GRID| Information for grid number                                          3
 PW_GRID| Number of the reference grid                                         1
 PW_GRID| Grid distributed over                                     8 processors
 PW_GRID| Real space group dimensions                                     8    1
 PW_GRID| the grid is blocked:                                                NO
 PW_GRID| Cutoff [a.u.]                                                     55.6
 PW_GRID| spherical cutoff:                                                   NO
 PW_GRID|   Bounds   1             -9       8                Points:          18
 PW_GRID|   Bounds   2             -9       8                Points:          18
 PW_GRID|   Bounds   3             -9       8                Points:          18
 PW_GRID| Volume element (a.u.^3)  0.1989E-01     Volume (a.u.^3)       115.9846
 PW_GRID| Grid span                                                    FULLSPACE
 PW_GRID|   Distribution                         Average         Max         Min
 PW_GRID|   G-Vectors                              729.0         738         720
 PW_GRID|   G-Rays                                  40.5          41          40
 PW_GRID|   Real Space Points                      729.0         972         648

 PW_GRID| Information for grid number                                          4
 PW_GRID| Number of the reference grid                                         1
 PW_GRID| Grid distributed over                                     8 processors
 PW_GRID| Real space group dimensions                                     8    1
 PW_GRID| the grid is blocked:                                                NO
 PW_GRID| Cutoff [a.u.]                                                     18.5
 PW_GRID| spherical cutoff:                                                   NO
 PW_GRID|   Bounds   1             -4       4                Points:           9
 PW_GRID|   Bounds   2             -4       4                Points:           9
 PW_GRID|   Bounds   3             -4       4                Points:           9
 PW_GRID| Volume element (a.u.^3)  0.1591         Volume (a.u.^3)       115.9846
 PW_GRID| Grid span                                                    FULLSPACE
 PW_GRID|   Distribution                         Average         Max         Min
 PW_GRID|   G-Vectors                               91.1         117          72
 PW_GRID|   G-Rays                                  10.1          13           8
 PW_GRID|   Real Space Points                       91.1         162          81

 POISSON| Solver                                                        PERIODIC
 POISSON| Periodicity                                                        XYZ

 RS_GRID| Information for grid number                                          1
 RS_GRID|   Bounds   1            -27      26                Points:          54
 RS_GRID|   Bounds   2            -27      26                Points:          54
 RS_GRID|   Bounds   3            -27      26                Points:          54
 RS_GRID| Real space fully replicated
 RS_GRID| Group size                                                           1

 RS_GRID| Information for grid number                                          2
 RS_GRID|   Bounds   1            -15      14                Points:          30
 RS_GRID|   Bounds   2            -15      14                Points:          30
 RS_GRID|   Bounds   3            -15      14                Points:          30
 RS_GRID| Real space fully replicated
 RS_GRID| Group size                                                           1

 RS_GRID| Information for grid number                                          3
 RS_GRID|   Bounds   1             -9       8                Points:          18
 RS_GRID|   Bounds   2             -9       8                Points:          18
 RS_GRID|   Bounds   3             -9       8                Points:          18
 RS_GRID| Real space fully replicated
 RS_GRID| Group size                                                           1

 RS_GRID| Information for grid number                                          4
 RS_GRID|   Bounds   1             -4       4                Points:           9
 RS_GRID|   Bounds   2             -4       4                Points:           9
 RS_GRID|   Bounds   3             -4       4                Points:           9
 RS_GRID| Real space fully replicated
 RS_GRID| Group size                                                           1

 Number of electrons:                                                          6
 Number of occupied orbitals:                                                  3
 Number of molecular orbitals:                                                17

 Number of orbital functions:                                                 17
 Number of independent orbital functions:                                     17

 Extrapolation method: initial_guess

 Atomic guess: The first density matrix is obtained in terms of atomic orbitals
               and electronic configurations assigned to each atomic kind

 Guess for atomic kind: S

 Electronic structure
    Total number of core electrons                                         10.00
    Total number of valence electrons                                       6.00
    Total number of electrons                                              16.00
    Multiplicity                                                   not specified
    S   [  2.00  2.00] 2.00
    P   [  6.00] 4.00


 *******************************************************************************
                  Iteration          Convergence                     Energy [au]
 *******************************************************************************
                          1        0.421552E-01                  -9.952485835134
                          2        0.278915E-01                  -9.952778953252
                          3        0.225196E-02                  -9.953026158859
                          4        0.416502E-06                  -9.953027757058

 Energy components [Hartree]           Total Energy ::           -9.953027757058
                                        Band Energy ::           -2.173091988324
                                     Kinetic Energy ::            3.756846830015
                                   Potential Energy ::          -13.709874587073
                                      Virial (-V/T) ::            3.649303580210
                                        Core Energy ::          -16.314449225994
                                          XC Energy ::           -2.044546094727
                                     Coulomb Energy ::            8.405967563663
                       Total Pseudopotential Energy ::          -20.129656980554
                       Local Pseudopotential Energy ::          -22.250970847194
                    Nonlocal Pseudopotential Energy ::            2.121313866640
                                        Confinement ::            0.583609245456

 Orbital energies  State     L     Occupation   Energy[a.u.]          Energy[eV]

                       1     0          2.000      -0.612615          -16.670098

                       1     1          4.000      -0.236966           -6.448161


 Total Electron Density at R=0:                                         0.000289
 Re-scaling the density matrix to get the right number of electrons
                  # Electrons              Trace(P)               Scaling factor
                            6                 6.000                        1.000


 SCF WAVEFUNCTION OPTIMIZATION

  Step     Update method      Time    Convergence         Total energy    Change
  ------------------------------------------------------------------------------
     1 NoMix/Diag. 0.50E-01    2.9     0.32336124       -10.2716569549 -1.03E+01
     2 Broy./Diag. 0.50E-01    3.0     0.01631540       -10.2532505562  1.84E-02
     3 Broy./Diag. 0.50E-01    2.9     0.01763619       -10.2450287095  8.22E-03
     4 Broy./Diag. 0.50E-01    3.0     0.00371695       -10.1904992861  5.45E-02
     5 Broy./Diag. 0.50E-01    3.0     0.00004081       -10.1795334538  1.10E-02
     6 Broy./Diag. 0.50E-01    3.0     0.01762012       -10.1857857285 -6.25E-03
     7 Broy./Diag. 0.50E-01    3.0     0.00003245       -10.1891637064 -3.38E-03
     8 Broy./Diag. 0.50E-01    3.0     0.01749103       -10.1910282732 -1.86E-03
     9 Broy./Diag. 0.50E-01    3.0     0.00001599       -10.1914309020 -4.03E-04
    10 Broy./Diag. 0.50E-01    3.0     0.01749008       -10.1918074831 -3.77E-04
    11 Broy./Diag. 0.50E-01    3.0     0.00001075       -10.1918478419 -4.04E-05
    12 Broy./Diag. 0.50E-01    2.9     0.00004157       -10.1918594193 -1.16E-05
    13 Broy./Diag. 0.50E-01    3.0     0.01747336       -10.1918766077 -1.72E-05
    14 Broy./Diag. 0.50E-01    3.0     0.01747442       -10.1918572643  1.93E-05
    15 Broy./Diag. 0.50E-01    3.0     0.01747117       -10.1918818436 -2.46E-05
    16 Broy./Diag. 0.50E-01    2.9     0.00000421       -10.1918798449  2.00E-06
    17 Broy./Diag. 0.50E-01    3.0     0.00000125       -10.1918829889 -3.14E-06
    18 Broy./Diag. 0.50E-01    3.0     0.00000629       -10.1918510464  3.19E-05
    19 Broy./Diag. 0.50E-01    3.0     0.00000634       -10.1918723948 -2.13E-05
    20 Broy./Diag. 0.50E-01    3.0     0.00000160       -10.1918756974 -3.30E-06
    21 Broy./Diag. 0.50E-01    3.0     0.00000374       -10.1918747050  9.92E-07
    22 Broy./Diag. 0.50E-01    3.0     0.01855100       -10.1918753534 -6.48E-07
    23 Broy./Diag. 0.50E-01    3.0     0.01747400       -10.1918742556  1.10E-06
    24 Broy./Diag. 0.50E-01    3.0     0.01747505       -10.1918753051 -1.05E-06
    25 Broy./Diag. 0.50E-01    3.0     0.01747480       -10.1918737079  1.60E-06
    26 Broy./Diag. 0.50E-01    3.0     0.01747215       -10.1918741742 -4.66E-07
    27 Broy./Diag. 0.50E-01    3.0     0.00001854       -10.1918754097 -1.24E-06
    28 Broy./Diag. 0.50E-01    3.0     0.00000395       -10.1918773415 -1.93E-06
    29 Broy./Diag. 0.50E-01    3.0     0.00000273       -10.1918774782 -1.37E-07
    30 Broy./Diag. 0.50E-01    3.0     0.00000093       -10.1918774701  8.08E-09
    31 Broy./Diag. 0.50E-01    3.0     0.00000601       -10.1918776020 -1.32E-07
    32 Broy./Diag. 0.50E-01    3.0     0.00001055       -10.1918819272 -4.33E-06
    33 Broy./Diag. 0.50E-01    3.0     0.01855063       -10.1919064959 -2.46E-05
    34 Broy./Diag. 0.50E-01    3.0     0.01747471       -10.1918898916  1.66E-05
    35 Broy./Diag. 0.50E-01    3.0     0.01747801       -10.1918777716  1.21E-05
    36 Broy./Diag. 0.50E-01    3.0     0.01747764       -10.1918769484  8.23E-07
    37 Broy./Diag. 0.50E-01    2.9     0.01746966       -10.1918766305  3.18E-07
    38 Broy./Diag. 0.50E-01    3.0     0.00003712       -10.1918845342 -7.90E-06
    39 Broy./Diag. 0.50E-01    3.0     0.01747464       -10.1918941371 -9.60E-06
    40 Broy./Diag. 0.50E-01    3.0     0.01747229       -10.1918878629  6.27E-06
    41 Broy./Diag. 0.50E-01    3.0     0.00001354       -10.1919028912 -1.50E-05
    42 Broy./Diag. 0.50E-01    2.9     0.00001160       -10.1919025299  3.61E-07
    43 Broy./Diag. 0.50E-01    3.0     0.00001019       -10.1919032914 -7.62E-07
    44 Broy./Diag. 0.50E-01    3.0     0.01854767       -10.1919085185 -5.23E-06
    45 Broy./Diag. 0.50E-01    3.0     0.01747496       -10.1918875909  2.09E-05
    46 Broy./Diag. 0.50E-01    3.0     0.01747178       -10.1918780309  9.56E-06
    47 Broy./Diag. 0.50E-01    3.0     0.00002149       -10.1918854647 -7.43E-06
    48 Broy./Diag. 0.50E-01    3.0     0.00000718       -10.1918884400 -2.98E-06
    49 Broy./Diag. 0.50E-01    3.0     0.01747385       -10.1918895310 -1.09E-06
    50 Broy./Diag. 0.50E-01    3.0     0.01747132       -10.1918811561  8.37E-06
    51 Broy./Diag. 0.50E-01    2.9     0.00002453       -10.1918839829 -2.83E-06
    52 Broy./Diag. 0.50E-01    3.0     0.00000116       -10.1918885157 -4.53E-06
    53 Broy./Diag. 0.50E-01    3.0     0.01855010       -10.1919062684 -1.78E-05
    54 Broy./Diag. 0.50E-01    3.0     0.01747377       -10.1918864066  1.99E-05
    55 Broy./Diag. 0.50E-01    3.0     0.01747154       -10.1918777185  8.69E-06
    56 Broy./Diag. 0.50E-01    3.0     0.00002534       -10.1918839122 -6.19E-06
    57 Broy./Diag. 0.50E-01    3.0     0.00000293       -10.1918862153 -2.30E-06
    58 Broy./Diag. 0.50E-01    3.0     0.01747364       -10.1918925269 -6.31E-06
    59 Broy./Diag. 0.50E-01    3.0     0.01747117       -10.1918819063  1.06E-05
    60 Broy./Diag. 0.50E-01    3.0     0.00003655       -10.1918908829 -8.98E-06
    61 Broy./Diag. 0.50E-01    3.0     0.00000545       -10.1919046925 -1.38E-05
    62 Broy./Diag. 0.50E-01    2.9     0.00001605       -10.1919350662 -3.04E-05
    63 Broy./Diag. 0.50E-01    3.0     0.01853150       -10.1920558158 -1.21E-04
    64 Broy./Diag. 0.50E-01    3.0     0.01747952       -10.1919282989  1.28E-04
    65 Broy./Diag. 0.50E-01    3.0     0.01746978       -10.1918832895  4.50E-05
    66 Broy./Diag. 0.50E-01    3.0     0.01747045       -10.1918987777 -1.55E-05
    67 Broy./Diag. 0.50E-01    3.0     0.01747152       -10.1918888242  9.95E-06
    68 Broy./Diag. 0.50E-01    3.0     0.01747070       -10.1919006303 -1.18E-05
    69 Broy./Diag. 0.50E-01    3.0     0.01747118       -10.1918903541  1.03E-05
    70 Broy./Diag. 0.50E-01    3.0     0.01854691       -10.1918859860  4.37E-06
    71 Broy./Diag. 0.50E-01    3.0     0.01854940       -10.1918741661  1.18E-05
    72 Broy./Diag. 0.50E-01    3.0     0.01747372       -10.1918816493 -7.48E-06
    73 Broy./Diag. 0.50E-01    3.0     0.01747208       -10.1918791111  2.54E-06
    74 Broy./Diag. 0.50E-01    3.0     0.00000718       -10.1918850457 -5.93E-06
    75 Broy./Diag. 0.50E-01    3.0     0.00000703       -10.1918810662  3.98E-06
    76 Broy./Diag. 0.50E-01    3.0     0.00000192       -10.1918804420  6.24E-07
    77 Broy./Diag. 0.50E-01    3.0     0.00000619       -10.1918817179 -1.28E-06
    78 Broy./Diag. 0.50E-01    3.0     0.01854668       -10.1918834195 -1.70E-06
    79 Broy./Diag. 0.50E-01    3.0     0.01854842       -10.1918824618  9.58E-07
    80 Broy./Diag. 0.50E-01    3.0     0.01747153       -10.1918878046 -5.34E-06
    81 Broy./Diag. 0.50E-01    3.0     0.01746534       -10.1918736860  1.41E-05
    82 Broy./Diag. 0.50E-01    3.0     0.00008245       -10.1918831767 -9.49E-06
    83 Broy./Diag. 0.50E-01    3.0     0.00001370       -10.1918872528 -4.08E-06
    84 Broy./Diag. 0.50E-01    2.9     0.01747199       -10.1918840389  3.21E-06
    85 Broy./Diag. 0.50E-01    3.0     0.01746346       -10.1918731489  1.09E-05
    86 Broy./Diag. 0.50E-01    3.0     0.00007335       -10.1918742267 -1.08E-06
    87 Broy./Diag. 0.50E-01    3.0     0.01854429       -10.1918753643 -1.14E-06
    88 Broy./Diag. 0.50E-01    3.0     0.01854605       -10.1918732453  2.12E-06
    89 Broy./Diag. 0.50E-01    3.0     0.01854685       -10.1918746957 -1.45E-06
    90 Broy./Diag. 0.50E-01    3.0     0.01854509       -10.1918752396 -5.44E-07
    91 Broy./Diag. 0.50E-01    3.0     0.01747024       -10.1918760649 -8.25E-07
    92 Broy./Diag. 0.50E-01    3.0     0.01746422       -10.1918707486  5.32E-06
    93 Broy./Diag. 0.50E-01    3.0     0.00006987       -10.1918728109 -2.06E-06
    94 Broy./Diag. 0.50E-01    2.9     0.01747022       -10.1918755470 -2.74E-06
    95 Broy./Diag. 0.50E-01    3.0     0.01746372       -10.1918701069  5.44E-06
    96 Broy./Diag. 0.50E-01    3.0     0.01854713       -10.1918715309 -1.42E-06
    97 Broy./Diag. 0.50E-01    3.0     0.01854549       -10.1918722789 -7.48E-07
    98 Broy./Diag. 0.50E-01    3.0     0.01854498       -10.1918737526 -1.47E-06
    99 Broy./Diag. 0.50E-01    3.0     0.01854476       -10.1918732900  4.63E-07
   100 Broy./Diag. 0.50E-01    2.9     0.01746992       -10.1918748796 -1.59E-06
   101 Broy./Diag. 0.50E-01    3.0     0.01746482       -10.1918706247  4.25E-06
   102 Broy./Diag. 0.50E-01    3.0     0.00004119       -10.1918713258 -7.01E-07
   103 Broy./Diag. 0.50E-01    2.9     0.01746859       -10.1918750080 -3.68E-06
   104 Broy./Diag. 0.50E-01    3.0     0.01746464       -10.1918708249  4.18E-06
   105 Broy./Diag. 0.50E-01    2.9     0.01854695       -10.1918732960 -2.47E-06
   106 Broy./Diag. 0.50E-01    3.0     0.01854491       -10.1918741122 -8.16E-07
   107 Broy./Diag. 0.50E-01    3.0     0.01747008       -10.1918757834 -1.67E-06
   108 Broy./Diag. 0.50E-01    3.0     0.01746758       -10.1918731480  2.64E-06
   109 Broy./Diag. 0.50E-01    3.0     0.01854530       -10.1918751825 -2.03E-06
   110 Broy./Diag. 0.50E-01    3.0     0.00002270       -10.1918750560  1.26E-07
   111 Broy./Diag. 0.50E-01    3.0     0.01854552       -10.1918744076  6.48E-07
   112 Broy./Diag. 0.50E-01    3.0     0.01746930       -10.1918765566 -2.15E-06
   113 Broy./Diag. 0.50E-01    3.0     0.01746519       -10.1918731359  3.42E-06
   114 Broy./Diag. 0.50E-01    3.0     0.01854642       -10.1918753014 -2.17E-06
   115 Broy./Diag. 0.50E-01    3.0     0.01854456       -10.1918758526 -5.51E-07
   116 Broy./Diag. 0.50E-01    2.9     0.01746948       -10.1918776008 -1.75E-06
   117 Broy./Diag. 0.50E-01    3.0     0.01746484       -10.1918739935  3.61E-06
   118 Broy./Diag. 0.50E-01    2.9     0.01854617       -10.1918761545 -2.16E-06
   119 Broy./Diag. 0.50E-01    3.0     0.00000560       -10.1918772549 -1.10E-06
   120 Broy./Diag. 0.50E-01    3.0     0.01854464       -10.1918765333  7.22E-07
   121 Broy./Diag. 0.50E-01    3.0     0.01746987       -10.1918780400 -1.51E-06
   122 Broy./Diag. 0.50E-01    3.0     0.01746684       -10.1918760310  2.01E-06
   123 Broy./Diag. 0.50E-01    3.0     0.01746789       -10.1918774821 -1.45E-06
   124 Broy./Diag. 0.50E-01    3.0     0.01746979       -10.1918771095  3.73E-07
   125 Broy./Diag. 0.50E-01    2.9     0.01746902       -10.1918784882 -1.38E-06
   126 Broy./Diag. 0.50E-01    3.0     0.01746966       -10.1918779450  5.43E-07
   127 Broy./Diag. 0.50E-01    3.0     0.01746882       -10.1918791369 -1.19E-06
   128 Broy./Diag. 0.50E-01    3.0     0.01747071       -10.1918789094  2.28E-07
   129 Broy./Diag. 0.50E-01    3.0     0.01746510       -10.1918813234 -2.41E-06
   130 Broy./Diag. 0.50E-01    3.0     0.00002504       -10.1918832417 -1.92E-06
   131 Broy./Diag. 0.50E-01    3.0     0.00004493       -10.1918844286 -1.19E-06
   132 Broy./Diag. 0.50E-01    3.0     0.00000817       -10.1918834279  1.00E-06
   133 Broy./Diag. 0.50E-01    3.0     0.00001022       -10.1918814242  2.00E-06
   134 Broy./Diag. 0.50E-01    3.0     0.00000094       -10.1918807979  6.26E-07
   135 Broy./Diag. 0.50E-01    3.0     0.01747604       -10.1918891823 -8.38E-06
   136 Broy./Diag. 0.50E-01    3.0     0.01854273       -10.1918742321  1.50E-05
   137 Broy./Diag. 0.50E-01    3.0     0.01745264       -10.1918792903 -5.06E-06
   138 Broy./Diag. 0.50E-01    3.0     0.01747873       -10.1918821614 -2.87E-06
   139 Broy./Diag. 0.50E-01    3.0     0.01854938       -10.1918754145  6.75E-06
   140 Broy./Diag. 0.50E-01    2.9     0.01746467       -10.1918796263 -4.21E-06
   141 Broy./Diag. 0.50E-01    3.0     0.01747643       -10.1918809894 -1.36E-06
   142 Broy./Diag. 0.50E-01    3.0     0.01854622       -10.1918774075  3.58E-06
   143 Broy./Diag. 0.50E-01    3.0     0.01854183       -10.1918807118 -3.30E-06
   144 Broy./Diag. 0.50E-01    3.0     0.01747441       -10.1918783564  2.36E-06
   145 Broy./Diag. 0.50E-01    3.0     0.01746612       -10.1918765184  1.84E-06
   146 Broy./Diag. 0.50E-01    3.0     0.01854547       -10.1918787538 -2.24E-06
   147 Broy./Diag. 0.50E-01    3.0     0.01747389       -10.1918776602  1.09E-06
   148 Broy./Diag. 0.50E-01    2.9     0.01747000       -10.1918770644  5.96E-07
   149 Broy./Diag. 0.50E-01    3.0     0.01854478       -10.1918783901 -1.33E-06
   150 Broy./Diag. 0.50E-01    3.0     0.01747374       -10.1918771833  1.21E-06
   151 Broy./Diag. 0.50E-01    3.0     0.01747191       -10.1918774927 -3.09E-07
   152 Broy./Diag. 0.50E-01    3.0     0.01747123       -10.1918783579 -8.65E-07
   153 Broy./Diag. 0.50E-01    3.0     0.01747392       -10.1918790862 -7.28E-07
   154 Broy./Diag. 0.50E-01    3.0     0.01854467       -10.1918781085  9.78E-07
   155 Broy./Diag. 0.50E-01    3.0     0.01747212       -10.1918783362 -2.28E-07
   156 Broy./Diag. 0.50E-01    3.0     0.01747262       -10.1918788410 -5.05E-07
   157 Broy./Diag. 0.50E-01    3.0     0.01854355       -10.1918793479 -5.07E-07
   158 Broy./Diag. 0.50E-01    3.0     0.01747363       -10.1918789683  3.80E-07
   159 Broy./Diag. 0.50E-01    3.0     0.01747368       -10.1918790883 -1.20E-07
   160 Broy./Diag. 0.50E-01    3.0     0.01854421       -10.1918787926  2.96E-07
   161 Broy./Diag. 0.50E-01    3.0     0.01747286       -10.1918789850 -1.92E-07
   162 Broy./Diag. 0.50E-01    3.0     0.01747359       -10.1918791901 -2.05E-07
   163 Broy./Diag. 0.50E-01    3.0     0.01854405       -10.1918790340  1.56E-07
   164 Broy./Diag. 0.50E-01    3.0     0.01747308       -10.1918791220 -8.80E-08
   165 Broy./Diag. 0.50E-01    3.0     0.01747319       -10.1918792143 -9.23E-08
   166 Broy./Diag. 0.50E-01    2.9     0.01854379       -10.1918793620 -1.48E-07
   167 Broy./Diag. 0.50E-01    3.0     0.00000103       -10.1918793116  5.04E-08
   168 Broy./Diag. 0.50E-01    3.0     0.01747367       -10.1918787213  5.90E-07
   169 Broy./Diag. 0.50E-01    3.0     0.01747463       -10.1918816408 -2.92E-06
   170 Broy./Diag. 0.50E-01    3.0     0.00002670       -10.1918799687  1.67E-06
   171 Broy./Diag. 0.50E-01    3.0     0.01747371       -10.1918787359  1.23E-06
   172 Broy./Diag. 0.50E-01    3.0     0.01747481       -10.1918822760 -3.54E-06
   173 Broy./Diag. 0.50E-01    3.0     0.00002860       -10.1918805362  1.74E-06
   174 Broy./Diag. 0.50E-01    2.9     0.01747374       -10.1918790593  1.48E-06
   175 Broy./Diag. 0.50E-01    3.0     0.01747732       -10.1918896100 -1.06E-05
   176 Broy./Diag. 0.50E-01    3.0     0.00000017       -10.1918915178 -1.91E-06
   177 Broy./Diag. 0.50E-01    3.0     0.00001076       -10.1918850410  6.48E-06
   178 Broy./Diag. 0.50E-01    3.0     0.00000029       -10.1918840725  9.69E-07
   179 Broy./Diag. 0.50E-01    3.0     0.00000397       -10.1918850494 -9.77E-07
   180 Broy./Diag. 0.50E-01    3.0     0.00000476       -10.1918866313 -1.58E-06
   181 Broy./Diag. 0.50E-01    3.0     0.00000929       -10.1918892477 -2.62E-06
   182 Broy./Diag. 0.50E-01    3.0     0.00000202       -10.1918901863 -9.39E-07
   183 Broy./Diag. 0.50E-01    3.0     0.01747961       -10.1918911799 -9.94E-07
   184 Broy./Diag. 0.50E-01    3.0     0.01748680       -10.1918751746  1.60E-05
   185 Broy./Diag. 0.50E-01    2.9     0.01748418       -10.1918812878 -6.11E-06
   186 Broy./Diag. 0.50E-01    3.0     0.01748076       -10.1918779170  3.37E-06
   187 Broy./Diag. 0.50E-01    3.0     0.01747960       -10.1918801784 -2.26E-06
   188 Broy./Diag. 0.50E-01    3.0     0.01747837       -10.1918783929  1.79E-06
   189 Broy./Diag. 0.50E-01    3.0     0.01854660       -10.1918802045 -1.81E-06
   190 Broy./Diag. 0.50E-01    2.9     0.01747347       -10.1918852222 -5.02E-06
   191 Broy./Diag. 0.50E-01    2.9     0.01747640       -10.1918825055  2.72E-06
   192 Broy./Diag. 0.50E-01    3.0     0.01855103       -10.1918844850 -1.98E-06
   193 Broy./Diag. 0.50E-01    2.9     0.00002367       -10.1918854420 -9.57E-07
   194 Broy./Diag. 0.50E-01    3.0     0.00000857       -10.1918850846  3.57E-07
   195 Broy./Diag. 0.50E-01    3.0     0.01747107       -10.1918841006  9.84E-07
   196 Broy./Diag. 0.50E-01    3.0     0.01748179       -10.1918814674  2.63E-06
   197 Broy./Diag. 0.50E-01    3.0     0.01748188       -10.1918819474 -4.80E-07
   198 Broy./Diag. 0.50E-01    3.0     0.01748178       -10.1918814300  5.17E-07
   199 Broy./Diag. 0.50E-01    3.0     0.01748188       -10.1918814035  2.65E-08
   200 Broy./Diag. 0.50E-01    2.9     0.01748243       -10.1918813157  8.78E-08
   201 Broy./Diag. 0.50E-01    3.0     0.01748314       -10.1918811785  1.37E-07
   202 Broy./Diag. 0.50E-01    3.0     0.01748020       -10.1918823440 -1.17E-06
   203 Broy./Diag. 0.50E-01    2.9     0.01854631       -10.1918824966 -1.53E-07
   204 Broy./Diag. 0.50E-01    3.0     0.00000008       -10.1918831077 -6.11E-07
   205 Broy./Diag. 0.50E-01    3.0     0.01854685       -10.1918777171  5.39E-06
   206 Broy./Diag. 0.50E-01    3.0     0.01747684       -10.1918797066 -1.99E-06
   207 Broy./Diag. 0.50E-01    3.0     0.01746732       -10.1918825764 -2.87E-06
   208 Broy./Diag. 0.50E-01    3.0     0.00002523       -10.1918802128  2.36E-06
   209 Broy./Diag. 0.50E-01    3.0     0.01746841       -10.1918784388  1.77E-06
   210 Broy./Diag. 0.50E-01    3.0     0.01747958       -10.1918814952 -3.06E-06
   211 Broy./Diag. 0.50E-01    3.0     0.01747798       -10.1918818286 -3.33E-07
   212 Broy./Diag. 0.50E-01    3.0     0.01747799       -10.1918821397 -3.11E-07
   213 Broy./Diag. 0.50E-01    2.9     0.01854661       -10.1918819809  1.59E-07
   214 Broy./Diag. 0.50E-01    3.0     0.00003410       -10.1918789808  3.00E-06
   215 Broy./Diag. 0.50E-01    3.0     0.00000697       -10.1918776304  1.35E-06
   216 Broy./Diag. 0.50E-01    3.0     0.01746630       -10.1918771494  4.81E-07
   217 Broy./Diag. 0.50E-01    3.0     0.01747961       -10.1918812363 -4.09E-06
   218 Broy./Diag. 0.50E-01    3.0     0.01747646       -10.1918820276 -7.91E-07
   219 Broy./Diag. 0.50E-01    3.0     0.01747750       -10.1918830606 -1.03E-06
   220 Broy./Diag. 0.50E-01    3.0     0.01854866       -10.1918820740  9.87E-07
   221 Broy./Diag. 0.50E-01    3.0     0.01746676       -10.1918792521  2.82E-06
   222 Broy./Diag. 0.50E-01    3.0     0.01747873       -10.1918815745 -2.32E-06
   223 Broy./Diag. 0.50E-01    3.0     0.01854875       -10.1918819521 -3.78E-07
   224 Broy./Diag. 0.50E-01    3.0     0.00000533       -10.1918815206  4.31E-07
   225 Broy./Diag. 0.50E-01    3.0     0.01854120       -10.1918801444  1.38E-06
   226 Broy./Diag. 0.50E-01    3.0     0.01747793       -10.1918793952  7.49E-07
   227 Broy./Diag. 0.50E-01    3.0     0.01746796       -10.1918811681 -1.77E-06
   228 Broy./Diag. 0.50E-01    3.0     0.01854409       -10.1918805295  6.39E-07
   229 Broy./Diag. 0.50E-01    3.0     0.01747669       -10.1918803014  2.28E-07
   230 Broy./Diag. 0.50E-01    3.0     0.01746883       -10.1918812419 -9.41E-07
   231 Broy./Diag. 0.50E-01    3.0     0.01854486       -10.1918804649  7.77E-07
   232 Broy./Diag. 0.50E-01    3.0     0.01747567       -10.1918808577 -3.93E-07
   233 Broy./Diag. 0.50E-01    3.0     0.01747104       -10.1918814100 -5.52E-07
   234 Broy./Diag. 0.50E-01    3.0     0.01747238       -10.1918807410  6.69E-07
   235 Broy./Diag. 0.50E-01    3.0     0.01747475       -10.1918804355  3.05E-07
   236 Broy./Diag. 0.50E-01    2.9     0.01747417       -10.1918806265 -1.91E-07
   237 Broy./Diag. 0.50E-01    3.0     0.01747437       -10.1918808075 -1.81E-07
   238 Broy./Diag. 0.50E-01    3.0     0.01854634       -10.1918809049 -9.74E-08
   239 Broy./Diag. 0.50E-01    3.0     0.00000857       -10.1918807971  1.08E-07
   240 Broy./Diag. 0.50E-01    3.0     0.01746578       -10.1918778703  2.93E-06
   241 Broy./Diag. 0.50E-01    3.0     0.01747761       -10.1918796990 -1.83E-06
   242 Broy./Diag. 0.50E-01    3.0     0.01854712       -10.1918813653 -1.67E-06
   243 Broy./Diag. 0.50E-01    3.0     0.01746527       -10.1918783656  3.00E-06
   244 Broy./Diag. 0.50E-01    3.0     0.01747801       -10.1918808511 -2.49E-06
   245 Broy./Diag. 0.50E-01    2.9     0.01854753       -10.1918812268 -3.76E-07
   246 Broy./Diag. 0.50E-01    3.0     0.01746779       -10.1918784046  2.82E-06
   247 Broy./Diag. 0.50E-01    3.0     0.01747741       -10.1918809684 -2.56E-06
   248 Broy./Diag. 0.50E-01    2.9     0.01854720       -10.1918811570 -1.89E-07
   249 Broy./Diag. 0.50E-01    2.9     0.01854500       -10.1918798107  1.35E-06
   250 Broy./Diag. 0.50E-01    2.9     0.01747502       -10.1918784232  1.39E-06
   251 Broy./Diag. 0.50E-01    3.0     0.01746832       -10.1918798079 -1.38E-06
   252 Broy./Diag. 0.50E-01    3.0     0.01854519       -10.1918800252 -2.17E-07
   253 Broy./Diag. 0.50E-01    3.0     0.01747456       -10.1918789728  1.05E-06
   254 Broy./Diag. 0.50E-01    3.0     0.01746993       -10.1918799043 -9.31E-07
   255 Broy./Diag. 0.50E-01    3.0     0.01854490       -10.1918798270  7.73E-08
   256 Broy./Diag. 0.50E-01    3.0     0.01747395       -10.1918792452  5.82E-07
   257 Broy./Diag. 0.50E-01    3.0     0.01747149       -10.1918798133 -5.68E-07
   258 Broy./Diag. 0.50E-01    3.0     0.01854437       -10.1918794891  3.24E-07
   259 Broy./Diag. 0.50E-01    3.0     0.01747352       -10.1918792513  2.38E-07
   260 Broy./Diag. 0.50E-01    3.0     0.01747227       -10.1918796950 -4.44E-07
   261 Broy./Diag. 0.50E-01    3.0     0.01747217       -10.1918794041  2.91E-07
   262 Broy./Diag. 0.50E-01    3.0     0.01747379       -10.1918795033 -9.93E-08
   263 Broy./Diag. 0.50E-01    3.0     0.01854427       -10.1918797869 -2.84E-07
   264 Broy./Diag. 0.50E-01    3.0     0.00000906       -10.1918795493  2.38E-07
   265 Broy./Diag. 0.50E-01    3.0     0.01746850       -10.1918780002  1.55E-06
   266 Broy./Diag. 0.50E-01    3.0     0.01747707       -10.1918802148 -2.21E-06
   267 Broy./Diag. 0.50E-01    3.0     0.01854704       -10.1918817071 -1.49E-06
   268 Broy./Diag. 0.50E-01    2.9     0.01746572       -10.1918791635  2.54E-06
   269 Broy./Diag. 0.50E-01    3.0     0.01747680       -10.1918808554 -1.69E-06
   270 Broy./Diag. 0.50E-01    3.0     0.01854668       -10.1918809580 -1.03E-07
[...]
   322 Broy./Diag. 0.50E-01    3.0     0.01747838       -10.1918805769 -2.34E-06
   323 Broy./Diag. 0.50E-01    3.0     0.01854754       -10.1918815075 -9.31E-07
   324 Broy./Diag. 0.50E-01    3.0     0.01746457       -10.1918789070  2.60E-06
   325 Broy./Diag. 0.50E-01    3.0     0.01746180       -10.1918809921 -2.09E-06
   326 Broy./Diag. 0.50E-01    3.0     0.01854697       -10.1918817081 -7.16E-07
   327 Broy./Diag. 0.50E-01    3.0     0.00004471       -10.1918802829  1.43E-06
   328 Broy./Diag. 0.50E-01    3.0     0.01747490       -10.1918789087  1.37E-06
   329 Broy./Diag. 0.50E-01    3.0     0.01747755       -10.1918813291 -2.42E-06
   330 Broy./Diag. 0.50E-01    3.0     0.01854680       -10.1918810125  3.17E-07
   331 Broy./Diag. 0.50E-01    3.0     0.01746491       -10.1918781473  2.87E-06
   332 Broy./Diag. 0.50E-01    3.0     0.01747871       -10.1918806139 -2.47E-06
   333 Broy./Diag. 0.50E-01    3.0     0.01854622       -10.1918807195 -1.06E-07
   334 Broy./Diag. 0.50E-01    3.0     0.01746417       -10.1918777617  2.96E-06
   335 Broy./Diag. 0.50E-01    3.0     0.01747970       -10.1918807713 -3.01E-06
   336 Broy./Diag. 0.50E-01    3.0     0.00005715       -10.1918811091 -3.38E-07
   337 Broy./Diag. 0.50E-01    3.0     0.01747486       -10.1918795195  1.59E-06
   338 Broy./Diag. 0.50E-01    3.0     0.01747789       -10.1918821380 -2.62E-06
   339 Broy./Diag. 0.50E-01    3.0     0.00005466       -10.1918820440  9.39E-08
   340 Broy./Diag. 0.50E-01    2.9     0.00002249       -10.1918807924  1.25E-06
   341 Broy./Diag. 0.50E-01    3.0     0.01854502       -10.1918803127  4.80E-07
   342 Broy./Diag. 0.50E-01    3.0     0.01745849       -10.1918765753  3.74E-06
   343 Broy./Diag. 0.50E-01    3.0     0.01748323       -10.1918811275 -4.55E-06
   344 Broy./Diag. 0.50E-01    3.0     0.00009214       -10.1918815789 -4.51E-07
   345 Broy./Diag. 0.50E-01    2.9     0.01854480       -10.1918801973  1.38E-06
   346 Broy./Diag. 0.50E-01    3.0     0.01745966       -10.1918767625  3.43E-06
   347 Broy./Diag. 0.50E-01    3.0     0.01748387       -10.1918818608 -5.10E-06
   348 Broy./Diag. 0.50E-01    3.0     0.01854808       -10.1918814340  4.27E-07
   349 Broy./Diag. 0.50E-01    3.0     0.01746459       -10.1918777912  3.64E-06
   350 Broy./Diag. 0.50E-01    3.0     0.01748013       -10.1918810126 -3.22E-06
   351 Broy./Diag. 0.50E-01    3.0     0.01747671       -10.1918807099  3.03E-07
   352 Broy./Diag. 0.50E-01    3.0     0.01747791       -10.1918827152 -2.01E-06
   353 Broy./Diag. 0.50E-01    3.0     0.00007919       -10.1918820343  6.81E-07
   354 Broy./Diag. 0.50E-01    3.0     0.01854553       -10.1918806201  1.41E-06
   355 Broy./Diag. 0.50E-01    3.0     0.01746263       -10.1918778003  2.82E-06
   356 Broy./Diag. 0.50E-01    3.0     0.01748024       -10.1918808378 -3.04E-06
   357 Broy./Diag. 0.50E-01    3.0     0.00004442       -10.1918816525 -8.15E-07
   358 Broy./Diag. 0.50E-01    3.0     0.01854551       -10.1918806395  1.01E-06
   359 Broy./Diag. 0.50E-01    3.0     0.01746039       -10.1918773137  3.33E-06
   360 Broy./Diag. 0.50E-01    3.0     0.01748210       -10.1918812330 -3.92E-06
   361 Broy./Diag. 0.50E-01    3.0     0.01747743       -10.1918809868  2.46E-07
   362 Broy./Diag. 0.50E-01    3.0     0.01747769       -10.1918825793 -1.59E-06
   363 Broy./Diag. 0.50E-01    3.0     0.00006780       -10.1918821338  4.46E-07
   364 Broy./Diag. 0.50E-01    3.0     0.01854573       -10.1918806572  1.48E-06
   365 Broy./Diag. 0.50E-01    3.0     0.01746029       -10.1918772446  3.41E-06
   366 Broy./Diag. 0.50E-01    3.0     0.01748092       -10.1918803159 -3.07E-06
   367 Broy./Diag. 0.50E-01    3.0     0.00004350       -10.1918813299 -1.01E-06
   368 Broy./Diag. 0.50E-01    3.0     0.01854517       -10.1918804490  8.81E-07
   369 Broy./Diag. 0.50E-01    3.0     0.01746042       -10.1918772672  3.18E-06
   370 Broy./Diag. 0.50E-01    3.0     0.01748232       -10.1918812376 -3.97E-06
   371 Broy./Diag. 0.50E-01    3.0     0.01747759       -10.1918809723  2.65E-07
   372 Broy./Diag. 0.50E-01    3.0     0.01747787       -10.1918825911 -1.62E-06
   373 Broy./Diag. 0.50E-01    3.0     0.00007075       -10.1918821342  4.57E-07
   374 Broy./Diag. 0.50E-01    3.0     0.01854571       -10.1918806377  1.50E-06
   375 Broy./Diag. 0.50E-01    3.0     0.01746017       -10.1918772744  3.36E-06
   376 Broy./Diag. 0.50E-01    3.0     0.01748099       -10.1918803069 -3.03E-06
   377 Broy./Diag. 0.50E-01    2.9     0.00004401       -10.1918813144 -1.01E-06
   378 Broy./Diag. 0.50E-01    3.0     0.01854515       -10.1918804418  8.73E-07
   379 Broy./Diag. 0.50E-01    3.0     0.01746031       -10.1918773044  3.14E-06
   380 Broy./Diag. 0.50E-01    3.0     0.01748242       -10.1918812318 -3.93E-06
   381 Broy./Diag. 0.50E-01    3.0     0.01747764       -10.1918809779  2.54E-07
   382 Broy./Diag. 0.50E-01    3.0     0.01747792       -10.1918825750 -1.60E-06
   383 Broy./Diag. 0.50E-01    3.0     0.00007153       -10.1918821275  4.48E-07
   384 Broy./Diag. 0.50E-01    3.0     0.01854571       -10.1918806418  1.49E-06
   385 Broy./Diag. 0.50E-01    3.0     0.01746004       -10.1918773170  3.32E-06
   386 Broy./Diag. 0.50E-01    3.0     0.01748106       -10.1918803050 -2.99E-06
   387 Broy./Diag. 0.50E-01    3.0     0.00004443       -10.1918813072 -1.00E-06
   388 Broy./Diag. 0.50E-01    3.0     0.01854513       -10.1918804437  8.63E-07
   389 Broy./Diag. 0.50E-01    3.0     0.01746019       -10.1918773464  3.10E-06
   390 Broy./Diag. 0.50E-01    3.0     0.01748251       -10.1918812249 -3.88E-06
   391 Broy./Diag. 0.50E-01    3.0     0.01747769       -10.1918809821  2.43E-07
   392 Broy./Diag. 0.50E-01    3.0     0.01747797       -10.1918825588 -1.58E-06
   393 Broy./Diag. 0.50E-01    3.0     0.00007232       -10.1918821203  4.39E-07
   394 Broy./Diag. 0.50E-01    3.0     0.01854571       -10.1918806459  1.47E-06
   395 Broy./Diag. 0.50E-01    2.9     0.01745991       -10.1918773603  3.29E-06
   396 Broy./Diag. 0.50E-01    3.0     0.01748112       -10.1918803039 -2.94E-06
   397 Broy./Diag. 0.50E-01    3.0     0.00004486       -10.1918813006 -9.97E-07
   398 Broy./Diag. 0.50E-01    3.0     0.01854512       -10.1918804464  8.54E-07
   399 Broy./Diag. 0.50E-01    2.9     0.01746007       -10.1918773895  3.06E-06
   400 Broy./Diag. 0.50E-01    2.9     0.01748260       -10.1918812181 -3.83E-06
   401 Broy./Diag. 0.50E-01    3.0     0.01747773       -10.1918809867  2.31E-07
   402 Broy./Diag. 0.50E-01    3.0     0.01747802       -10.1918825422 -1.56E-06
   403 Broy./Diag. 0.50E-01    3.0     0.00007307       -10.1918821126  4.30E-07
   404 Broy./Diag. 0.50E-01    3.0     0.01854572       -10.1918806499  1.46E-06
   405 Broy./Diag. 0.50E-01    3.0     0.01745979       -10.1918774042  3.25E-06
   406 Broy./Diag. 0.50E-01    3.0     0.01748119       -10.1918803032 -2.90E-06
   407 Broy./Diag. 0.50E-01    3.0     0.00004527       -10.1918812941 -9.91E-07
   408 Broy./Diag. 0.50E-01    3.0     0.01854511       -10.1918804493  8.45E-07
   409 Broy./Diag. 0.50E-01    3.0     0.01745996       -10.1918774332  3.02E-06
   410 Broy./Diag. 0.50E-01    3.0     0.01748268       -10.1918812111 -3.78E-06
   411 Broy./Diag. 0.50E-01    3.0     0.01747777       -10.1918809909  2.20E-07
   412 Broy./Diag. 0.50E-01    3.0     0.01747806       -10.1918825248 -1.53E-06
   413 Broy./Diag. 0.50E-01    2.9     0.00007380       -10.1918821042  4.21E-07
   414 Broy./Diag. 0.50E-01    3.0     0.01854572       -10.1918806537  1.45E-06
   415 Broy./Diag. 0.50E-01    3.0     0.01745968       -10.1918774484  3.21E-06
   416 Broy./Diag. 0.50E-01    2.9     0.01748125       -10.1918803025 -2.85E-06
   417 Broy./Diag. 0.50E-01    2.9     0.00004567       -10.1918812874 -9.85E-07
   418 Broy./Diag. 0.50E-01    3.0     0.01854510       -10.1918804521  8.35E-07
   419 Broy./Diag. 0.50E-01    3.0     0.01745986       -10.1918774770  2.98E-06
   420 Broy./Diag. 0.50E-01    3.0     0.01748277       -10.1918812035 -3.73E-06
   421 Broy./Diag. 0.50E-01    3.0     0.01747781       -10.1918809947  2.09E-07
   422 Broy./Diag. 0.50E-01    3.0     0.01747811       -10.1918825066 -1.51E-06
   423 Broy./Diag. 0.50E-01    2.9     0.00007450       -10.1918820949  4.12E-07
   424 Broy./Diag. 0.50E-01    2.9     0.01854572       -10.1918806571  1.44E-06
   425 Broy./Diag. 0.50E-01    3.0     0.01745957       -10.1918774925  3.16E-06
   426 Broy./Diag. 0.50E-01    3.0     0.01748131       -10.1918803017 -2.81E-06
   427 Broy./Diag. 0.50E-01    3.0     0.00004606       -10.1918812803 -9.79E-07
   428 Broy./Diag. 0.50E-01    2.9     0.01854510       -10.1918804546  8.26E-07
   429 Broy./Diag. 0.50E-01    3.0     0.01745976       -10.1918775206  2.93E-06
   430 Broy./Diag. 0.50E-01    3.0     0.01748284       -10.1918811953 -3.67E-06
   431 Broy./Diag. 0.50E-01    3.0     0.01747785       -10.1918809976  1.98E-07
   432 Broy./Diag. 0.50E-01    3.0     0.01747815       -10.1918824874 -1.49E-06
   433 Broy./Diag. 0.50E-01    3.0     0.00007518       -10.1918820846  4.03E-07
   434 Broy./Diag. 0.50E-01    3.0     0.01854573       -10.1918806599  1.42E-06
   435 Broy./Diag. 0.50E-01    2.9     0.01745947       -10.1918775363  3.12E-06
   436 Broy./Diag. 0.50E-01    3.0     0.01748136       -10.1918803005 -2.76E-06
   437 Broy./Diag. 0.50E-01    3.0     0.00004643       -10.1918812728 -9.72E-07
   438 Broy./Diag. 0.50E-01    3.0     0.01854509       -10.1918804566  8.16E-07
   439 Broy./Diag. 0.50E-01    3.0     0.01745966       -10.1918775637  2.89E-06
   440 Broy./Diag. 0.50E-01    3.0     0.01748292       -10.1918811863 -3.62E-06
   441 Broy./Diag. 0.50E-01    3.0     0.01747788       -10.1918809998  1.87E-07
   442 Broy./Diag. 0.50E-01    3.0     0.01747819       -10.1918824673 -1.47E-06
   443 Broy./Diag. 0.50E-01    3.0     0.00007584       -10.1918820733  3.94E-07
   444 Broy./Diag. 0.50E-01    3.0     0.01854573       -10.1918806620  1.41E-06
   445 Broy./Diag. 0.50E-01    3.0     0.01745937       -10.1918775795  3.08E-06
   446 Broy./Diag. 0.50E-01    3.0     0.01748142       -10.1918802990 -2.72E-06
   447 Broy./Diag. 0.50E-01    3.0     0.00004679       -10.1918812648 -9.66E-07
   448 Broy./Diag. 0.50E-01    2.9     0.01854508       -10.1918804582  8.07E-07
   449 Broy./Diag. 0.50E-01    3.0     0.01745957       -10.1918776064  2.85E-06
   450 Broy./Diag. 0.50E-01    2.9     0.01748299       -10.1918811766 -3.57E-06
   451 Broy./Diag. 0.50E-01    3.0     0.01747792       -10.1918810012  1.75E-07
   452 Broy./Diag. 0.50E-01    2.9     0.01747823       -10.1918824462 -1.45E-06
   453 Broy./Diag. 0.50E-01    3.0     0.00007647       -10.1918820610  3.85E-07
   454 Broy./Diag. 0.50E-01    3.0     0.01854574       -10.1918806636  1.40E-06
   455 Broy./Diag. 0.50E-01    3.0     0.01745927       -10.1918776222  3.04E-06
   456 Broy./Diag. 0.50E-01    3.0     0.01748147       -10.1918802972 -2.67E-06
   457 Broy./Diag. 0.50E-01    3.0     0.00004713       -10.1918812562 -9.59E-07
   458 Broy./Diag. 0.50E-01    3.0     0.01854508       -10.1918804593  7.97E-07
   459 Broy./Diag. 0.50E-01    3.0     0.01745948       -10.1918776485  2.81E-06
   460 Broy./Diag. 0.50E-01    3.0     0.01748306       -10.1918811663 -3.52E-06
   461 Broy./Diag. 0.50E-01    3.0     0.01747795       -10.1918810017  1.65E-07
   462 Broy./Diag. 0.50E-01    3.0     0.01747826       -10.1918824243 -1.42E-06
   463 Broy./Diag. 0.50E-01    2.9     0.00007708       -10.1918820478  3.77E-07
   464 Broy./Diag. 0.50E-01    3.0     0.01854574       -10.1918806645  1.38E-06
   465 Broy./Diag. 0.50E-01    3.0     0.01745918       -10.1918776644  3.00E-06
   466 Broy./Diag. 0.50E-01    3.0     0.01748152       -10.1918802949 -2.63E-06
   467 Broy./Diag. 0.50E-01    3.0     0.00004747       -10.1918812472 -9.52E-07
   468 Broy./Diag. 0.50E-01    3.0     0.01854507       -10.1918804600  7.87E-07
   469 Broy./Diag. 0.50E-01    3.0     0.01745940       -10.1918776900  2.77E-06
   470 Broy./Diag. 0.50E-01    2.9     0.01748312       -10.1918811553 -3.47E-06
   471 Broy./Diag. 0.50E-01    3.0     0.01747798       -10.1918810015  1.54E-07
   472 Broy./Diag. 0.50E-01    3.0     0.01747830       -10.1918824016 -1.40E-06
   473 Broy./Diag. 0.50E-01    3.0     0.00007766       -10.1918820338  3.68E-07
   474 Broy./Diag. 0.50E-01    2.9     0.01854575       -10.1918806648  1.37E-06
   475 Broy./Diag. 0.50E-01    3.0     0.01745909       -10.1918777059  2.96E-06
   476 Broy./Diag. 0.50E-01    3.0     0.01748157       -10.1918802924 -2.59E-06
   477 Broy./Diag. 0.50E-01    3.0     0.00004779       -10.1918812378 -9.45E-07
   478 Broy./Diag. 0.50E-01    3.0     0.01854507       -10.1918804603  7.77E-07
   479 Broy./Diag. 0.50E-01    3.0     0.01745932       -10.1918777310  2.73E-06
   480 Broy./Diag. 0.50E-01    3.0     0.01748319       -10.1918811437 -3.41E-06
   481 Broy./Diag. 0.50E-01    3.0     0.01747802       -10.1918810006  1.43E-07
   482 Broy./Diag. 0.50E-01    3.0     0.01747833       -10.1918823783 -1.38E-06
   483 Broy./Diag. 0.50E-01    3.0     0.00007823       -10.1918820190  3.59E-07
   484 Broy./Diag. 0.50E-01    3.0     0.01854575       -10.1918806646  1.35E-06
   485 Broy./Diag. 0.50E-01    3.0     0.01745901       -10.1918777469  2.92E-06
   486 Broy./Diag. 0.50E-01    3.0     0.01748161       -10.1918802896 -2.54E-06
   487 Broy./Diag. 0.50E-01    3.0     0.00004810       -10.1918812280 -9.38E-07
   488 Broy./Diag. 0.50E-01    3.0     0.01854506       -10.1918804602  7.68E-07
   489 Broy./Diag. 0.50E-01    3.0     0.01745924       -10.1918777714  2.69E-06
   490 Broy./Diag. 0.50E-01    3.0     0.01748325       -10.1918811317 -3.36E-06
   491 Broy./Diag. 0.50E-01    3.0     0.01747805       -10.1918809991  1.33E-07
   492 Broy./Diag. 0.50E-01    3.0     0.01747837       -10.1918823543 -1.36E-06
   493 Broy./Diag. 0.50E-01    3.0     0.00007877       -10.1918820035  3.51E-07
   494 Broy./Diag. 0.50E-01    3.0     0.01854576       -10.1918806640  1.34E-06
   495 Broy./Diag. 0.50E-01    3.0     0.01745893       -10.1918777874  2.88E-06
   496 Broy./Diag. 0.50E-01    3.0     0.01748166       -10.1918802866 -2.50E-06
   497 Broy./Diag. 0.50E-01    3.0     0.00004840       -10.1918812179 -9.31E-07
   498 Broy./Diag. 0.50E-01    3.0     0.01854506       -10.1918804599  7.58E-07
   499 Broy./Diag. 0.50E-01    3.0     0.01745916       -10.1918778113  2.65E-06
   500 Broy./Diag. 0.50E-01    3.0     0.01748331       -10.1918811193 -3.31E-06

  Leaving inner SCF loop after reaching   500 steps.


  Electronic density on regular grids:         -6.0000000000        0.0000000000
  Core density on regular grids:                6.0000000000        0.0000000000
  Total charge density on r-space grids:        0.0000000000
  Total charge density g-space grids:           0.0000000000

  Overlap energy of the core charge distribution:               0.00000000000000
  Self energy of the core charge distribution:                -24.17955358061813
  Core Hamiltonian energy:                                      5.31689668272403
  Hartree energy:                                              10.89599042294042
  Exchange-correlation energy:                                 -2.22521464431576

  Total energy:                                               -10.19188111926944

 *******************************************************************************
 *   ___                                                                       *
 *  /   \                                                                      *
 * [ABORT]                                                                     *
 *  \___/     SCF run NOT converged. To continue the calculation regardless,   *
 *    |             please set the keyword IGNORE_CONVERGENCE_FAILURE.         *
 *  O/|                                                                        *
 * /| |                                                                        *
 * / \                                                            qs_scf.F:621 *
 *******************************************************************************


 ===== Routine Calling Stack ===== 

            3 scf_env_do_scf
            2 qs_energies
            1 CP2K

 *******************************************************************************
 *   ___                                                                       *
 *  /   \                                                                      *
 * [ABORT]                                                                     *
 *  \___/     SCF run NOT converged. To continue the calculation regardless,   *
 *    |             please set the keyword IGNORE_CONVERGENCE_FAILURE.         *
 *  O/|                                                                        *
 * /| |                                                                        *
 * / \                                                            qs_scf.F:621 *
 *******************************************************************************


 ===== Routine Calling Stack ===== 

            3 scf_env_do_scf
            2 qs_energies
            1 CP2K

 *******************************************************************************
 *   ___                                                                       *
 *  /   \                                                                      *
 * [ABORT]                                                                     *
 *  \___/     SCF run NOT converged. To continue the calculation regardless,   *
 *    |             please set the keyword IGNORE_CONVERGENCE_FAILURE.         *
 *  O/|                                                                        *
 * /| |                                                                        *
 * / \                                                            qs_scf.F:621 *
 *******************************************************************************


 ===== Routine Calling Stack ===== 

            3 scf_env_do_scf
            2 qs_energies
            1 CP2K

 *******************************************************************************
 *   ___                                                                       *
 *  /   \                                                                      *
 * [ABORT]                                                                     *
 *  \___/     SCF run NOT converged. To continue the calculation regardless,   *
 *    |             please set the keyword IGNORE_CONVERGENCE_FAILURE.         *
 *  O/|                                                                        *
 * /| |                                                                        *
 * / \                                                            qs_scf.F:621 *
 *******************************************************************************


 ===== Routine Calling Stack ===== 

            3 scf_env_do_scf
            2 qs_energies
            1 CP2K

 *******************************************************************************
 *   ___                                                                       *
 *  /   \                                                                      *
 * [ABORT]                                                                     *
 *  \___/     SCF run NOT converged. To continue the calculation regardless,   *
 *    |             please set the keyword IGNORE_CONVERGENCE_FAILURE.         *
 *  O/|                                                                        *
 * /| |                                                                        *
 * / \                                                            qs_scf.F:621 *
 *******************************************************************************


 ===== Routine Calling Stack ===== 

            3 scf_env_do_scf
            2 qs_energies
            1 CP2K
