<?xml version="1.0" encoding="ISO-8859-1"?>
<modeling>
 <generator>
  <i name="program" type="string">vasp </i>
  <i name="version" type="string">6.4.3  </i>
  <i name="subversion" type="string">19Mar24 (build Jun 26 2024 13:02:28) complex                          parallel </i>
  <i name="platform" type="string">LinuxIFC </i>
  <i name="date" type="string">2025 08 08 </i>
  <i name="time" type="string">18:49:27 </i>
 </generator>
 <incar>
  <i type="string" name="SYSTEM">Mn</i>
  <i type="int" name="ISPIN">     2</i>
  <i type="int" name="IBRION">    -1</i>
  <i type="int" name="ISYM">     2</i>
  <i name="ENCUT">    350.82320000</i>
  <v name="MAGMOM">      3.00000000     -3.00000000      3.00000000     -3.00000000</v>
  <i type="int" name="ISMEAR">     0</i>
  <i name="SIGMA">      0.05000000</i>
  <i type="logical" name="LWAVE"> T  </i>
  <i type="logical" name="LCHARG"> T  </i>
 </incar>
 <primitive_cell>
  <structure name="primitive_cell" >
   <crystal>
    <varray name="basis" >
     <v>       1.79776000      -1.79776000       0.00000000 </v>
     <v>       1.79776000       0.00000000       1.79776000 </v>
     <v>      -0.00000000      -1.79776000       1.79776000 </v>
    </varray>
    <i name="volume">     11.62050857 </i>
    <varray name="rec_basis" >
     <v>       0.27812389      -0.27812389      -0.27812389 </v>
     <v>       0.27812389       0.27812389       0.27812389 </v>
     <v>      -0.27812389      -0.27812389       0.27812389 </v>
    </varray>
   </crystal>
   <varray name="positions" >
    <v>       0.00000000       0.00000000       0.00000000 </v>
   </varray>
  </structure>
  <varray name="primitive_index" >
   <v type="int" >        1 </v>
  </varray>
 </primitive_cell>
 <kpoints>
  <generation param="Gamma">
   <v type="int" name="divisions">       8        8        8 </v>
   <v name="usershift">      0.00000000       0.00000000       0.00000000 </v>
   <v name="genvec1">      0.12500000       0.00000000       0.00000000 </v>
   <v name="genvec2">      0.00000000       0.12500000       0.00000000 </v>
   <v name="genvec3">      0.00000000      -0.00000000       0.12500000 </v>
   <v name="shift">      0.00000000       0.00000000       0.00000000 </v>
  </generation>
  <varray name="kpointlist" >
   <v>       0.00000000       0.00000000       0.00000000 </v>
   <v>       0.12500000       0.00000000       0.00000000 </v>
   <v>       0.00000000       0.12500000       0.00000000 </v>
   <v>       0.25000000       0.00000000       0.00000000 </v>
   <v>       0.00000000       0.25000000       0.00000000 </v>
   <v>       0.37500000       0.00000000       0.00000000 </v>
   <v>       0.00000000       0.37500000       0.00000000 </v>
   <v>       0.50000000       0.00000000       0.00000000 </v>
   <v>       0.00000000       0.50000000       0.00000000 </v>
   <v>       0.12500000       0.12500000       0.00000000 </v>
   <v>       0.12500000       0.00000000       0.12500000 </v>
   <v>       0.25000000       0.12500000       0.00000000 </v>
   <v>      -0.00000000       0.25000000       0.12500000 </v>
   <v>       0.12500000      -0.00000000       0.25000000 </v>
   <v>       0.37500000       0.12500000       0.00000000 </v>
   <v>      -0.00000000       0.37500000       0.12500000 </v>
   <v>       0.12500000      -0.00000000       0.37500000 </v>
   <v>       0.50000000       0.12500000       0.00000000 </v>
   <v>      -0.00000000       0.50000000       0.12500000 </v>
   <v>       0.12500000      -0.00000000       0.50000000 </v>
   <v>       0.25000000       0.25000000       0.00000000 </v>
   <v>       0.25000000       0.00000000       0.25000000 </v>
   <v>       0.37500000       0.25000000       0.00000000 </v>
   <v>      -0.00000000       0.37500000       0.25000000 </v>
   <v>       0.25000000       0.00000000       0.37500000 </v>
   <v>       0.50000000       0.25000000       0.00000000 </v>
   <v>      -0.00000000       0.50000000       0.25000000 </v>
   <v>       0.25000000      -0.00000000       0.50000000 </v>
   <v>       0.37500000       0.37500000       0.00000000 </v>
   <v>       0.37500000       0.00000000       0.37500000 </v>
   <v>       0.50000000       0.37500000       0.00000000 </v>
   <v>      -0.00000000       0.50000000       0.37500000 </v>
   <v>       0.37500000      -0.00000000       0.50000000 </v>
   <v>       0.50000000       0.50000000       0.00000000 </v>
   <v>       0.50000000       0.00000000       0.50000000 </v>
   <v>       0.12500000       0.12500000       0.12500000 </v>
   <v>       0.25000000       0.12500000       0.12500000 </v>
   <v>       0.12500000       0.25000000       0.12500000 </v>
   <v>       0.37500000       0.12500000       0.12500000 </v>
   <v>       0.12500000       0.37500000       0.12500000 </v>
   <v>       0.50000000       0.12500000       0.12500000 </v>
   <v>       0.12500000       0.50000000       0.12500000 </v>
   <v>       0.25000000       0.25000000       0.12500000 </v>
   <v>       0.25000000       0.12500000       0.25000000 </v>
   <v>       0.37500000       0.25000000       0.12500000 </v>
   <v>       0.12500000       0.37500000       0.25000000 </v>
   <v>       0.25000000       0.12500000       0.37500000 </v>
   <v>       0.50000000       0.25000000       0.12500000 </v>
   <v>       0.12500000       0.50000000       0.25000000 </v>
   <v>       0.25000000       0.12500000       0.50000000 </v>
   <v>       0.37500000       0.37500000       0.12500000 </v>
   <v>       0.37500000       0.12500000       0.37500000 </v>
   <v>       0.50000000       0.37500000       0.12500000 </v>
   <v>       0.12500000       0.50000000       0.37500000 </v>
   <v>       0.37500000       0.12500000       0.50000000 </v>
   <v>       0.50000000       0.50000000       0.12500000 </v>
   <v>       0.50000000       0.12500000       0.50000000 </v>
   <v>       0.25000000       0.25000000       0.25000000 </v>
   <v>       0.37500000       0.25000000       0.25000000 </v>
   <v>       0.25000000       0.37500000       0.25000000 </v>
   <v>       0.50000000       0.25000000       0.25000000 </v>
   <v>       0.25000000       0.50000000       0.25000000 </v>
   <v>       0.37500000       0.37500000       0.25000000 </v>
   <v>       0.37500000       0.25000000       0.37500000 </v>
   <v>       0.50000000       0.37500000       0.25000000 </v>
   <v>       0.25000000       0.50000000       0.37500000 </v>
   <v>       0.37500000       0.25000000       0.50000000 </v>
   <v>       0.50000000       0.50000000       0.25000000 </v>
   <v>       0.50000000       0.25000000       0.50000000 </v>
   <v>       0.37500000       0.37500000       0.37500000 </v>
   <v>       0.50000000       0.37500000       0.37500000 </v>
   <v>       0.37500000       0.50000000       0.37500000 </v>
   <v>       0.50000000       0.50000000       0.37500000 </v>
   <v>       0.50000000       0.37500000       0.50000000 </v>
   <v>       0.50000000       0.50000000       0.50000000 </v>
  </varray>
  <varray name="weights" >
   <v>       0.00195312 </v>
   <v>       0.00781250 </v>
   <v>       0.00390625 </v>
   <v>       0.00781250 </v>
   <v>       0.00390625 </v>
   <v>       0.00781250 </v>
   <v>       0.00390625 </v>
   <v>       0.00390625 </v>
   <v>       0.00195312 </v>
   <v>       0.01562500 </v>
   <v>       0.00781250 </v>
   <v>       0.01562500 </v>
   <v>       0.01562500 </v>
   <v>       0.01562500 </v>
   <v>       0.01562500 </v>
   <v>       0.01562500 </v>
   <v>       0.01562500 </v>
   <v>       0.00781250 </v>
   <v>       0.00781250 </v>
   <v>       0.00781250 </v>
   <v>       0.01562500 </v>
   <v>       0.00781250 </v>
   <v>       0.01562500 </v>
   <v>       0.01562500 </v>
   <v>       0.01562500 </v>
   <v>       0.00781250 </v>
   <v>       0.00781250 </v>
   <v>       0.00781250 </v>
   <v>       0.01562500 </v>
   <v>       0.00781250 </v>
   <v>       0.00781250 </v>
   <v>       0.00781250 </v>
   <v>       0.00781250 </v>
   <v>       0.00390625 </v>
   <v>       0.00195312 </v>
   <v>       0.01562500 </v>
   <v>       0.03125000 </v>
   <v>       0.01562500 </v>
   <v>       0.03125000 </v>
   <v>       0.01562500 </v>
   <v>       0.01562500 </v>
   <v>       0.00781250 </v>
   <v>       0.03125000 </v>
   <v>       0.01562500 </v>
   <v>       0.03125000 </v>
   <v>       0.03125000 </v>
   <v>       0.03125000 </v>
   <v>       0.01562500 </v>
   <v>       0.01562500 </v>
   <v>       0.01562500 </v>
   <v>       0.03125000 </v>
   <v>       0.01562500 </v>
   <v>       0.01562500 </v>
   <v>       0.01562500 </v>
   <v>       0.01562500 </v>
   <v>       0.00781250 </v>
   <v>       0.00390625 </v>
   <v>       0.01562500 </v>
   <v>       0.03125000 </v>
   <v>       0.01562500 </v>
   <v>       0.01562500 </v>
   <v>       0.00781250 </v>
   <v>       0.03125000 </v>
   <v>       0.01562500 </v>
   <v>       0.01562500 </v>
   <v>       0.01562500 </v>
   <v>       0.01562500 </v>
   <v>       0.00781250 </v>
   <v>       0.00390625 </v>
   <v>       0.01562500 </v>
   <v>       0.01562500 </v>
   <v>       0.00781250 </v>
   <v>       0.00781250 </v>
   <v>       0.00390625 </v>
   <v>       0.00195312 </v>
  </varray>
 </kpoints>
 <parameters>
  <separator name="general" >
   <i type="string" name="SYSTEM">Mn</i>
   <i type="logical" name="LCOMPAT"> F  </i>
  </separator>
  <separator name="electronic" >
   <i type="string" name="PREC">normal</i>
   <i name="ENMAX">    350.82320000</i>
   <i name="ENAUG">    569.08500000</i>
   <i name="EDIFF">      0.00010000</i>
   <i type="int" name="IALGO">    38</i>
   <i type="int" name="IWAVPR">    10</i>
   <i type="int" name="NBANDS">    48</i>
   <i type="int" name="NBANDSLOW">    -1</i>
   <i type="int" name="NBANDSHIGH">    -1</i>
   <i name="NELECT">     52.00000000</i>
   <i type="int" name="TURBO">     0</i>
   <i type="int" name="IRESTART">     0</i>
   <i type="int" name="NREBOOT">     0</i>
   <i type="int" name="NMIN">     0</i>
   <i name="EREF">      0.00000000</i>
   <separator name="electronic smearing" >
    <i type="int" name="ISMEAR">     0</i>
    <i name="SIGMA">      0.05000000</i>
    <i name="KSPACING">      0.50000000</i>
    <i type="logical" name="KGAMMA"> T  </i>
    <i type="logical" name="KBLOWUP"> T  </i>
   </separator>
   <separator name="electronic projectors" >
    <i type="logical" name="LREAL"> F  </i>
    <v name="ROPT">      0.00000000</v>
    <i type="int" name="LMAXPAW">  -100</i>
    <i type="int" name="LMAXMIX">     2</i>
    <i type="logical" name="NLSPLINE"> F  </i>
   </separator>
   <separator name="electronic startup" >
    <i type="int" name="ISTART">     1</i>
    <i type="int" name="ICHARG">     0</i>
    <i type="int" name="INIWAV">     1</i>
   </separator>
   <separator name="electronic spin" >
    <i type="int" name="ISPIN">     2</i>
    <i type="logical" name="LNONCOLLINEAR"> F  </i>
    <v name="MAGMOM">      3.00000000     -3.00000000      3.00000000     -3.00000000</v>
    <i name="NUPDOWN">     -1.00000000</i>
    <i type="logical" name="LSORBIT"> F  </i>
    <v name="SAXIS">      0.00000000      0.00000000      1.00000000</v>
    <i type="logical" name="LSPIRAL"> F  </i>
    <v name="QSPIRAL">      0.00000000      0.00000000      0.00000000</v>
    <i type="logical" name="LZEROZ"> F  </i>
   </separator>
   <separator name="electronic exchange-correlation" >
    <i type="logical" name="LASPH"> F  </i>
   </separator>
   <separator name="electronic convergence" >
    <i type="int" name="NELM">    60</i>
    <i type="int" name="NELMDL">     0</i>
    <i type="int" name="NELMIN">     2</i>
    <i name="ENINI">    350.82320000</i>
    <separator name="electronic convergence detail" >
     <i type="logical" name="LDIAG"> T  </i>
     <i type="logical" name="LSUBROT"> F  </i>
     <i name="WEIMIN">      0.00000000</i>
     <i name="EBREAK">      0.00000052</i>
     <i name="DEPER">      0.30000000</i>
     <i type="int" name="NRMM">     4</i>
     <i name="TIME">      0.40000000</i>
    </separator>
   </separator>
   <separator name="electronic mixer" >
    <i name="AMIX">      0.40000000</i>
    <i name="BMIX">      1.00000000</i>
    <i name="AMIN">      0.10000000</i>
    <i name="AMIX_MAG">      1.60000000</i>
    <i name="BMIX_MAG">      1.00000000</i>
    <separator name="electronic mixer details" >
     <i type="int" name="IMIX">     4</i>
     <i type="logical" name="MIXFIRST"> F  </i>
     <i type="int" name="MAXMIX">   -45</i>
     <i name="WC">    100.00000000</i>
     <i type="int" name="INIMIX">     1</i>
     <i type="int" name="MIXPRE">     1</i>
     <i type="int" name="MREMOVE">     5</i>
    </separator>
   </separator>
   <separator name="electronic dipolcorrection" >
    <i type="logical" name="LDIPOL"> F  </i>
    <i type="logical" name="LMONO"> F  </i>
    <i type="int" name="IDIPOL">     0</i>
    <i name="EPSILON">      1.00000000</i>
    <v name="DIPOL">   -100.00000000   -100.00000000   -100.00000000</v>
    <i name="EFIELD">      0.00000000</i>
    <i type="logical" name="LVACPOTAV"> F  </i>
   </separator>
  </separator>
  <separator name="grids" >
   <i type="int" name="NGX">    16</i>
   <i type="int" name="NGY">    16</i>
   <i type="int" name="NGZ">    16</i>
   <i type="int" name="NGXF">    32</i>
   <i type="int" name="NGYF">    32</i>
   <i type="int" name="NGZF">    32</i>
   <i type="logical" name="ADDGRID"> F  </i>
  </separator>
  <separator name="ionic" >
   <i type="int" name="NSW">     0</i>
   <i type="int" name="IBRION">    -1</i>
   <i type="int" name="MDALGO">     0</i>
   <i type="int" name="ISIF">     2</i>
   <i name="PSTRESS">      0.00000000</i>
   <i name="EDIFFG">      0.00100000</i>
   <i type="int" name="NFREE">     0</i>
   <i name="POTIM">      0.50000000</i>
   <i name="SMASS">     -3.00000000</i>
   <i name="SCALEE">      1.00000000</i>
  </separator>
  <separator name="ionic md" >
   <i name="TEBEG">      0.00010000</i>
   <i name="TEEND">      0.00010000</i>
   <i type="int" name="NBLOCK">     1</i>
   <i type="int" name="KBLOCK">     1</i>
   <i type="int" name="NPACO">   256</i>
   <i name="APACO">     10.00000000</i>
  </separator>
  <separator name="symmetry" >
   <i type="int" name="ISYM">     2</i>
   <i name="SYMPREC">      0.00001000</i>
  </separator>
  <separator name="dos" >
   <i type="int" name="LORBIT">     0</i>
   <v name="RWIGS">     -1.00000000</v>
   <i type="int" name="NEDOS">   301</i>
   <i name="EMIN">     10.00000000</i>
   <i name="EMAX">    -10.00000000</i>
   <i name="EFERMI">      0.00000000</i>
  </separator>
  <separator name="writing" >
   <i type="int" name="NWRITE">     2</i>
   <i type="logical" name="LWAVE"> T  </i>
   <i type="logical" name="LDOWNSAMPLE"> F  </i>
   <i type="logical" name="LCHARG"> T  </i>
   <i type="logical" name="LPARD"> F  </i>
   <i type="logical" name="LVTOT"> F  </i>
   <i type="logical" name="LVHAR"> F  </i>
   <i type="logical" name="LELF"> F  </i>
   <i type="logical" name="LOPTICS"> F  </i>
   <v name="STM">      0.00000000      0.00000000      0.00000000      0.00000000      0.00000000      0.00000000      0.00000000</v>
  </separator>
  <separator name="performance" >
   <i type="int" name="NPAR">    48</i>
   <i type="int" name="NSIM">     4</i>
   <i type="int" name="NBLK">    -1</i>
   <i type="logical" name="LPLANE"> T  </i>
   <i type="logical" name="LSCALAPACK"> T  </i>
   <i type="logical" name="LSCAAWARE"> T  </i>
   <i type="logical" name="LSCALU"> F  </i>
   <i type="logical" name="LASYNC"> F  </i>
   <i type="logical" name="LORBITALREAL"> F  </i>
  </separator>
  <separator name="miscellaneous" >
   <i type="int" name="IDIOT">     3</i>
   <i type="int" name="PHON_NSTRUCT">    -1</i>
   <i type="logical" name="LMUSIC"> F  </i>
   <v name="POMASS">     54.93800000</v>
   <v name="DARWINR">      0.00000000</v>
   <v name="DARWINV">      1.00000000</v>
   <i type="logical" name="LCORR"> T  </i>
  </separator>
  <i type="logical" name="GGA_COMPAT"> T  </i>
  <i type="logical" name="LBERRY"> F  </i>
  <i type="int" name="ICORELEVEL">     0</i>
  <i type="logical" name="LDAU"> F  </i>
  <i type="int" name="I_CONSTRAINED_M">     0</i>
  <separator name="electronic exchange-correlation" >
   <i type="string" name="GGA    ">PE</i>
   <i type="string" name="XC_C">1</i>
   <i type="int" name="VOSKOWN">     0</i>
   <i type="logical" name="LHFCALC"> F  </i>
   <i type="string" name="PRECFOCK"></i>
   <i type="logical" name="LSYMGRAD"> F  </i>
   <i type="logical" name="LHFONE"> F  </i>
   <i type="logical" name="LRHFCALC"> F  </i>
   <i type="logical" name="LTHOMAS"> F  </i>
   <i type="logical" name="LMODELHF"> F  </i>
   <i type="logical" name="LFOCKACE"> F  </i>
   <i name="ENCUT4O">     -1.00000000</i>
   <i type="int" name="EXXOEP">     0</i>
   <i type="int" name="FOURORBIT">     0</i>
   <i name="AEXX">      0.00000000</i>
   <i name="HFALPHA">      0.00000000</i>
   <i name="MCALPHA">      0.00000000</i>
   <i name="ALDAX">      1.00000000</i>
   <i name="AGGAX">      1.00000000</i>
   <i name="AMGGAX">      1.00000000</i>
   <i name="ALDAC">      1.00000000</i>
   <i name="AGGAC">      1.00000000</i>
   <i name="AMGGAC">      1.00000000</i>
   <i type="int" name="NKREDX">     1</i>
   <i type="int" name="NKREDY">     1</i>
   <i type="int" name="NKREDZ">     1</i>
   <i type="logical" name="SHIFTRED"> F  </i>
   <i type="logical" name="ODDONLY"> F  </i>
   <i type="logical" name="EVENONLY"> F  </i>
   <i type="int" name="LMAXFOCK">     0</i>
   <i type="int" name="NMAXFOCKAE">     0</i>
   <i type="logical" name="LFOCKAEDFT"> F  </i>
   <i name="HFSCREEN">      0.00000000</i>
   <i name="HFSCREENC">      0.00000000</i>
   <i type="int" name="NBANDSGWLOW">     0</i>
  </separator>
  <separator name="vdW DFT" >
   <i type="logical" name="LUSE_VDW"> F  </i>
   <i type="int" name="IVDW_NL">    -1</i>
   <i type="logical" name="LSPIN_VDW"> F  </i>
   <i name="ZAB_VDW">     -0.84910000</i>
   <i name="GAMMA_VDW">      1.39626340</i>
   <i name="ALPHA_VDW">      0.00000000</i>
   <i name="PARAM1">      0.12340000</i>
   <i name="PARAM2">      1.00000000</i>
   <i name="BPARAM">      6.30000000</i>
   <i name="CPARAM">      0.00930000</i>
  </separator>
  <separator name="model GW" >
   <i type="int" name="MODEL_GW">     0</i>
   <i name="MODEL_EPS0">      6.97230514</i>
   <i name="MODEL_ALPHA">      1.00000000</i>
  </separator>
  <separator name="linear response parameters" >
   <i type="logical" name="LEPSILON"> F  </i>
   <i type="logical" name="LRPA"> F  </i>
   <i type="logical" name="LNABLA"> F  </i>
   <i type="logical" name="LVEL"> F  </i>
   <i name="CSHIFT">      0.10000000</i>
   <i name="OMEGAMAX">     -1.00000000</i>
   <i name="DEG_THRESHOLD">      0.00200000</i>
   <i name="RTIME">     -0.10000000</i>
   <i name="WPLASMAI">      0.00000000</i>
   <v name="DFIELD">      0.00000000      0.00000000      0.00000000</v>
   <v name="WPLASMA">      0.00000000      0.00000000      0.00000000      0.00000000      0.00000000      0.00000000      0.00000000      0.00000000      0.00000000</v>
  </separator>
  <separator name="orbital magnetization" >
   <i type="logical" name="NUCIND"> F  </i>
   <v name="MAGPOS">      0.00000000      0.00000000      0.00000000</v>
   <i type="logical" name="LNICSALL"> T  </i>
   <i type="logical" name="ORBITALMAG"> F  </i>
   <i type="logical" name="LMAGBLOCH"> F  </i>
   <i type="logical" name="LCHIMAG"> F  </i>
   <i type="logical" name="LGAUGE"> T  </i>
   <i type="int" name="MAGATOM">     0</i>
   <v name="MAGDIPOL">      0.00000000      0.00000000      0.00000000</v>
   <v name="AVECCONST">      0.00000000      0.00000000      0.00000000</v>
  </separator>
  <separator name="response functions" >
   <i type="logical" name="LALL_IN_ONE"> F  </i>
   <i type="int" name="IALL_IN_ONE">    -1</i>
   <i type="int" name="NBANDS_WAVE">    -1</i>
   <i type="logical" name="LFINITE_TEMPERATURE"> F  </i>
   <i type="logical" name="LADDER"> F  </i>
   <i type="logical" name="LRPAFORCE"> F  </i>
   <i type="logical" name="LFXC"> F  </i>
   <i type="logical" name="LHARTREE"> T  </i>
   <i type="int" name="IBSE">     0</i>
   <v type="int" name="KPOINT">    -1     0     0     0</v>
   <i type="logical" name="LTCTC"> F  </i>
   <i type="logical" name="LTCTE"> F  </i>
   <i type="logical" name="LTETE"> F  </i>
   <i type="logical" name="LTRIPLET"> F  </i>
   <i type="logical" name="LFXCEPS"> F  </i>
   <i type="logical" name="LFXHEG"> F  </i>
   <i type="int" name="NATURALO">     2</i>
   <i type="logical" name="LHOLEGF"> F  </i>
   <i type="logical" name="L2ORDER"> F  </i>
   <i type="logical" name="LDMP1"> F  </i>
   <i type="logical" name="LMP2LT"> F  </i>
   <i type="logical" name="LSMP2LT"> F  </i>
   <i type="logical" name="LGWLF"> F  </i>
   <i name="ENCUTGW">     -1.60000002</i>
   <i name="ENCUTGWSOFT">     -1.60000002</i>
   <i name="ENCUTLF">     -1.00000000</i>
   <i type="logical" name="ESF_SPLINES"> F  </i>
   <i name="ESF_CONV">      0.01000000</i>
   <i type="int" name="ESF_NINTER">    15</i>
   <i type="int" name="LMAXMP2">    -1</i>
   <i name="SCISSOR">      0.00000000</i>
   <i type="int" name="NOMEGA">     0</i>
   <i type="int" name="NOMEGAR">     0</i>
   <i type="int" name="NBANDSGW">    -1</i>
   <i type="int" name="NBANDSO">    -1</i>
   <i type="int" name="NBANDSV">    -1</i>
   <i type="int" name="NELMGW">     1</i>
   <i type="int" name="NELMHF">     1</i>
   <i type="int" name="DIM">     3</i>
   <i type="int" name="IESPILON">     4</i>
   <i type="int" name="ANTIRES">     0</i>
   <i name="OMEGAMAX">    -30.00000000</i>
   <i name="OMEGAMIN">    -30.00000000</i>
   <i name="OMEGATL">   -200.00000000</i>
   <i type="int" name="OMEGAGRID">     0</i>
   <i name="CSHIFT">     -0.10000000</i>
   <i type="logical" name="LSELFENERGY"> F  </i>
   <i type="logical" name="LSPECTRAL"> F  </i>
   <i type="logical" name="LSPECTRALGW"> F  </i>
   <i type="logical" name="LSINGLES"> F  </i>
   <i type="logical" name="LFERMIGW"> F  </i>
   <i type="logical" name="ODDONLYGW"> F  </i>
   <i type="logical" name="EVENONLYGW"> F  </i>
   <i type="int" name="NKREDLFX">     1</i>
   <i type="int" name="NKREDLFY">     1</i>
   <i type="int" name="NKREDLFZ">     1</i>
   <i type="int" name="MAXMEM">  2800</i>
   <i type="int" name="TELESCOPE">     0</i>
   <i type="int" name="NTAUPAR">    -1</i>
   <i type="int" name="NOMEGAPAR">    -1</i>
   <i name="DAMP_NEWTON">      0.80000001</i>
   <i name="LAMBDA">      1.00000000</i>
  </separator>
  <separator name="External order field" >
   <i name="OFIELD_KAPPA">      0.00000000</i>
   <v name="OFIELD_K">      0.00000000      0.00000000      0.00000000</v>
   <i name="OFIELD_Q6_NEAR">      0.00000000</i>
   <i name="OFIELD_Q6_FAR">      0.00000000</i>
   <i name="OFIELD_A">      0.00000000</i>
  </separator>
  <separator name="optional k-points parameters" >
   <i type="int" name="KPOINTS_OPT_MODE">     1</i>
   <i type="logical" name="LKPOINTS_OPT"> T  </i>
  </separator>
 </parameters>
 <atominfo>
  <atoms>       4 </atoms>
  <types>       1 </types>
  <array name="atoms" >
   <dimension dim="1">ion</dimension>
   <field type="string">element</field>
   <field type="int">atomtype</field>
   <set>
    <rc><c>Mn</c><c>   1</c></rc>
    <rc><c>Mn</c><c>   1</c></rc>
    <rc><c>Mn</c><c>   1</c></rc>
    <rc><c>Mn</c><c>   1</c></rc>
   </set>
  </array>
  <array name="atomtypes" >
   <dimension dim="1">type</dimension>
   <field type="int">atomspertype</field>
   <field type="string">element</field>
   <field>mass</field>
   <field>valence</field>
   <field type="string">pseudopotential</field>
   <set>
    <rc><c>   4</c><c>Mn</c><c>     54.93800000</c><c>     13.00000000</c><c>PAW_PBE Mn_pv 02Aug2007                 </c></rc>
   </set>
  </array>
 </atominfo>
 <structure name="initialpos" >
  <crystal>
   <varray name="basis" >
    <v>       3.59552000       0.00000000       0.00000000 </v>
    <v>       0.00000000       3.59552000       0.00000000 </v>
    <v>       0.00000000       0.00000000       3.59552000 </v>
   </varray>
   <i name="volume">     46.48203427 </i>
   <varray name="rec_basis" >
    <v>       0.27812389      -0.00000000       0.00000000 </v>
    <v>       0.00000000       0.27812389       0.00000000 </v>
    <v>      -0.00000000      -0.00000000       0.27812389 </v>
   </varray>
  </crystal>
  <varray name="positions" >
   <v>       0.00000000       0.00000000       0.00000000 </v>
   <v>       0.00000000       0.50000000       0.50000000 </v>
   <v>       0.50000000       0.00000000       0.50000000 </v>
   <v>       0.50000000       0.50000000       0.00000000 </v>
  </varray>
 </structure>
 <calculation>
  <scstep>
   <time name="dav">    1.03    1.11</time>
   <time name="total">    1.06    1.13</time>
   <energy>
    <i name="alphaZ">    415.08363837 </i>
    <i name="ewald">  -6206.36544920 </i>
    <i name="hartreedc">  -1686.41455274 </i>
    <i name="XCdc">    271.75663575 </i>
    <i name="pawpsdc">   7371.95402519 </i>
    <i name="pawaedc">  -7589.09995002 </i>
    <i name="eentropy">     -0.00822843 </i>
    <i name="bandstr">   -713.57700437 </i>
    <i name="atom">   8100.85506777 </i>
    <i name="e_fr_energy">    -35.81581768 </i>
    <i name="e_wo_entrp">    -35.80758925 </i>
    <i name="e_0_energy">    -35.81170347 </i>
   </energy>
  </scstep>
  <scstep>
   <time name="dav">    0.91    0.91</time>
   <time name="total">    0.92    0.92</time>
   <energy>
    <i name="alphaZ">    415.08363837 </i>
    <i name="ewald">  -6206.36544920 </i>
    <i name="hartreedc">  -1686.33959784 </i>
    <i name="XCdc">    271.75525881 </i>
    <i name="pawpsdc">   7371.99753852 </i>
    <i name="pawaedc">  -7589.13685865 </i>
    <i name="eentropy">     -0.00823932 </i>
    <i name="bandstr">   -713.65717636 </i>
    <i name="atom">   8100.85506777 </i>
    <i name="e_fr_energy">    -35.81581790 </i>
    <i name="e_wo_entrp">    -35.80757857 </i>
    <i name="e_0_energy">    -35.81169823 </i>
   </energy>
  </scstep>
  <structure>
   <crystal>
    <varray name="basis" >
     <v>       3.59552000       0.00000000       0.00000000 </v>
     <v>       0.00000000       3.59552000       0.00000000 </v>
     <v>       0.00000000       0.00000000       3.59552000 </v>
    </varray>
    <i name="volume">     46.48203427 </i>
    <varray name="rec_basis" >
     <v>       0.27812389      -0.00000000       0.00000000 </v>
     <v>       0.00000000       0.27812389       0.00000000 </v>
     <v>      -0.00000000      -0.00000000       0.27812389 </v>
    </varray>
   </crystal>
   <varray name="positions" >
    <v>       0.00000000       0.00000000       0.00000000 </v>
    <v>       0.00000000       0.50000000       0.50000000 </v>
    <v>       0.50000000       0.00000000       0.50000000 </v>
    <v>       0.50000000       0.50000000       0.00000000 </v>
   </varray>
  </structure>
  <varray name="forces" >
   <v>       0.00000000       0.00000000      -0.00000000 </v>
   <v>      -0.00000000      -0.00000000       0.00000000 </v>
   <v>      -0.00000000      -0.00000000      -0.00000000 </v>
   <v>      -0.00000000       0.00000000       0.00000000 </v>
  </varray>
  <varray name="stress" >
   <v>       0.72224964      -0.00000000       0.00000000 </v>
   <v>      -0.00000000     -73.39997260      -0.00000000 </v>
   <v>       0.00000000      -0.00000000       0.72224964 </v>
  </varray>
  <energy>
   <i name="e_fr_energy">    -35.81581790 </i>
   <i name="e_wo_entrp">    -35.80757857 </i>
   <i name="e_0_energy">    -35.81169823 </i>
  </energy>
  <dos comment="kpoints_opt">
   <i name="efermi">      9.30586959 </i>
   <total>
    <array>
     <dimension dim="1">gridpoints</dimension>
     <dimension dim="2">spin</dimension>
     <field>energy</field>
     <field>total</field>
     <field>integrated</field>
     <set>
      <set comment="spin 1">
       <r>   -43.0985     0.0000     0.0000 </r>
       <r>   -42.8284     0.0000     0.0000 </r>
       <r>   -42.5584     0.0000     0.0000 </r>
       <r>   -42.2883     0.0000     0.0000 </r>
       <r>   -42.0182     0.0000     0.0000 </r>
       <r>   -41.7481     0.0000     0.0000 </r>
       <r>   -41.4780     0.0000     0.0000 </r>
       <r>   -41.2080     0.0000     0.0000 </r>
       <r>   -40.9379     0.0000     0.0000 </r>
       <r>   -40.6678     0.0000     0.0000 </r>
       <r>   -40.3977     0.0000     0.0000 </r>
       <r>   -40.1276     0.0000     0.0000 </r>
       <r>   -39.8576     0.0000     0.0000 </r>
       <r>   -39.5875     0.0000     0.0000 </r>
       <r>   -39.3174    12.2256     3.3019 </r>
       <r>   -39.0473     7.7714     5.4008 </r>
       <r>   -38.7773     2.2187     6.0000 </r>
       <r>   -38.5072     0.0000     6.0000 </r>
       <r>   -38.2371     0.0000     6.0000 </r>
       <r>   -37.9670     0.0000     6.0000 </r>
       <r>   -37.6969     0.0000     6.0000 </r>
       <r>   -37.4269     0.2500     6.0675 </r>
       <r>   -37.1568    14.8512    10.0785 </r>
       <r>   -36.8867     7.1143    12.0000 </r>
       <r>   -36.6166     0.0000    12.0000 </r>
       <r>   -36.3465     0.0000    12.0000 </r>
       <r>   -36.0765     0.0000    12.0000 </r>
       <r>   -35.8064     0.0000    12.0000 </r>
       <r>   -35.5363     0.0000    12.0000 </r>
       <r>   -35.2662     0.0000    12.0000 </r>
       <r>   -34.9962     0.0000    12.0000 </r>
       <r>   -34.7261     0.0000    12.0000 </r>
       <r>   -34.4560     0.0000    12.0000 </r>
       <r>   -34.1859     0.0000    12.0000 </r>
       <r>   -33.9158     0.0000    12.0000 </r>
       <r>   -33.6458     0.0000    12.0000 </r>
       <r>   -33.3757     0.0000    12.0000 </r>
       <r>   -33.1056     0.0000    12.0000 </r>
       <r>   -32.8355     0.0000    12.0000 </r>
       <r>   -32.5654     0.0000    12.0000 </r>
       <r>   -32.2954     0.0000    12.0000 </r>
       <r>   -32.0253     0.0000    12.0000 </r>
       <r>   -31.7552     0.0000    12.0000 </r>
       <r>   -31.4851     0.0000    12.0000 </r>
       <r>   -31.2150     0.0000    12.0000 </r>
       <r>   -30.9450     0.0000    12.0000 </r>
       <r>   -30.6749     0.0000    12.0000 </r>
       <r>   -30.4048     0.0000    12.0000 </r>
       <r>   -30.1347     0.0000    12.0000 </r>
       <r>   -29.8647     0.0000    12.0000 </r>
       <r>   -29.5946     0.0000    12.0000 </r>
       <r>   -29.3245     0.0000    12.0000 </r>
       <r>   -29.0544     0.0000    12.0000 </r>
       <r>   -28.7843     0.0000    12.0000 </r>
       <r>   -28.5143     0.0000    12.0000 </r>
       <r>   -28.2442     0.0000    12.0000 </r>
       <r>   -27.9741     0.0000    12.0000 </r>
       <r>   -27.7040     0.0000    12.0000 </r>
       <r>   -27.4339     0.0000    12.0000 </r>
       <r>   -27.1639     0.0000    12.0000 </r>
       <r>   -26.8938     0.0000    12.0000 </r>
       <r>   -26.6237     0.0000    12.0000 </r>
       <r>   -26.3536     0.0000    12.0000 </r>
       <r>   -26.0836     0.0000    12.0000 </r>
       <r>   -25.8135     0.0000    12.0000 </r>
       <r>   -25.5434     0.0000    12.0000 </r>
       <r>   -25.2733     0.0000    12.0000 </r>
       <r>   -25.0032     0.0000    12.0000 </r>
       <r>   -24.7332     0.0000    12.0000 </r>
       <r>   -24.4631     0.0000    12.0000 </r>
       <r>   -24.1930     0.0000    12.0000 </r>
       <r>   -23.9229     0.0000    12.0000 </r>
       <r>   -23.6528     0.0000    12.0000 </r>
       <r>   -23.3828     0.0000    12.0000 </r>
       <r>   -23.1127     0.0000    12.0000 </r>
       <r>   -22.8426     0.0000    12.0000 </r>
       <r>   -22.5725     0.0000    12.0000 </r>
       <r>   -22.3024     0.0000    12.0000 </r>
       <r>   -22.0324     0.0000    12.0000 </r>
       <r>   -21.7623     0.0000    12.0000 </r>
       <r>   -21.4922     0.0000    12.0000 </r>
       <r>   -21.2221     0.0000    12.0000 </r>
       <r>   -20.9521     0.0000    12.0000 </r>
       <r>   -20.6820     0.0000    12.0000 </r>
       <r>   -20.4119     0.0000    12.0000 </r>
       <r>   -20.1418     0.0000    12.0000 </r>
       <r>   -19.8717     0.0000    12.0000 </r>
       <r>   -19.6017     0.0000    12.0000 </r>
       <r>   -19.3316     0.0000    12.0000 </r>
       <r>   -19.0615     0.0000    12.0000 </r>
       <r>   -18.7914     0.0000    12.0000 </r>
       <r>   -18.5213     0.0000    12.0000 </r>
       <r>   -18.2513     0.0000    12.0000 </r>
       <r>   -17.9812     0.0000    12.0000 </r>
       <r>   -17.7111     0.0000    12.0000 </r>
       <r>   -17.4410     0.0000    12.0000 </r>
       <r>   -17.1710     0.0000    12.0000 </r>
       <r>   -16.9009     0.0000    12.0000 </r>
       <r>   -16.6308     0.0000    12.0000 </r>
       <r>   -16.3607     0.0000    12.0000 </r>
       <r>   -16.0906     0.0000    12.0000 </r>
       <r>   -15.8206     0.0000    12.0000 </r>
       <r>   -15.5505     0.0000    12.0000 </r>
       <r>   -15.2804     0.0000    12.0000 </r>
       <r>   -15.0103     0.0000    12.0000 </r>
       <r>   -14.7402     0.0000    12.0000 </r>
       <r>   -14.4702     0.0000    12.0000 </r>
       <r>   -14.2001     0.0000    12.0000 </r>
       <r>   -13.9300     0.0000    12.0000 </r>
       <r>   -13.6599     0.0000    12.0000 </r>
       <r>   -13.3898     0.0000    12.0000 </r>
       <r>   -13.1198     0.0000    12.0000 </r>
       <r>   -12.8497     0.0000    12.0000 </r>
       <r>   -12.5796     0.0000    12.0000 </r>
       <r>   -12.3095     0.0000    12.0000 </r>
       <r>   -12.0395     0.0000    12.0000 </r>
       <r>   -11.7694     0.0000    12.0000 </r>
       <r>   -11.4993     0.0000    12.0000 </r>
       <r>   -11.2292     0.0000    12.0000 </r>
       <r>   -10.9591     0.0000    12.0000 </r>
       <r>   -10.6891     0.0000    12.0000 </r>
       <r>   -10.4190     0.0000    12.0000 </r>
       <r>   -10.1489     0.0000    12.0000 </r>
       <r>    -9.8788     0.0000    12.0000 </r>
       <r>    -9.6087     0.0000    12.0000 </r>
       <r>    -9.3387     0.0000    12.0000 </r>
       <r>    -9.0686     0.0000    12.0000 </r>
       <r>    -8.7985     0.0000    12.0000 </r>
       <r>    -8.5284     0.0000    12.0000 </r>
       <r>    -8.2583     0.0000    12.0000 </r>
       <r>    -7.9883     0.0000    12.0000 </r>
       <r>    -7.7182     0.0000    12.0000 </r>
       <r>    -7.4481     0.0000    12.0000 </r>
       <r>    -7.1780     0.0000    12.0000 </r>
       <r>    -6.9080     0.0000    12.0000 </r>
       <r>    -6.6379     0.0000    12.0000 </r>
       <r>    -6.3678     0.0000    12.0000 </r>
       <r>    -6.0977     0.0000    12.0000 </r>
       <r>    -5.8276     0.0000    12.0000 </r>
       <r>    -5.5576     0.0000    12.0000 </r>
       <r>    -5.2875     0.0000    12.0000 </r>
       <r>    -5.0174     0.0000    12.0000 </r>
       <r>    -4.7473     0.0000    12.0000 </r>
       <r>    -4.4772     0.0000    12.0000 </r>
       <r>    -4.2072     0.0000    12.0000 </r>
       <r>    -3.9371     0.0000    12.0000 </r>
       <r>    -3.6670     0.0000    12.0000 </r>
       <r>    -3.3969     0.0000    12.0000 </r>
       <r>    -3.1269     0.0000    12.0000 </r>
       <r>    -2.8568     0.0000    12.0000 </r>
       <r>    -2.5867     0.0000    12.0000 </r>
       <r>    -2.3166     0.0000    12.0000 </r>
       <r>    -2.0465     0.0000    12.0000 </r>
       <r>    -1.7765     0.0000    12.0000 </r>
       <r>    -1.5064     0.0000    12.0000 </r>
       <r>    -1.2363     0.0000    12.0000 </r>
       <r>    -0.9662     0.0000    12.0000 </r>
       <r>    -0.6961     0.0000    12.0000 </r>
       <r>    -0.4261     0.0000    12.0000 </r>
       <r>    -0.1560     0.0000    12.0000 </r>
       <r>     0.1141     0.0000    12.0000 </r>
       <r>     0.3842     0.0000    12.0000 </r>
       <r>     0.6543     0.0000    12.0000 </r>
       <r>     0.9243     0.0000    12.0000 </r>
       <r>     1.1944     0.0000    12.0000 </r>
       <r>     1.4645     0.0372    12.0100 </r>
       <r>     1.7346     0.4021    12.1186 </r>
       <r>     2.0046     0.1888    12.1696 </r>
       <r>     2.2747     0.1442    12.2086 </r>
       <r>     2.5448     0.1260    12.2426 </r>
       <r>     2.8149     0.1119    12.2728 </r>
       <r>     3.0850     0.1011    12.3001 </r>
       <r>     3.3550     0.0985    12.3267 </r>
       <r>     3.6251     0.0963    12.3527 </r>
       <r>     3.8952     0.0850    12.3757 </r>
       <r>     4.1653     0.0957    12.4015 </r>
       <r>     4.4354     0.0905    12.4260 </r>
       <r>     4.7054     0.0897    12.4502 </r>
       <r>     4.9755     0.6507    12.6260 </r>
       <r>     5.2456     1.2241    12.9566 </r>
       <r>     5.5157     1.1105    13.2565 </r>
       <r>     5.7857     2.4602    13.9209 </r>
       <r>     6.0558     5.5647    15.4238 </r>
       <r>     6.3259     3.1735    16.2809 </r>
       <r>     6.5960     2.2421    16.8865 </r>
       <r>     6.8661     1.4360    17.2743 </r>
       <r>     7.1361     3.4876    18.2162 </r>
       <r>     7.4062     3.6713    19.2078 </r>
       <r>     7.6763     1.2676    19.5501 </r>
       <r>     7.9464     1.3275    19.9087 </r>
       <r>     8.2165     1.9632    20.4389 </r>
       <r>     8.4865     6.3874    22.1640 </r>
       <r>     8.7566     4.1610    23.2878 </r>
       <r>     9.0267     5.7542    24.8419 </r>
       <r>     9.2968     4.2082    25.9785 </r>
       <r>     9.5669     1.6090    26.4130 </r>
       <r>     9.8369     0.6305    26.5833 </r>
       <r>    10.1070     0.6251    26.7521 </r>
       <r>    10.3771     1.5518    27.1713 </r>
       <r>    10.6472     2.7056    27.9020 </r>
       <r>    10.9172     3.6714    28.8936 </r>
       <r>    11.1873     4.6689    30.1545 </r>
       <r>    11.4574     4.4351    31.3524 </r>
       <r>    11.7275     3.8902    32.4031 </r>
       <r>    11.9976     1.7465    32.8748 </r>
       <r>    12.2676     2.1109    33.4449 </r>
       <r>    12.5377     0.6318    33.6155 </r>
       <r>    12.8078     0.9389    33.8691 </r>
       <r>    13.0779     0.9877    34.1358 </r>
       <r>    13.3480     1.3619    34.5036 </r>
       <r>    13.6180     2.7133    35.2364 </r>
       <r>    13.8881     0.6443    35.4105 </r>
       <r>    14.1582     0.6694    35.5913 </r>
       <r>    14.4283     0.3240    35.6788 </r>
       <r>    14.6983     0.1115    35.7089 </r>
       <r>    14.9684     0.1448    35.7480 </r>
       <r>    15.2385     0.1281    35.7826 </r>
       <r>    15.5086     0.1272    35.8169 </r>
       <r>    15.7787     0.1400    35.8548 </r>
       <r>    16.0487     0.1734    35.9016 </r>
       <r>    16.3188     0.1165    35.9331 </r>
       <r>    16.5889     0.0568    35.9484 </r>
       <r>    16.8590     0.0654    35.9661 </r>
       <r>    17.1291     0.0571    35.9815 </r>
       <r>    17.3991     0.0498    35.9949 </r>
       <r>    17.6692     0.0500    36.0084 </r>
       <r>    17.9393     0.2908    36.0870 </r>
       <r>    18.2094     0.3667    36.1860 </r>
       <r>    18.4795     0.2654    36.2577 </r>
       <r>    18.7495     0.2329    36.3206 </r>
       <r>    19.0196     0.2040    36.3757 </r>
       <r>    19.2897     0.3138    36.4604 </r>
       <r>    19.5598     0.7074    36.6515 </r>
       <r>    19.8298     0.6236    36.8199 </r>
       <r>    20.0999     0.5894    36.9791 </r>
       <r>    20.3700     0.5286    37.1219 </r>
       <r>    20.6401     0.5183    37.2618 </r>
       <r>    20.9102     0.7127    37.4543 </r>
       <r>    21.1802     1.3653    37.8231 </r>
       <r>    21.4503     0.9226    38.0722 </r>
       <r>    21.7204     0.8243    38.2949 </r>
       <r>    21.9905     1.2083    38.6212 </r>
       <r>    22.2606     1.0132    38.8948 </r>
       <r>    22.5306     1.2626    39.2358 </r>
       <r>    22.8007     1.1614    39.5495 </r>
       <r>    23.0708     0.5636    39.7017 </r>
       <r>    23.3409     1.0985    39.9984 </r>
       <r>    23.6109     1.2606    40.3389 </r>
       <r>    23.8810     1.4437    40.7288 </r>
       <r>    24.1511     1.3112    41.0829 </r>
       <r>    24.4212     1.0117    41.3561 </r>
       <r>    24.6913     2.2243    41.9569 </r>
       <r>    24.9613     1.1841    42.2767 </r>
       <r>    25.2314     0.7793    42.4871 </r>
       <r>    25.5015     0.7275    42.6836 </r>
       <r>    25.7716     0.7420    42.8840 </r>
       <r>    26.0417     0.7265    43.0802 </r>
       <r>    26.3117     0.7652    43.2869 </r>
       <r>    26.5818     0.7065    43.4777 </r>
       <r>    26.8519     0.6627    43.6567 </r>
       <r>    27.1220     0.6292    43.8266 </r>
       <r>    27.3921     0.7280    44.0232 </r>
       <r>    27.6621     0.7003    44.2124 </r>
       <r>    27.9322     0.3668    44.3115 </r>
       <r>    28.2023     0.3521    44.4066 </r>
       <r>    28.4724     0.3354    44.4971 </r>
       <r>    28.7424     0.2920    44.5760 </r>
       <r>    29.0125     0.3180    44.6619 </r>
       <r>    29.2826     0.3736    44.7628 </r>
       <r>    29.5527     0.7887    44.9758 </r>
       <r>    29.8228     0.7093    45.1673 </r>
       <r>    30.0928     0.6232    45.3357 </r>
       <r>    30.3629     1.3659    45.7046 </r>
       <r>    30.6330     0.8121    45.9239 </r>
       <r>    30.9031     0.9131    46.1705 </r>
       <r>    31.1732     0.9456    46.4259 </r>
       <r>    31.4432     2.1423    47.0045 </r>
       <r>    31.7133     1.3075    47.3576 </r>
       <r>    31.9834     1.0511    47.6415 </r>
       <r>    32.2535     1.0117    47.9147 </r>
       <r>    32.5235     0.3157    48.0000 </r>
       <r>    32.7936     0.0001    48.0000 </r>
       <r>    33.0637     0.0000    48.0000 </r>
       <r>    33.3338     0.0000    48.0000 </r>
       <r>    33.6039     0.0000    48.0000 </r>
       <r>    33.8739     0.0000    48.0000 </r>
       <r>    34.1440     0.0000    48.0000 </r>
       <r>    34.4141     0.0000    48.0000 </r>
       <r>    34.6842     0.0000    48.0000 </r>
       <r>    34.9543     0.0000    48.0000 </r>
       <r>    35.2243     0.0000    48.0000 </r>
       <r>    35.4944     0.0000    48.0000 </r>
       <r>    35.7645     0.0000    48.0000 </r>
       <r>    36.0346     0.0000    48.0000 </r>
       <r>    36.3047     0.0000    48.0000 </r>
       <r>    36.5747     0.0000    48.0000 </r>
       <r>    36.8448     0.0000    48.0000 </r>
       <r>    37.1149     0.0000    48.0000 </r>
       <r>    37.3850     0.0000    48.0000 </r>
       <r>    37.6550     0.0000    48.0000 </r>
       <r>    37.9251     0.0000    48.0000 </r>
      </set>
      <set comment="spin 2">
       <r>   -43.0985     0.0000     0.0000 </r>
       <r>   -42.8284     0.0000     0.0000 </r>
       <r>   -42.5584     0.0000     0.0000 </r>
       <r>   -42.2883     0.0000     0.0000 </r>
       <r>   -42.0182     0.0000     0.0000 </r>
       <r>   -41.7481     0.0000     0.0000 </r>
       <r>   -41.4780     0.0000     0.0000 </r>
       <r>   -41.2080     0.0000     0.0000 </r>
       <r>   -40.9379     0.0000     0.0000 </r>
       <r>   -40.6678     0.0000     0.0000 </r>
       <r>   -40.3977     0.0000     0.0000 </r>
       <r>   -40.1276     0.0000     0.0000 </r>
       <r>   -39.8576     0.0000     0.0000 </r>
       <r>   -39.5875     0.0000     0.0000 </r>
       <r>   -39.3174    12.2256     3.3019 </r>
       <r>   -39.0473     7.7714     5.4008 </r>
       <r>   -38.7773     2.2187     6.0000 </r>
       <r>   -38.5072     0.0000     6.0000 </r>
       <r>   -38.2371     0.0000     6.0000 </r>
       <r>   -37.9670     0.0000     6.0000 </r>
       <r>   -37.6969     0.0000     6.0000 </r>
       <r>   -37.4269     0.2500     6.0675 </r>
       <r>   -37.1568    14.8512    10.0785 </r>
       <r>   -36.8867     7.1143    12.0000 </r>
       <r>   -36.6166     0.0000    12.0000 </r>
       <r>   -36.3465     0.0000    12.0000 </r>
       <r>   -36.0765     0.0000    12.0000 </r>
       <r>   -35.8064     0.0000    12.0000 </r>
       <r>   -35.5363     0.0000    12.0000 </r>
       <r>   -35.2662     0.0000    12.0000 </r>
       <r>   -34.9962     0.0000    12.0000 </r>
       <r>   -34.7261     0.0000    12.0000 </r>
       <r>   -34.4560     0.0000    12.0000 </r>
       <r>   -34.1859     0.0000    12.0000 </r>
       <r>   -33.9158     0.0000    12.0000 </r>
       <r>   -33.6458     0.0000    12.0000 </r>
       <r>   -33.3757     0.0000    12.0000 </r>
       <r>   -33.1056     0.0000    12.0000 </r>
       <r>   -32.8355     0.0000    12.0000 </r>
       <r>   -32.5654     0.0000    12.0000 </r>
       <r>   -32.2954     0.0000    12.0000 </r>
       <r>   -32.0253     0.0000    12.0000 </r>
       <r>   -31.7552     0.0000    12.0000 </r>
       <r>   -31.4851     0.0000    12.0000 </r>
       <r>   -31.2150     0.0000    12.0000 </r>
       <r>   -30.9450     0.0000    12.0000 </r>
       <r>   -30.6749     0.0000    12.0000 </r>
       <r>   -30.4048     0.0000    12.0000 </r>
       <r>   -30.1347     0.0000    12.0000 </r>
       <r>   -29.8647     0.0000    12.0000 </r>
       <r>   -29.5946     0.0000    12.0000 </r>
       <r>   -29.3245     0.0000    12.0000 </r>
       <r>   -29.0544     0.0000    12.0000 </r>
       <r>   -28.7843     0.0000    12.0000 </r>
       <r>   -28.5143     0.0000    12.0000 </r>
       <r>   -28.2442     0.0000    12.0000 </r>
       <r>   -27.9741     0.0000    12.0000 </r>
       <r>   -27.7040     0.0000    12.0000 </r>
       <r>   -27.4339     0.0000    12.0000 </r>
       <r>   -27.1639     0.0000    12.0000 </r>
       <r>   -26.8938     0.0000    12.0000 </r>
       <r>   -26.6237     0.0000    12.0000 </r>
       <r>   -26.3536     0.0000    12.0000 </r>
       <r>   -26.0836     0.0000    12.0000 </r>
       <r>   -25.8135     0.0000    12.0000 </r>
       <r>   -25.5434     0.0000    12.0000 </r>
       <r>   -25.2733     0.0000    12.0000 </r>
       <r>   -25.0032     0.0000    12.0000 </r>
       <r>   -24.7332     0.0000    12.0000 </r>
       <r>   -24.4631     0.0000    12.0000 </r>
       <r>   -24.1930     0.0000    12.0000 </r>
       <r>   -23.9229     0.0000    12.0000 </r>
       <r>   -23.6528     0.0000    12.0000 </r>
       <r>   -23.3828     0.0000    12.0000 </r>
       <r>   -23.1127     0.0000    12.0000 </r>
       <r>   -22.8426     0.0000    12.0000 </r>
       <r>   -22.5725     0.0000    12.0000 </r>
       <r>   -22.3024     0.0000    12.0000 </r>
       <r>   -22.0324     0.0000    12.0000 </r>
       <r>   -21.7623     0.0000    12.0000 </r>
       <r>   -21.4922     0.0000    12.0000 </r>
       <r>   -21.2221     0.0000    12.0000 </r>
       <r>   -20.9521     0.0000    12.0000 </r>
       <r>   -20.6820     0.0000    12.0000 </r>
       <r>   -20.4119     0.0000    12.0000 </r>
       <r>   -20.1418     0.0000    12.0000 </r>
       <r>   -19.8717     0.0000    12.0000 </r>
       <r>   -19.6017     0.0000    12.0000 </r>
       <r>   -19.3316     0.0000    12.0000 </r>
       <r>   -19.0615     0.0000    12.0000 </r>
       <r>   -18.7914     0.0000    12.0000 </r>
       <r>   -18.5213     0.0000    12.0000 </r>
       <r>   -18.2513     0.0000    12.0000 </r>
       <r>   -17.9812     0.0000    12.0000 </r>
       <r>   -17.7111     0.0000    12.0000 </r>
       <r>   -17.4410     0.0000    12.0000 </r>
       <r>   -17.1710     0.0000    12.0000 </r>
       <r>   -16.9009     0.0000    12.0000 </r>
       <r>   -16.6308     0.0000    12.0000 </r>
       <r>   -16.3607     0.0000    12.0000 </r>
       <r>   -16.0906     0.0000    12.0000 </r>
       <r>   -15.8206     0.0000    12.0000 </r>
       <r>   -15.5505     0.0000    12.0000 </r>
       <r>   -15.2804     0.0000    12.0000 </r>
       <r>   -15.0103     0.0000    12.0000 </r>
       <r>   -14.7402     0.0000    12.0000 </r>
       <r>   -14.4702     0.0000    12.0000 </r>
       <r>   -14.2001     0.0000    12.0000 </r>
       <r>   -13.9300     0.0000    12.0000 </r>
       <r>   -13.6599     0.0000    12.0000 </r>
       <r>   -13.3898     0.0000    12.0000 </r>
       <r>   -13.1198     0.0000    12.0000 </r>
       <r>   -12.8497     0.0000    12.0000 </r>
       <r>   -12.5796     0.0000    12.0000 </r>
       <r>   -12.3095     0.0000    12.0000 </r>
       <r>   -12.0395     0.0000    12.0000 </r>
       <r>   -11.7694     0.0000    12.0000 </r>
       <r>   -11.4993     0.0000    12.0000 </r>
       <r>   -11.2292     0.0000    12.0000 </r>
       <r>   -10.9591     0.0000    12.0000 </r>
       <r>   -10.6891     0.0000    12.0000 </r>
       <r>   -10.4190     0.0000    12.0000 </r>
       <r>   -10.1489     0.0000    12.0000 </r>
       <r>    -9.8788     0.0000    12.0000 </r>
       <r>    -9.6087     0.0000    12.0000 </r>
       <r>    -9.3387     0.0000    12.0000 </r>
       <r>    -9.0686     0.0000    12.0000 </r>
       <r>    -8.7985     0.0000    12.0000 </r>
       <r>    -8.5284     0.0000    12.0000 </r>
       <r>    -8.2583     0.0000    12.0000 </r>
       <r>    -7.9883     0.0000    12.0000 </r>
       <r>    -7.7182     0.0000    12.0000 </r>
       <r>    -7.4481     0.0000    12.0000 </r>
       <r>    -7.1780     0.0000    12.0000 </r>
       <r>    -6.9080     0.0000    12.0000 </r>
       <r>    -6.6379     0.0000    12.0000 </r>
       <r>    -6.3678     0.0000    12.0000 </r>
       <r>    -6.0977     0.0000    12.0000 </r>
       <r>    -5.8276     0.0000    12.0000 </r>
       <r>    -5.5576     0.0000    12.0000 </r>
       <r>    -5.2875     0.0000    12.0000 </r>
       <r>    -5.0174     0.0000    12.0000 </r>
       <r>    -4.7473     0.0000    12.0000 </r>
       <r>    -4.4772     0.0000    12.0000 </r>
       <r>    -4.2072     0.0000    12.0000 </r>
       <r>    -3.9371     0.0000    12.0000 </r>
       <r>    -3.6670     0.0000    12.0000 </r>
       <r>    -3.3969     0.0000    12.0000 </r>
       <r>    -3.1269     0.0000    12.0000 </r>
       <r>    -2.8568     0.0000    12.0000 </r>
       <r>    -2.5867     0.0000    12.0000 </r>
       <r>    -2.3166     0.0000    12.0000 </r>
       <r>    -2.0465     0.0000    12.0000 </r>
       <r>    -1.7765     0.0000    12.0000 </r>
       <r>    -1.5064     0.0000    12.0000 </r>
       <r>    -1.2363     0.0000    12.0000 </r>
       <r>    -0.9662     0.0000    12.0000 </r>
       <r>    -0.6961     0.0000    12.0000 </r>
       <r>    -0.4261     0.0000    12.0000 </r>
       <r>    -0.1560     0.0000    12.0000 </r>
       <r>     0.1141     0.0000    12.0000 </r>
       <r>     0.3842     0.0000    12.0000 </r>
       <r>     0.6543     0.0000    12.0000 </r>
       <r>     0.9243     0.0000    12.0000 </r>
       <r>     1.1944     0.0000    12.0000 </r>
       <r>     1.4645     0.0372    12.0100 </r>
       <r>     1.7346     0.4021    12.1186 </r>
       <r>     2.0046     0.1888    12.1696 </r>
       <r>     2.2747     0.1442    12.2086 </r>
       <r>     2.5448     0.1260    12.2426 </r>
       <r>     2.8149     0.1119    12.2728 </r>
       <r>     3.0850     0.1011    12.3001 </r>
       <r>     3.3550     0.0985    12.3267 </r>
       <r>     3.6251     0.0963    12.3527 </r>
       <r>     3.8952     0.0850    12.3757 </r>
       <r>     4.1653     0.0957    12.4015 </r>
       <r>     4.4354     0.0905    12.4260 </r>
       <r>     4.7054     0.0897    12.4502 </r>
       <r>     4.9755     0.6507    12.6260 </r>
       <r>     5.2456     1.2241    12.9566 </r>
       <r>     5.5157     1.1105    13.2565 </r>
       <r>     5.7857     2.4602    13.9209 </r>
       <r>     6.0558     5.5647    15.4238 </r>
       <r>     6.3259     3.1735    16.2809 </r>
       <r>     6.5960     2.2421    16.8865 </r>
       <r>     6.8661     1.4360    17.2743 </r>
       <r>     7.1361     3.4876    18.2162 </r>
       <r>     7.4062     3.6713    19.2078 </r>
       <r>     7.6763     1.2676    19.5501 </r>
       <r>     7.9464     1.3275    19.9087 </r>
       <r>     8.2165     1.9632    20.4389 </r>
       <r>     8.4865     6.3874    22.1640 </r>
       <r>     8.7566     4.1610    23.2878 </r>
       <r>     9.0267     5.7542    24.8419 </r>
       <r>     9.2968     4.2082    25.9785 </r>
       <r>     9.5669     1.6090    26.4130 </r>
       <r>     9.8369     0.6305    26.5833 </r>
       <r>    10.1070     0.6251    26.7521 </r>
       <r>    10.3771     1.5518    27.1713 </r>
       <r>    10.6472     2.7056    27.9020 </r>
       <r>    10.9172     3.6714    28.8936 </r>
       <r>    11.1873     4.6689    30.1545 </r>
       <r>    11.4574     4.4351    31.3524 </r>
       <r>    11.7275     3.8902    32.4031 </r>
       <r>    11.9976     1.7465    32.8748 </r>
       <r>    12.2676     2.1109    33.4449 </r>
       <r>    12.5377     0.6318    33.6155 </r>
       <r>    12.8078     0.9389    33.8691 </r>
       <r>    13.0779     0.9877    34.1358 </r>
       <r>    13.3480     1.3619    34.5036 </r>
       <r>    13.6180     2.7133    35.2364 </r>
       <r>    13.8881     0.6443    35.4105 </r>
       <r>    14.1582     0.6694    35.5913 </r>
       <r>    14.4283     0.3240    35.6788 </r>
       <r>    14.6983     0.1115    35.7089 </r>
       <r>    14.9684     0.1448    35.7480 </r>
       <r>    15.2385     0.1281    35.7826 </r>
       <r>    15.5086     0.1272    35.8169 </r>
       <r>    15.7787     0.1400    35.8548 </r>
       <r>    16.0487     0.1734    35.9016 </r>
       <r>    16.3188     0.1165    35.9331 </r>
       <r>    16.5889     0.0568    35.9484 </r>
       <r>    16.8590     0.0654    35.9661 </r>
       <r>    17.1291     0.0571    35.9815 </r>
       <r>    17.3991     0.0498    35.9949 </r>
       <r>    17.6692     0.0500    36.0084 </r>
       <r>    17.9393     0.2908    36.0870 </r>
       <r>    18.2094     0.3667    36.1860 </r>
       <r>    18.4795     0.2654    36.2577 </r>
       <r>    18.7495     0.2329    36.3206 </r>
       <r>    19.0196     0.2040    36.3757 </r>
       <r>    19.2897     0.3138    36.4604 </r>
       <r>    19.5598     0.7074    36.6515 </r>
       <r>    19.8298     0.6236    36.8199 </r>
       <r>    20.0999     0.5894    36.9791 </r>
       <r>    20.3700     0.5286    37.1219 </r>
       <r>    20.6401     0.5183    37.2618 </r>
       <r>    20.9102     0.7127    37.4543 </r>
       <r>    21.1802     1.3653    37.8231 </r>
       <r>    21.4503     0.9226    38.0722 </r>
       <r>    21.7204     0.8243    38.2949 </r>
       <r>    21.9905     1.2083    38.6212 </r>
       <r>    22.2606     1.0132    38.8948 </r>
       <r>    22.5306     1.2626    39.2358 </r>
       <r>    22.8007     1.1614    39.5495 </r>
       <r>    23.0708     0.5636    39.7017 </r>
       <r>    23.3409     1.0985    39.9984 </r>
       <r>    23.6109     1.2606    40.3389 </r>
       <r>    23.8810     1.4437    40.7288 </r>
       <r>    24.1511     1.3112    41.0829 </r>
       <r>    24.4212     1.0117    41.3561 </r>
       <r>    24.6913     2.2243    41.9569 </r>
       <r>    24.9613     1.1841    42.2767 </r>
       <r>    25.2314     0.7793    42.4871 </r>
       <r>    25.5015     0.7275    42.6836 </r>
       <r>    25.7716     0.7420    42.8840 </r>
       <r>    26.0417     0.7265    43.0802 </r>
       <r>    26.3117     0.7652    43.2869 </r>
       <r>    26.5818     0.7065    43.4777 </r>
       <r>    26.8519     0.6627    43.6567 </r>
       <r>    27.1220     0.6292    43.8266 </r>
       <r>    27.3921     0.7280    44.0232 </r>
       <r>    27.6621     0.7003    44.2124 </r>
       <r>    27.9322     0.3668    44.3115 </r>
       <r>    28.2023     0.3521    44.4066 </r>
       <r>    28.4724     0.3354    44.4971 </r>
       <r>    28.7424     0.2920    44.5760 </r>
       <r>    29.0125     0.3180    44.6619 </r>
       <r>    29.2826     0.3736    44.7628 </r>
       <r>    29.5527     0.7887    44.9758 </r>
       <r>    29.8228     0.7093    45.1673 </r>
       <r>    30.0928     0.6232    45.3357 </r>
       <r>    30.3629     1.3659    45.7046 </r>
       <r>    30.6330     0.8121    45.9239 </r>
       <r>    30.9031     0.9131    46.1705 </r>
       <r>    31.1732     0.9456    46.4259 </r>
       <r>    31.4432     2.1423    47.0045 </r>
       <r>    31.7133     1.3075    47.3576 </r>
       <r>    31.9834     1.0511    47.6415 </r>
       <r>    32.2535     1.0117    47.9147 </r>
       <r>    32.5235     0.3157    48.0000 </r>
       <r>    32.7936     0.0001    48.0000 </r>
       <r>    33.0637     0.0000    48.0000 </r>
       <r>    33.3338     0.0000    48.0000 </r>
       <r>    33.6039     0.0000    48.0000 </r>
       <r>    33.8739     0.0000    48.0000 </r>
       <r>    34.1440     0.0000    48.0000 </r>
       <r>    34.4141     0.0000    48.0000 </r>
       <r>    34.6842     0.0000    48.0000 </r>
       <r>    34.9543     0.0000    48.0000 </r>
       <r>    35.2243     0.0000    48.0000 </r>
       <r>    35.4944     0.0000    48.0000 </r>
       <r>    35.7645     0.0000    48.0000 </r>
       <r>    36.0346     0.0000    48.0000 </r>
       <r>    36.3047     0.0000    48.0000 </r>
       <r>    36.5747     0.0000    48.0000 </r>
       <r>    36.8448     0.0000    48.0000 </r>
       <r>    37.1149     0.0000    48.0000 </r>
       <r>    37.3850     0.0000    48.0000 </r>
       <r>    37.6550     0.0000    48.0000 </r>
       <r>    37.9251     0.0000    48.0000 </r>
      </set>
     </set>
    </array>
   </total>
  </dos>
  <eigenvalues_kpoints_opt comment="kpoints_opt">
   <kpoints>
    <varray name="kpointlist" >
     <v>       0.00000000       0.00000000       0.00000000 </v>
     <v>       0.01041667       0.00000000       0.01041667 </v>
     <v>       0.02083333       0.00000000       0.02083333 </v>
     <v>       0.03125000       0.00000000       0.03125000 </v>
     <v>       0.04166667       0.00000000       0.04166667 </v>
     <v>       0.05208333       0.00000000       0.05208333 </v>
     <v>       0.06250000       0.00000000       0.06250000 </v>
     <v>       0.07291667       0.00000000       0.07291667 </v>
     <v>       0.08333333       0.00000000       0.08333333 </v>
     <v>       0.09375000       0.00000000       0.09375000 </v>
     <v>       0.10416667       0.00000000       0.10416667 </v>
     <v>       0.11458333       0.00000000       0.11458333 </v>
     <v>       0.12500000       0.00000000       0.12500000 </v>
     <v>       0.13541667       0.00000000       0.13541667 </v>
     <v>       0.14583333       0.00000000       0.14583333 </v>
     <v>       0.15625000       0.00000000       0.15625000 </v>
     <v>       0.16666667       0.00000000       0.16666667 </v>
     <v>       0.17708333       0.00000000       0.17708333 </v>
     <v>       0.18750000       0.00000000       0.18750000 </v>
     <v>       0.19791667       0.00000000       0.19791667 </v>
     <v>       0.20833333       0.00000000       0.20833333 </v>
     <v>       0.21875000       0.00000000       0.21875000 </v>
     <v>       0.22916667       0.00000000       0.22916667 </v>
     <v>       0.23958333       0.00000000       0.23958333 </v>
     <v>       0.25000000       0.00000000       0.25000000 </v>
     <v>       0.26041667       0.00000000       0.26041667 </v>
     <v>       0.27083333       0.00000000       0.27083333 </v>
     <v>       0.28125000       0.00000000       0.28125000 </v>
     <v>       0.29166667       0.00000000       0.29166667 </v>
     <v>       0.30208333       0.00000000       0.30208333 </v>
     <v>       0.31250000       0.00000000       0.31250000 </v>
     <v>       0.32291667       0.00000000       0.32291667 </v>
     <v>       0.33333333       0.00000000       0.33333333 </v>
     <v>       0.34375000       0.00000000       0.34375000 </v>
     <v>       0.35416667       0.00000000       0.35416667 </v>
     <v>       0.36458333       0.00000000       0.36458333 </v>
     <v>       0.37500000       0.00000000       0.37500000 </v>
     <v>       0.38541667       0.00000000       0.38541667 </v>
     <v>       0.39583333       0.00000000       0.39583333 </v>
     <v>       0.40625000       0.00000000       0.40625000 </v>
     <v>       0.41666667       0.00000000       0.41666667 </v>
     <v>       0.42708333       0.00000000       0.42708333 </v>
     <v>       0.43750000       0.00000000       0.43750000 </v>
     <v>       0.44791667       0.00000000       0.44791667 </v>
     <v>       0.45833333       0.00000000       0.45833333 </v>
     <v>       0.46875000       0.00000000       0.46875000 </v>
     <v>       0.47916667       0.00000000       0.47916667 </v>
     <v>       0.48958333       0.00000000       0.48958333 </v>
     <v>       0.50000000       0.00000000       0.50000000 </v>
     <v>       0.50000000       0.00000000       0.50000000 </v>
     <v>       0.50260417       0.00520833       0.50260417 </v>
     <v>       0.50520833       0.01041667       0.50520833 </v>
     <v>       0.50781250       0.01562500       0.50781250 </v>
     <v>       0.51041667       0.02083333       0.51041667 </v>
     <v>       0.51302083       0.02604167       0.51302083 </v>
     <v>       0.51562500       0.03125000       0.51562500 </v>
     <v>       0.51822917       0.03645833       0.51822917 </v>
     <v>       0.52083333       0.04166667       0.52083333 </v>
     <v>       0.52343750       0.04687500       0.52343750 </v>
     <v>       0.52604167       0.05208333       0.52604167 </v>
     <v>       0.52864583       0.05729167       0.52864583 </v>
     <v>       0.53125000       0.06250000       0.53125000 </v>
     <v>       0.53385417       0.06770833       0.53385417 </v>
     <v>       0.53645833       0.07291667       0.53645833 </v>
     <v>       0.53906250       0.07812500       0.53906250 </v>
     <v>       0.54166667       0.08333333       0.54166667 </v>
     <v>       0.54427083       0.08854167       0.54427083 </v>
     <v>       0.54687500       0.09375000       0.54687500 </v>
     <v>       0.54947917       0.09895833       0.54947917 </v>
     <v>       0.55208333       0.10416667       0.55208333 </v>
     <v>       0.55468750       0.10937500       0.55468750 </v>
     <v>       0.55729167       0.11458333       0.55729167 </v>
     <v>       0.55989583       0.11979167       0.55989583 </v>
     <v>       0.56250000       0.12500000       0.56250000 </v>
     <v>       0.56510417       0.13020833       0.56510417 </v>
     <v>       0.56770833       0.13541667       0.56770833 </v>
     <v>       0.57031250       0.14062500       0.57031250 </v>
     <v>       0.57291667       0.14583333       0.57291667 </v>
     <v>       0.57552083       0.15104167       0.57552083 </v>
     <v>       0.57812500       0.15625000       0.57812500 </v>
     <v>       0.58072917       0.16145833       0.58072917 </v>
     <v>       0.58333333       0.16666667       0.58333333 </v>
     <v>       0.58593750       0.17187500       0.58593750 </v>
     <v>       0.58854167       0.17708333       0.58854167 </v>
     <v>       0.59114583       0.18229167       0.59114583 </v>
     <v>       0.59375000       0.18750000       0.59375000 </v>
     <v>       0.59635417       0.19270833       0.59635417 </v>
     <v>       0.59895833       0.19791667       0.59895833 </v>
     <v>       0.60156250       0.20312500       0.60156250 </v>
     <v>       0.60416667       0.20833333       0.60416667 </v>
     <v>       0.60677083       0.21354167       0.60677083 </v>
     <v>       0.60937500       0.21875000       0.60937500 </v>
     <v>       0.61197917       0.22395833       0.61197917 </v>
     <v>       0.61458333       0.22916667       0.61458333 </v>
     <v>       0.61718750       0.23437500       0.61718750 </v>
     <v>       0.61979167       0.23958333       0.61979167 </v>
     <v>       0.62239583       0.24479167       0.62239583 </v>
     <v>       0.62500000       0.25000000       0.62500000 </v>
     <v>       0.62500000       0.25000000       0.62500000 </v>
     <v>       0.61197917       0.24479167       0.61197917 </v>
     <v>       0.59895833       0.23958333       0.59895833 </v>
     <v>       0.58593750       0.23437500       0.58593750 </v>
     <v>       0.57291667       0.22916667       0.57291667 </v>
     <v>       0.55989583       0.22395833       0.55989583 </v>
     <v>       0.54687500       0.21875000       0.54687500 </v>
     <v>       0.53385417       0.21354167       0.53385417 </v>
     <v>       0.52083333       0.20833333       0.52083333 </v>
     <v>       0.50781250       0.20312500       0.50781250 </v>
     <v>       0.49479167       0.19791667       0.49479167 </v>
     <v>       0.48177083       0.19270833       0.48177083 </v>
     <v>       0.46875000       0.18750000       0.46875000 </v>
     <v>       0.45572917       0.18229167       0.45572917 </v>
     <v>       0.44270833       0.17708333       0.44270833 </v>
     <v>       0.42968750       0.17187500       0.42968750 </v>
     <v>       0.41666667       0.16666667       0.41666667 </v>
     <v>       0.40364583       0.16145833       0.40364583 </v>
     <v>       0.39062500       0.15625000       0.39062500 </v>
     <v>       0.37760417       0.15104167       0.37760417 </v>
     <v>       0.36458333       0.14583333       0.36458333 </v>
     <v>       0.35156250       0.14062500       0.35156250 </v>
     <v>       0.33854167       0.13541667       0.33854167 </v>
     <v>       0.32552083       0.13020833       0.32552083 </v>
     <v>       0.31250000       0.12500000       0.31250000 </v>
     <v>       0.29947917       0.11979167       0.29947917 </v>
     <v>       0.28645833       0.11458333       0.28645833 </v>
     <v>       0.27343750       0.10937500       0.27343750 </v>
     <v>       0.26041667       0.10416667       0.26041667 </v>
     <v>       0.24739583       0.09895833       0.24739583 </v>
     <v>       0.23437500       0.09375000       0.23437500 </v>
     <v>       0.22135417       0.08854167       0.22135417 </v>
     <v>       0.20833333       0.08333333       0.20833333 </v>
     <v>       0.19531250       0.07812500       0.19531250 </v>
     <v>       0.18229167       0.07291667       0.18229167 </v>
     <v>       0.16927083       0.06770833       0.16927083 </v>
     <v>       0.15625000       0.06250000       0.15625000 </v>
     <v>       0.14322917       0.05729167       0.14322917 </v>
     <v>       0.13020833       0.05208333       0.13020833 </v>
     <v>       0.11718750       0.04687500       0.11718750 </v>
     <v>       0.10416667       0.04166667       0.10416667 </v>
     <v>       0.09114583       0.03645833       0.09114583 </v>
     <v>       0.07812500       0.03125000       0.07812500 </v>
     <v>       0.06510417       0.02604167       0.06510417 </v>
     <v>       0.05208333       0.02083333       0.05208333 </v>
     <v>       0.03906250       0.01562500       0.03906250 </v>
     <v>       0.02604167       0.01041667       0.02604167 </v>
     <v>       0.01302083       0.00520833       0.01302083 </v>
     <v>      -0.00000000       0.00000000      -0.00000000 </v>
    </varray>
    <varray name="weights" >
     <v>       0.00680272 </v>
     <v>       0.00680272 </v>
     <v>       0.00680272 </v>
     <v>       0.00680272 </v>
     <v>       0.00680272 </v>
     <v>       0.00680272 </v>
     <v>       0.00680272 </v>
     <v>       0.00680272 </v>
     <v>       0.00680272 </v>
     <v>       0.00680272 </v>
     <v>       0.00680272 </v>
     <v>       0.00680272 </v>
     <v>       0.00680272 </v>
     <v>       0.00680272 </v>
     <v>       0.00680272 </v>
     <v>       0.00680272 </v>
     <v>       0.00680272 </v>
     <v>       0.00680272 </v>
     <v>       0.00680272 </v>
     <v>       0.00680272 </v>
     <v>       0.00680272 </v>
     <v>       0.00680272 </v>
     <v>       0.00680272 </v>
     <v>       0.00680272 </v>
     <v>       0.00680272 </v>
     <v>       0.00680272 </v>
     <v>       0.00680272 </v>
     <v>       0.00680272 </v>
     <v>       0.00680272 </v>
     <v>       0.00680272 </v>
     <v>       0.00680272 </v>
     <v>       0.00680272 </v>
     <v>       0.00680272 </v>
     <v>       0.00680272 </v>
     <v>       0.00680272 </v>
     <v>       0.00680272 </v>
     <v>       0.00680272 </v>
     <v>       0.00680272 </v>
     <v>       0.00680272 </v>
     <v>       0.00680272 </v>
     <v>       0.00680272 </v>
     <v>       0.00680272 </v>
     <v>       0.00680272 </v>
     <v>       0.00680272 </v>
     <v>       0.00680272 </v>
     <v>       0.00680272 </v>
     <v>       0.00680272 </v>
     <v>       0.00680272 </v>
     <v>       0.00680272 </v>
     <v>       0.00680272 </v>
     <v>       0.00680272 </v>
     <v>       0.00680272 </v>
     <v>       0.00680272 </v>
     <v>       0.00680272 </v>
     <v>       0.00680272 </v>
     <v>       0.00680272 </v>
     <v>       0.00680272 </v>
     <v>       0.00680272 </v>
     <v>       0.00680272 </v>
     <v>       0.00680272 </v>
     <v>       0.00680272 </v>
     <v>       0.00680272 </v>
     <v>       0.00680272 </v>
     <v>       0.00680272 </v>
     <v>       0.00680272 </v>
     <v>       0.00680272 </v>
     <v>       0.00680272 </v>
     <v>       0.00680272 </v>
     <v>       0.00680272 </v>
     <v>       0.00680272 </v>
     <v>       0.00680272 </v>
     <v>       0.00680272 </v>
     <v>       0.00680272 </v>
     <v>       0.00680272 </v>
     <v>       0.00680272 </v>
     <v>       0.00680272 </v>
     <v>       0.00680272 </v>
     <v>       0.00680272 </v>
     <v>       0.00680272 </v>
     <v>       0.00680272 </v>
     <v>       0.00680272 </v>
     <v>       0.00680272 </v>
     <v>       0.00680272 </v>
     <v>       0.00680272 </v>
     <v>       0.00680272 </v>
     <v>       0.00680272 </v>
     <v>       0.00680272 </v>
     <v>       0.00680272 </v>
     <v>       0.00680272 </v>
     <v>       0.00680272 </v>
     <v>       0.00680272 </v>
     <v>       0.00680272 </v>
     <v>       0.00680272 </v>
     <v>       0.00680272 </v>
     <v>       0.00680272 </v>
     <v>       0.00680272 </v>
     <v>       0.00680272 </v>
     <v>       0.00680272 </v>
     <v>       0.00680272 </v>
     <v>       0.00680272 </v>
     <v>       0.00680272 </v>
     <v>       0.00680272 </v>
     <v>       0.00680272 </v>
     <v>       0.00680272 </v>
     <v>       0.00680272 </v>
     <v>       0.00680272 </v>
     <v>       0.00680272 </v>
     <v>       0.00680272 </v>
     <v>       0.00680272 </v>
     <v>       0.00680272 </v>
     <v>       0.00680272 </v>
     <v>       0.00680272 </v>
     <v>       0.00680272 </v>
     <v>       0.00680272 </v>
     <v>       0.00680272 </v>
     <v>       0.00680272 </v>
     <v>       0.00680272 </v>
     <v>       0.00680272 </v>
     <v>       0.00680272 </v>
     <v>       0.00680272 </v>
     <v>       0.00680272 </v>
     <v>       0.00680272 </v>
     <v>       0.00680272 </v>
     <v>       0.00680272 </v>
     <v>       0.00680272 </v>
     <v>       0.00680272 </v>
     <v>       0.00680272 </v>
     <v>       0.00680272 </v>
     <v>       0.00680272 </v>
     <v>       0.00680272 </v>
     <v>       0.00680272 </v>
     <v>       0.00680272 </v>
     <v>       0.00680272 </v>
     <v>       0.00680272 </v>
     <v>       0.00680272 </v>
     <v>       0.00680272 </v>
     <v>       0.00680272 </v>
     <v>       0.00680272 </v>
     <v>       0.00680272 </v>
     <v>       0.00680272 </v>
     <v>       0.00680272 </v>
     <v>       0.00680272 </v>
     <v>       0.00680272 </v>
     <v>       0.00680272 </v>
     <v>       0.00680272 </v>
     <v>       0.00680272 </v>
     <v>       0.00680272 </v>
    </varray>
   </kpoints>
   <eigenvalues>
    <array>
     <dimension dim="1">band</dimension>
     <dimension dim="2">kpoint</dimension>
     <dimension dim="3">spin</dimension>
     <field>eigene</field>
     <set>
      <set comment="spin 1">
       <set comment="kpoint 1">
        <r>  -39.4156 </r>
        <r>  -39.3590 </r>
        <r>  -39.3590 </r>
        <r>  -39.3177 </r>
        <r>  -39.0797 </r>
        <r>  -39.0797 </r>
        <r>  -37.3252 </r>
        <r>  -37.3252 </r>
        <r>  -37.2525 </r>
        <r>  -37.2214 </r>
        <r>  -37.0456 </r>
        <r>  -37.0456 </r>
        <r>    1.4859 </r>
        <r>    4.9229 </r>
        <r>    5.1560 </r>
        <r>    5.5343 </r>
        <r>    5.9359 </r>
        <r>    5.9359 </r>
        <r>    5.9369 </r>
        <r>    8.3168 </r>
        <r>    8.3168 </r>
        <r>    8.7918 </r>
        <r>    9.4726 </r>
        <r>   10.2070 </r>
        <r>   10.6968 </r>
        <r>   10.7385 </r>
        <r>   11.5807 </r>
        <r>   11.5807 </r>
        <r>   11.7020 </r>
        <r>   11.7412 </r>
        <r>   11.7412 </r>
        <r>   11.9800 </r>
        <r>   12.3069 </r>
        <r>   12.6776 </r>
        <r>   12.6920 </r>
        <r>   12.6920 </r>
        <r>   20.9008 </r>
        <r>   20.9418 </r>
        <r>   21.0165 </r>
        <r>   24.1505 </r>
        <r>   24.5115 </r>
        <r>   24.5115 </r>
        <r>   24.5377 </r>
        <r>   24.5377 </r>
        <r>   24.8527 </r>
        <r>   30.2551 </r>
        <r>   30.2551 </r>
        <r>   30.2566 </r>
       </set>
       <set comment="kpoint 2">
        <r>  -39.4155 </r>
        <r>  -39.3591 </r>
        <r>  -39.3587 </r>
        <r>  -39.3177 </r>
        <r>  -39.0801 </r>
        <r>  -39.0797 </r>
        <r>  -37.3253 </r>
        <r>  -37.3249 </r>
        <r>  -37.2525 </r>
        <r>  -37.2215 </r>
        <r>  -37.0460 </r>
        <r>  -37.0456 </r>
        <r>    1.4888 </r>
        <r>    4.9244 </r>
        <r>    5.1578 </r>
        <r>    5.5352 </r>
        <r>    5.9368 </r>
        <r>    5.9374 </r>
        <r>    5.9382 </r>
        <r>    8.3151 </r>
        <r>    8.3175 </r>
        <r>    8.7929 </r>
        <r>    9.4714 </r>
        <r>   10.2071 </r>
        <r>   10.6885 </r>
        <r>   10.7374 </r>
        <r>   11.5790 </r>
        <r>   11.5801 </r>
        <r>   11.6999 </r>
        <r>   11.7157 </r>
        <r>   11.7406 </r>
        <r>   11.9782 </r>
        <r>   12.2745 </r>
        <r>   12.6949 </r>
        <r>   12.7060 </r>
        <r>   12.7185 </r>
        <r>   20.9085 </r>
        <r>   20.9417 </r>
        <r>   21.0238 </r>
        <r>   24.1482 </r>
        <r>   24.4884 </r>
        <r>   24.5166 </r>
        <r>   24.5365 </r>
        <r>   24.5372 </r>
        <r>   24.8488 </r>
        <r>   30.2527 </r>
        <r>   30.2612 </r>
        <r>   30.2624 </r>
       </set>
       <set comment="kpoint 3">
        <r>  -39.4152 </r>
        <r>  -39.3591 </r>
        <r>  -39.3576 </r>
        <r>  -39.3178 </r>
        <r>  -39.0809 </r>
        <r>  -39.0794 </r>
        <r>  -37.3255 </r>
        <r>  -37.3238 </r>
        <r>  -37.2524 </r>
        <r>  -37.2216 </r>
        <r>  -37.0469 </r>
        <r>  -37.0453 </r>
        <r>    1.4975 </r>
        <r>    4.9287 </r>
        <r>    5.1633 </r>
        <r>    5.5381 </r>
        <r>    5.9396 </r>
        <r>    5.9418 </r>
        <r>    5.9422 </r>
        <r>    8.3102 </r>
        <r>    8.3195 </r>
        <r>    8.7962 </r>
        <r>    9.4679 </r>
        <r>   10.2074 </r>
        <r>   10.6626 </r>
        <r>   10.7355 </r>
        <r>   11.5741 </r>
        <r>   11.5784 </r>
        <r>   11.6471 </r>
        <r>   11.6936 </r>
        <r>   11.7390 </r>
        <r>   11.9730 </r>
        <r>   12.1950 </r>
        <r>   12.7035 </r>
        <r>   12.7807 </r>
        <r>   12.7835 </r>
        <r>   20.9316 </r>
        <r>   20.9413 </r>
        <r>   21.0457 </r>
        <r>   24.1414 </r>
        <r>   24.4200 </r>
        <r>   24.5318 </r>
        <r>   24.5329 </r>
        <r>   24.5357 </r>
        <r>   24.8369 </r>
        <r>   30.2516 </r>
        <r>   30.2793 </r>
        <r>   30.2841 </r>
       </set>
       <set comment="kpoint 4">
        <r>  -39.4149 </r>
        <r>  -39.3591 </r>
        <r>  -39.3559 </r>
        <r>  -39.3178 </r>
        <r>  -39.0825 </r>
        <r>  -39.0793 </r>
        <r>  -37.3256 </r>
        <r>  -37.3222 </r>
        <r>  -37.2525 </r>
        <r>  -37.2216 </r>
        <r>  -37.0487 </r>
        <r>  -37.0452 </r>
        <r>    1.5119 </r>
        <r>    4.9359 </r>
        <r>    5.1722 </r>
        <r>    5.5429 </r>
        <r>    5.9442 </r>
        <r>    5.9487 </r>
        <r>    5.9492 </r>
        <r>    8.3020 </r>
        <r>    8.3229 </r>
        <r>    8.8017 </r>
        <r>    9.4620 </r>
        <r>   10.2079 </r>
        <r>   10.6193 </r>
        <r>   10.7335 </r>
        <r>   11.5501 </r>
        <r>   11.5659 </r>
        <r>   11.5756 </r>
        <r>   11.6831 </r>
        <r>   11.7362 </r>
        <r>   11.9639 </r>
        <r>   12.0914 </r>
        <r>   12.7170 </r>
        <r>   12.8557 </r>
        <r>   12.8951 </r>
        <r>   20.9407 </r>
        <r>   20.9700 </r>
        <r>   21.0821 </r>
        <r>   24.1302 </r>
        <r>   24.3093 </r>
        <r>   24.5269 </r>
        <r>   24.5332 </r>
        <r>   24.5571 </r>
        <r>   24.8174 </r>
        <r>   30.2503 </r>
        <r>   30.3096 </r>
        <r>   30.3201 </r>
       </set>
       <set comment="kpoint 5">
        <r>  -39.4144 </r>
        <r>  -39.3593 </r>
        <r>  -39.3537 </r>
        <r>  -39.3181 </r>
        <r>  -39.0848 </r>
        <r>  -39.0790 </r>
        <r>  -37.3260 </r>
        <r>  -37.3200 </r>
        <r>  -37.2525 </r>
        <r>  -37.2218 </r>
        <r>  -37.0513 </r>
        <r>  -37.0450 </r>
        <r>    1.5322 </r>
        <r>    4.9459 </r>
        <r>    5.1847 </r>
        <r>    5.5495 </r>
        <r>    5.9506 </r>
        <r>    5.9579 </r>
        <r>    5.9594 </r>
        <r>    8.2905 </r>
        <r>    8.3277 </r>
        <r>    8.8092 </r>
        <r>    9.4538 </r>
        <r>   10.2086 </r>
        <r>   10.5598 </r>
        <r>   10.7313 </r>
        <r>   11.4371 </r>
        <r>   11.5544 </r>
        <r>   11.5716 </r>
        <r>   11.6676 </r>
        <r>   11.7324 </r>
        <r>   11.9513 </r>
        <r>   11.9754 </r>
        <r>   12.7342 </r>
        <r>   12.9325 </r>
        <r>   13.0286 </r>
        <r>   20.9397 </r>
        <r>   21.0234 </r>
        <r>   21.1327 </r>
        <r>   24.1147 </r>
        <r>   24.1609 </r>
        <r>   24.5187 </r>
        <r>   24.5297 </r>
        <r>   24.5925 </r>
        <r>   24.7906 </r>
        <r>   30.2480 </r>
        <r>   30.3515 </r>
        <r>   30.3699 </r>
       </set>
       <set comment="kpoint 6">
        <r>  -39.4138 </r>
        <r>  -39.3595 </r>
        <r>  -39.3508 </r>
        <r>  -39.3184 </r>
        <r>  -39.0877 </r>
        <r>  -39.0787 </r>
        <r>  -37.3265 </r>
        <r>  -37.3172 </r>
        <r>  -37.2525 </r>
        <r>  -37.2222 </r>
        <r>  -37.0545 </r>
        <r>  -37.0448 </r>
        <r>    1.5581 </r>
        <r>    4.9587 </r>
        <r>    5.2006 </r>
        <r>    5.5581 </r>
        <r>    5.9588 </r>
        <r>    5.9696 </r>
        <r>    5.9726 </r>
        <r>    8.2759 </r>
        <r>    8.3338 </r>
        <r>    8.8187 </r>
        <r>    9.4434 </r>
        <r>   10.2096 </r>
        <r>   10.4859 </r>
        <r>   10.7289 </r>
        <r>   11.3157 </r>
        <r>   11.5397 </r>
        <r>   11.5666 </r>
        <r>   11.6461 </r>
        <r>   11.7274 </r>
        <r>   11.8529 </r>
        <r>   11.9353 </r>
        <r>   12.7539 </r>
        <r>   13.0069 </r>
        <r>   13.1764 </r>
        <r>   20.9382 </r>
        <r>   21.0915 </r>
        <r>   21.1973 </r>
        <r>   23.9799 </r>
        <r>   24.0950 </r>
        <r>   24.5085 </r>
        <r>   24.5254 </r>
        <r>   24.6377 </r>
        <r>   24.7567 </r>
[...]
       <r>    14.9684     0.4879    35.2201 </r>
       <r>    15.2385     0.1687    35.2657 </r>
       <r>    15.5086     0.5908    35.4252 </r>
       <r>    15.7787     0.3166    35.5108 </r>
       <r>    16.0487     0.4136    35.6225 </r>
       <r>    16.3188     0.4866    35.7539 </r>
       <r>    16.5889     0.0000    35.7539 </r>
       <r>    16.8590     0.2441    35.8198 </r>
       <r>    17.1291     0.2765    35.8945 </r>
       <r>    17.3991     0.3396    35.9862 </r>
       <r>    17.6692     0.0078    35.9883 </r>
       <r>    17.9393     0.6078    36.1525 </r>
       <r>    18.2094     0.6058    36.3161 </r>
       <r>    18.4795     1.1766    36.6339 </r>
       <r>    18.7495     0.6866    36.8193 </r>
       <r>    19.0196     0.3567    36.9157 </r>
       <r>    19.2897     0.9781    37.1798 </r>
       <r>    19.5598     0.2284    37.2415 </r>
       <r>    19.8298     0.5179    37.3814 </r>
       <r>    20.0999     0.5775    37.5374 </r>
       <r>    20.3700     0.2571    37.6068 </r>
       <r>    20.6401     0.7039    37.7969 </r>
       <r>    20.9102     0.6759    37.9795 </r>
       <r>    21.1802     0.7242    38.1751 </r>
       <r>    21.4503     0.7358    38.3738 </r>
       <r>    21.7204     0.5945    38.5344 </r>
       <r>    21.9905     0.9108    38.7804 </r>
       <r>    22.2606     0.8148    39.0004 </r>
       <r>    22.5306     0.8870    39.2400 </r>
       <r>    22.8007     1.3891    39.6151 </r>
       <r>    23.0708     0.7119    39.8074 </r>
       <r>    23.3409     0.5359    39.9521 </r>
       <r>    23.6109     0.9461    40.2077 </r>
       <r>    23.8810     1.0255    40.4846 </r>
       <r>    24.1511     0.7161    40.6781 </r>
       <r>    24.4212     0.8170    40.8987 </r>
       <r>    24.6913     1.6266    41.3380 </r>
       <r>    24.9613     0.6021    41.5007 </r>
       <r>    25.2314     0.8311    41.7251 </r>
       <r>    25.5015     1.1936    42.0475 </r>
       <r>    25.7716     1.1720    42.3640 </r>
       <r>    26.0417     0.9352    42.6166 </r>
       <r>    26.3117     0.9185    42.8647 </r>
       <r>    26.5818     0.6681    43.0451 </r>
       <r>    26.8519     0.9719    43.3076 </r>
       <r>    27.1220     0.6339    43.4788 </r>
       <r>    27.3921     0.8482    43.7079 </r>
       <r>    27.6621     1.4532    44.1004 </r>
       <r>    27.9322     0.5927    44.2605 </r>
       <r>    28.2023     1.2840    44.6072 </r>
       <r>    28.4724     0.8306    44.8316 </r>
       <r>    28.7424     0.7753    45.0409 </r>
       <r>    29.0125     0.4293    45.1569 </r>
       <r>    29.2826     0.7016    45.3464 </r>
       <r>    29.5527     1.5202    45.7569 </r>
       <r>    29.8228     0.7338    45.9551 </r>
       <r>    30.0928     0.6089    46.1196 </r>
       <r>    30.3629     0.6511    46.2954 </r>
       <r>    30.6330     0.4771    46.4243 </r>
       <r>    30.9031     0.6267    46.5936 </r>
       <r>    31.1732     0.8375    46.8197 </r>
       <r>    31.4432     1.4414    47.2090 </r>
       <r>    31.7133     1.0207    47.4847 </r>
       <r>    31.9834     0.7207    47.6793 </r>
       <r>    32.2535     0.2278    47.7408 </r>
       <r>    32.5235     0.0195    47.7461 </r>
       <r>    32.7936     0.6524    47.9223 </r>
       <r>    33.0637     0.1745    47.9694 </r>
       <r>    33.3338     0.0842    47.9922 </r>
       <r>    33.6039     0.0000    47.9922 </r>
       <r>    33.8739     0.0000    47.9922 </r>
       <r>    34.1440     0.0145    47.9961 </r>
       <r>    34.4141     0.0144    48.0000 </r>
       <r>    34.6842     0.0000    48.0000 </r>
       <r>    34.9543     0.0000    48.0000 </r>
       <r>    35.2243     0.0000    48.0000 </r>
       <r>    35.4944     0.0000    48.0000 </r>
       <r>    35.7645     0.0000    48.0000 </r>
       <r>    36.0346     0.0000    48.0000 </r>
       <r>    36.3047     0.0000    48.0000 </r>
       <r>    36.5747     0.0000    48.0000 </r>
       <r>    36.8448     0.0000    48.0000 </r>
       <r>    37.1149     0.0000    48.0000 </r>
       <r>    37.3850     0.0000    48.0000 </r>
       <r>    37.6550     0.0000    48.0000 </r>
       <r>    37.9251     0.0000    48.0000 </r>
      </set>
      <set comment="spin 2">
       <r>   -43.0985     0.0000     0.0000 </r>
       <r>   -42.8284     0.0000     0.0000 </r>
       <r>   -42.5584     0.0000     0.0000 </r>
       <r>   -42.2883     0.0000     0.0000 </r>
       <r>   -42.0182     0.0000     0.0000 </r>
       <r>   -41.7481     0.0000     0.0000 </r>
       <r>   -41.4780     0.0000     0.0000 </r>
       <r>   -41.2080     0.0000     0.0000 </r>
       <r>   -40.9379     0.0000     0.0000 </r>
       <r>   -40.6678     0.0000     0.0000 </r>
       <r>   -40.3977     0.0000     0.0000 </r>
       <r>   -40.1276     0.0000     0.0000 </r>
       <r>   -39.8576     0.0000     0.0000 </r>
       <r>   -39.5875     0.0000     0.0000 </r>
       <r>   -39.3174    10.3314     2.7903 </r>
       <r>   -39.0473    11.0472     5.7739 </r>
       <r>   -38.7773     0.8371     6.0000 </r>
       <r>   -38.5072     0.0000     6.0000 </r>
       <r>   -38.2371     0.0000     6.0000 </r>
       <r>   -37.9670     0.0000     6.0000 </r>
       <r>   -37.6969     0.0000     6.0000 </r>
       <r>   -37.4269     0.0395     6.0107 </r>
       <r>   -37.1568    15.9022    10.3055 </r>
       <r>   -36.8867     6.2740    12.0000 </r>
       <r>   -36.6166     0.0000    12.0000 </r>
       <r>   -36.3465     0.0000    12.0000 </r>
       <r>   -36.0765     0.0000    12.0000 </r>
       <r>   -35.8064     0.0000    12.0000 </r>
       <r>   -35.5363     0.0000    12.0000 </r>
       <r>   -35.2662     0.0000    12.0000 </r>
       <r>   -34.9962     0.0000    12.0000 </r>
       <r>   -34.7261     0.0000    12.0000 </r>
       <r>   -34.4560     0.0000    12.0000 </r>
       <r>   -34.1859     0.0000    12.0000 </r>
       <r>   -33.9158     0.0000    12.0000 </r>
       <r>   -33.6458     0.0000    12.0000 </r>
       <r>   -33.3757     0.0000    12.0000 </r>
       <r>   -33.1056     0.0000    12.0000 </r>
       <r>   -32.8355     0.0000    12.0000 </r>
       <r>   -32.5654     0.0000    12.0000 </r>
       <r>   -32.2954     0.0000    12.0000 </r>
       <r>   -32.0253     0.0000    12.0000 </r>
       <r>   -31.7552     0.0000    12.0000 </r>
       <r>   -31.4851     0.0000    12.0000 </r>
       <r>   -31.2150     0.0000    12.0000 </r>
       <r>   -30.9450     0.0000    12.0000 </r>
       <r>   -30.6749     0.0000    12.0000 </r>
       <r>   -30.4048     0.0000    12.0000 </r>
       <r>   -30.1347     0.0000    12.0000 </r>
       <r>   -29.8647     0.0000    12.0000 </r>
       <r>   -29.5946     0.0000    12.0000 </r>
       <r>   -29.3245     0.0000    12.0000 </r>
       <r>   -29.0544     0.0000    12.0000 </r>
       <r>   -28.7843     0.0000    12.0000 </r>
       <r>   -28.5143     0.0000    12.0000 </r>
       <r>   -28.2442     0.0000    12.0000 </r>
       <r>   -27.9741     0.0000    12.0000 </r>
       <r>   -27.7040     0.0000    12.0000 </r>
       <r>   -27.4339     0.0000    12.0000 </r>
       <r>   -27.1639     0.0000    12.0000 </r>
       <r>   -26.8938     0.0000    12.0000 </r>
       <r>   -26.6237     0.0000    12.0000 </r>
       <r>   -26.3536     0.0000    12.0000 </r>
       <r>   -26.0836     0.0000    12.0000 </r>
       <r>   -25.8135     0.0000    12.0000 </r>
       <r>   -25.5434     0.0000    12.0000 </r>
       <r>   -25.2733     0.0000    12.0000 </r>
       <r>   -25.0032     0.0000    12.0000 </r>
       <r>   -24.7332     0.0000    12.0000 </r>
       <r>   -24.4631     0.0000    12.0000 </r>
       <r>   -24.1930     0.0000    12.0000 </r>
       <r>   -23.9229     0.0000    12.0000 </r>
       <r>   -23.6528     0.0000    12.0000 </r>
       <r>   -23.3828     0.0000    12.0000 </r>
       <r>   -23.1127     0.0000    12.0000 </r>
       <r>   -22.8426     0.0000    12.0000 </r>
       <r>   -22.5725     0.0000    12.0000 </r>
       <r>   -22.3024     0.0000    12.0000 </r>
       <r>   -22.0324     0.0000    12.0000 </r>
       <r>   -21.7623     0.0000    12.0000 </r>
       <r>   -21.4922     0.0000    12.0000 </r>
       <r>   -21.2221     0.0000    12.0000 </r>
       <r>   -20.9521     0.0000    12.0000 </r>
       <r>   -20.6820     0.0000    12.0000 </r>
       <r>   -20.4119     0.0000    12.0000 </r>
       <r>   -20.1418     0.0000    12.0000 </r>
       <r>   -19.8717     0.0000    12.0000 </r>
       <r>   -19.6017     0.0000    12.0000 </r>
       <r>   -19.3316     0.0000    12.0000 </r>
       <r>   -19.0615     0.0000    12.0000 </r>
       <r>   -18.7914     0.0000    12.0000 </r>
       <r>   -18.5213     0.0000    12.0000 </r>
       <r>   -18.2513     0.0000    12.0000 </r>
       <r>   -17.9812     0.0000    12.0000 </r>
       <r>   -17.7111     0.0000    12.0000 </r>
       <r>   -17.4410     0.0000    12.0000 </r>
       <r>   -17.1710     0.0000    12.0000 </r>
       <r>   -16.9009     0.0000    12.0000 </r>
       <r>   -16.6308     0.0000    12.0000 </r>
       <r>   -16.3607     0.0000    12.0000 </r>
       <r>   -16.0906     0.0000    12.0000 </r>
       <r>   -15.8206     0.0000    12.0000 </r>
       <r>   -15.5505     0.0000    12.0000 </r>
       <r>   -15.2804     0.0000    12.0000 </r>
       <r>   -15.0103     0.0000    12.0000 </r>
       <r>   -14.7402     0.0000    12.0000 </r>
       <r>   -14.4702     0.0000    12.0000 </r>
       <r>   -14.2001     0.0000    12.0000 </r>
       <r>   -13.9300     0.0000    12.0000 </r>
       <r>   -13.6599     0.0000    12.0000 </r>
       <r>   -13.3898     0.0000    12.0000 </r>
       <r>   -13.1198     0.0000    12.0000 </r>
       <r>   -12.8497     0.0000    12.0000 </r>
       <r>   -12.5796     0.0000    12.0000 </r>
       <r>   -12.3095     0.0000    12.0000 </r>
       <r>   -12.0395     0.0000    12.0000 </r>
       <r>   -11.7694     0.0000    12.0000 </r>
       <r>   -11.4993     0.0000    12.0000 </r>
       <r>   -11.2292     0.0000    12.0000 </r>
       <r>   -10.9591     0.0000    12.0000 </r>
       <r>   -10.6891     0.0000    12.0000 </r>
       <r>   -10.4190     0.0000    12.0000 </r>
       <r>   -10.1489     0.0000    12.0000 </r>
       <r>    -9.8788     0.0000    12.0000 </r>
       <r>    -9.6087     0.0000    12.0000 </r>
       <r>    -9.3387     0.0000    12.0000 </r>
       <r>    -9.0686     0.0000    12.0000 </r>
       <r>    -8.7985     0.0000    12.0000 </r>
       <r>    -8.5284     0.0000    12.0000 </r>
       <r>    -8.2583     0.0000    12.0000 </r>
       <r>    -7.9883     0.0000    12.0000 </r>
       <r>    -7.7182     0.0000    12.0000 </r>
       <r>    -7.4481     0.0000    12.0000 </r>
       <r>    -7.1780     0.0000    12.0000 </r>
       <r>    -6.9080     0.0000    12.0000 </r>
       <r>    -6.6379     0.0000    12.0000 </r>
       <r>    -6.3678     0.0000    12.0000 </r>
       <r>    -6.0977     0.0000    12.0000 </r>
       <r>    -5.8276     0.0000    12.0000 </r>
       <r>    -5.5576     0.0000    12.0000 </r>
       <r>    -5.2875     0.0000    12.0000 </r>
       <r>    -5.0174     0.0000    12.0000 </r>
       <r>    -4.7473     0.0000    12.0000 </r>
       <r>    -4.4772     0.0000    12.0000 </r>
       <r>    -4.2072     0.0000    12.0000 </r>
       <r>    -3.9371     0.0000    12.0000 </r>
       <r>    -3.6670     0.0000    12.0000 </r>
       <r>    -3.3969     0.0000    12.0000 </r>
       <r>    -3.1269     0.0000    12.0000 </r>
       <r>    -2.8568     0.0000    12.0000 </r>
       <r>    -2.5867     0.0000    12.0000 </r>
       <r>    -2.3166     0.0000    12.0000 </r>
       <r>    -2.0465     0.0000    12.0000 </r>
       <r>    -1.7765     0.0000    12.0000 </r>
       <r>    -1.5064     0.0000    12.0000 </r>
       <r>    -1.2363     0.0000    12.0000 </r>
       <r>    -0.9662     0.0000    12.0000 </r>
       <r>    -0.6961     0.0000    12.0000 </r>
       <r>    -0.4261     0.0000    12.0000 </r>
       <r>    -0.1560     0.0000    12.0000 </r>
       <r>     0.1141     0.0000    12.0000 </r>
       <r>     0.3842     0.0000    12.0000 </r>
       <r>     0.6543     0.0000    12.0000 </r>
       <r>     0.9243     0.0000    12.0000 </r>
       <r>     1.1944     0.0000    12.0000 </r>
       <r>     1.4645     0.0020    12.0005 </r>
       <r>     1.7346     0.0436    12.0123 </r>
       <r>     2.0046     0.0921    12.0372 </r>
       <r>     2.2747     0.0714    12.0565 </r>
       <r>     2.5448     0.1959    12.1094 </r>
       <r>     2.8149     0.1808    12.1582 </r>
       <r>     3.0850     0.0787    12.1795 </r>
       <r>     3.3550     0.2670    12.2516 </r>
       <r>     3.6251     0.3107    12.3355 </r>
       <r>     3.8952     0.1630    12.3795 </r>
       <r>     4.1653     0.4207    12.4931 </r>
       <r>     4.4354     0.3357    12.5838 </r>
       <r>     4.7054     0.4222    12.6978 </r>
       <r>     4.9755     0.6659    12.8777 </r>
       <r>     5.2456     0.8710    13.1129 </r>
       <r>     5.5157     2.0260    13.6601 </r>
       <r>     5.7857     2.1612    14.2438 </r>
       <r>     6.0558     2.2407    14.8489 </r>
       <r>     6.3259     2.9392    15.6428 </r>
       <r>     6.5960     3.1942    16.5054 </r>
       <r>     6.8661     3.1780    17.3638 </r>
       <r>     7.1361     2.6616    18.0826 </r>
       <r>     7.4062     2.6188    18.7899 </r>
       <r>     7.6763     2.7673    19.5373 </r>
       <r>     7.9464     3.3901    20.4529 </r>
       <r>     8.2165     2.7627    21.1991 </r>
       <r>     8.4865     4.5096    22.4170 </r>
       <r>     8.7566     3.4662    23.3531 </r>
       <r>     9.0267     3.9245    24.4131 </r>
       <r>     9.2968     3.4571    25.3468 </r>
       <r>     9.5669     3.1973    26.2103 </r>
       <r>     9.8369     1.8505    26.7101 </r>
       <r>    10.1070     1.5704    27.1342 </r>
       <r>    10.3771     1.7999    27.6203 </r>
       <r>    10.6472     3.3765    28.5323 </r>
       <r>    10.9172     4.1227    29.6457 </r>
       <r>    11.1873     3.6972    30.6443 </r>
       <r>    11.4574     3.7653    31.6612 </r>
       <r>    11.7275     4.3777    32.8435 </r>
       <r>    11.9976     1.6030    33.2765 </r>
       <r>    12.2676     1.3022    33.6282 </r>
       <r>    12.5377     0.6165    33.7947 </r>
       <r>    12.8078     0.5177    33.9345 </r>
       <r>    13.0779     0.7993    34.1504 </r>
       <r>    13.3480     0.4569    34.2738 </r>
       <r>    13.6180     0.6264    34.4429 </r>
       <r>    13.8881     0.5549    34.5928 </r>
       <r>    14.1582     0.5669    34.7459 </r>
       <r>    14.4283     0.8819    34.9841 </r>
       <r>    14.6983     0.3861    35.0884 </r>
       <r>    14.9684     0.4879    35.2201 </r>
       <r>    15.2385     0.1687    35.2657 </r>
       <r>    15.5086     0.5908    35.4252 </r>
       <r>    15.7787     0.3166    35.5108 </r>
       <r>    16.0487     0.4136    35.6225 </r>
       <r>    16.3188     0.4866    35.7539 </r>
       <r>    16.5889     0.0000    35.7539 </r>
       <r>    16.8590     0.2441    35.8198 </r>
       <r>    17.1291     0.2765    35.8945 </r>
       <r>    17.3991     0.3396    35.9862 </r>
       <r>    17.6692     0.0078    35.9883 </r>
       <r>    17.9393     0.6078    36.1525 </r>
       <r>    18.2094     0.6058    36.3161 </r>
       <r>    18.4795     1.1766    36.6339 </r>
       <r>    18.7495     0.6866    36.8193 </r>
       <r>    19.0196     0.3567    36.9157 </r>
       <r>    19.2897     0.9781    37.1798 </r>
       <r>    19.5598     0.2284    37.2415 </r>
       <r>    19.8298     0.5179    37.3814 </r>
       <r>    20.0999     0.5775    37.5374 </r>
       <r>    20.3700     0.2571    37.6068 </r>
       <r>    20.6401     0.7039    37.7969 </r>
       <r>    20.9102     0.6759    37.9795 </r>
       <r>    21.1802     0.7242    38.1751 </r>
       <r>    21.4503     0.7358    38.3738 </r>
       <r>    21.7204     0.5945    38.5344 </r>
       <r>    21.9905     0.9108    38.7804 </r>
       <r>    22.2606     0.8148    39.0004 </r>
       <r>    22.5306     0.8870    39.2400 </r>
       <r>    22.8007     1.3891    39.6151 </r>
       <r>    23.0708     0.7119    39.8074 </r>
       <r>    23.3409     0.5359    39.9521 </r>
       <r>    23.6109     0.9461    40.2077 </r>
       <r>    23.8810     1.0255    40.4846 </r>
       <r>    24.1511     0.7161    40.6781 </r>
       <r>    24.4212     0.8170    40.8987 </r>
       <r>    24.6913     1.6266    41.3380 </r>
       <r>    24.9613     0.6021    41.5007 </r>
       <r>    25.2314     0.8311    41.7251 </r>
       <r>    25.5015     1.1936    42.0475 </r>
       <r>    25.7716     1.1720    42.3640 </r>
       <r>    26.0417     0.9352    42.6166 </r>
       <r>    26.3117     0.9185    42.8647 </r>
       <r>    26.5818     0.6681    43.0451 </r>
       <r>    26.8519     0.9719    43.3076 </r>
       <r>    27.1220     0.6339    43.4788 </r>
       <r>    27.3921     0.8482    43.7079 </r>
       <r>    27.6621     1.4532    44.1004 </r>
       <r>    27.9322     0.5927    44.2605 </r>
       <r>    28.2023     1.2840    44.6072 </r>
       <r>    28.4724     0.8306    44.8316 </r>
       <r>    28.7424     0.7753    45.0409 </r>
       <r>    29.0125     0.4293    45.1569 </r>
       <r>    29.2826     0.7016    45.3464 </r>
       <r>    29.5527     1.5202    45.7569 </r>
       <r>    29.8228     0.7338    45.9551 </r>
       <r>    30.0928     0.6089    46.1196 </r>
       <r>    30.3629     0.6511    46.2954 </r>
       <r>    30.6330     0.4771    46.4243 </r>
       <r>    30.9031     0.6267    46.5936 </r>
       <r>    31.1732     0.8375    46.8197 </r>
       <r>    31.4432     1.4413    47.2090 </r>
       <r>    31.7133     1.0207    47.4847 </r>
       <r>    31.9834     0.7207    47.6793 </r>
       <r>    32.2535     0.2278    47.7408 </r>
       <r>    32.5235     0.0195    47.7461 </r>
       <r>    32.7936     0.6524    47.9223 </r>
       <r>    33.0637     0.1745    47.9694 </r>
       <r>    33.3338     0.0842    47.9922 </r>
       <r>    33.6039     0.0000    47.9922 </r>
       <r>    33.8739     0.0000    47.9922 </r>
       <r>    34.1440     0.0145    47.9961 </r>
       <r>    34.4141     0.0144    48.0000 </r>
       <r>    34.6842     0.0000    48.0000 </r>
       <r>    34.9543     0.0000    48.0000 </r>
       <r>    35.2243     0.0000    48.0000 </r>
       <r>    35.4944     0.0000    48.0000 </r>
       <r>    35.7645     0.0000    48.0000 </r>
       <r>    36.0346     0.0000    48.0000 </r>
       <r>    36.3047     0.0000    48.0000 </r>
       <r>    36.5747     0.0000    48.0000 </r>
       <r>    36.8448     0.0000    48.0000 </r>
       <r>    37.1149     0.0000    48.0000 </r>
       <r>    37.3850     0.0000    48.0000 </r>
       <r>    37.6550     0.0000    48.0000 </r>
       <r>    37.9251     0.0000    48.0000 </r>
      </set>
     </set>
    </array>
   </total>
  </dos>
 </calculation>
 <structure name="finalpos" >
  <crystal>
   <varray name="basis" >
    <v>       3.59552000       0.00000000       0.00000000 </v>
    <v>       0.00000000       3.59552000       0.00000000 </v>
    <v>       0.00000000       0.00000000       3.59552000 </v>
   </varray>
   <i name="volume">     46.48203427 </i>
   <varray name="rec_basis" >
    <v>       0.27812389      -0.00000000       0.00000000 </v>
    <v>       0.00000000       0.27812389       0.00000000 </v>
    <v>      -0.00000000      -0.00000000       0.27812389 </v>
   </varray>
  </crystal>
  <varray name="positions" >
   <v>       0.00000000       0.00000000       0.00000000 </v>
   <v>       0.00000000       0.50000000       0.50000000 </v>
   <v>       0.50000000       0.00000000       0.50000000 </v>
   <v>       0.50000000       0.50000000       0.00000000 </v>
  </varray>
 </structure>
</modeling>
