 DBCSR| CPU Multiplication driver                                           BLAS (U)
 DBCSR| Multrec recursion limit                                              512 (U)
 DBCSR| Multiplication stack size                                           1000 (D)
 DBCSR| Maximum elements for images                                    UNLIMITED (U)
 DBCSR| Multiplicative factor virtual images                                   1 (U)
 DBCSR| Use multiplication densification                                       T (D)
 DBCSR| Multiplication size stacks                                             3 (U)
 DBCSR| Use memory pool for CPU allocation                                     F (U)
 DBCSR| Number of 3D layers                                               SINGLE (U)
 DBCSR| Use MPI memory allocation                                              F (U)
 DBCSR| Use RMA algorithm                                                      F (U)
 DBCSR| Use Communication thread                                               T (U)
 DBCSR| Communication thread load                                             45 (D)
 DBCSR| MPI: My process id                                                     0
 DBCSR| MPI: Number of processes                                               8
 DBCSR| OMP: Current number of threads                                        12
 DBCSR| OMP: Max number of threads                                            12
 DBCSR| Split modifier for TAS multiplication algorithm                  1.0E+00 (U)


  **** **** ******  **  PROGRAM STARTED AT               2025-08-05 00:17:29.794
 ***** ** ***  *** **   PROGRAM STARTED ON                          i01r09c04s11
 **    ****   ******    PROGRAM STARTED BY                               di38fab
 ***** **    ** ** **   PROGRAM PROCESS ID                                 65560
  **** **  *******  **  PROGRAM STARTED IN /hppfs/scratch/04/di38fab/09_GTH/Delt
                                           a_Set/Cd/aug-DZVP-MOLOPT-GTH-tier-2/8
                                           x8x8

 CP2K| version string:                 CP2K version 2025.1 (Development Version)
 CP2K| source code revision number:                                  git:3130539
 CP2K| cp2kflags: omp libint fftw3 libxc parallel scalapack max_contr=4         
 CP2K| is freely available from                            https://www.cp2k.org/
 CP2K| Program compiled at                         Tue Jun  3 16:14:32 CEST 2025
 CP2K| Program compiled on                                               login01
 CP2K| Program compiled for                                        Supermuc-foss
 CP2K| Data directory path                  /hppfs/work/pn36zo/di38fab/cp2k/data
 CP2K| Input file name                                                    GW.inp

 GLOBAL| Force Environment number                                              1
 GLOBAL| Basis set file name            /hppfs/scratch/04/di38fab/09_GTH/BASIS_A
 GLOBAL| Potential file name            /hppfs/work/pn36zo/di38fab/cp2k/data/GTH
 GLOBAL| MM Potential file name                                     MM_POTENTIAL
 GLOBAL| Coordinate file name                                             Cd.cif
 GLOBAL| Method name                                                        CP2K
 GLOBAL| Project name                                                       WSe2
 GLOBAL| Run type                                                         ENERGY
 GLOBAL| FFT library                                                       FFTW3
 GLOBAL| Diagonalization library                                       ScaLAPACK
 GLOBAL| Cholesky decomposition library                                ScaLAPACK
 GLOBAL| DGEMM library                                                      BLAS
 GLOBAL| Orthonormality check for eigenvectors                          DISABLED
 GLOBAL| Matrix multiplication library                                 ScaLAPACK
 GLOBAL| All-to-all communication in single precision                          F
 GLOBAL| FFTs using library dependent lengths                                  F
 GLOBAL| Grid backend                                                       AUTO
 GLOBAL| Global print level                                               MEDIUM
 GLOBAL| MPI I/O enabled                                                       T
 GLOBAL| Total number of message passing processes                             8
 GLOBAL| Number of threads for this process                                   12
 GLOBAL| This output is from process                                           0
 GLOBAL| OpenMP stack size per thread (OMP_STACKSIZE)                    default
 GLOBAL| CPU model name             Intel(R) Xeon(R) Platinum 8174 CPU @ 3.10GHz

 MEMORY| system memory details [Kb]
 MEMORY|                        rank 0           min           max       average
 MEMORY| MemTotal             98436664      98436664      98436664      98436664
 MEMORY| MemFree              84699352      84699352      84759820      84729586
 MEMORY| Buffers                     0             0             0             0
 MEMORY| Cached                2357104       2357104       2378636       2367870
 MEMORY| Slab                  1274168       1274168       1285084       1279626
 MEMORY| SReclaimable           273688        272564        273688        273126
 MEMORY| MemLikelyFree        87330144      87330144      87411020      87370582


 *** Fundamental physical constants (SI units) ***

 *** Literature: B. J. Mohr and B. N. Taylor,
 ***             CODATA recommended values of the fundamental physical
 ***             constants: 2006, Web Version 5.1
 ***             http://physics.nist.gov/constants

 Speed of light in vacuum [m/s]                             2.99792458000000E+08
 Magnetic constant or permeability of vacuum [N/A**2]       1.25663706143592E-06
 Electric constant or permittivity of vacuum [F/m]          8.85418781762039E-12
 Planck constant (h) [J*s]                                  6.62606896000000E-34
 Planck constant (h-bar) [J*s]                              1.05457162825177E-34
 Elementary charge [C]                                      1.60217648700000E-19
 Electron mass [kg]                                         9.10938215000000E-31
 Electron g factor [ ]                                     -2.00231930436220E+00
 Proton mass [kg]                                           1.67262163700000E-27
 Fine-structure constant                                    7.29735253760000E-03
 Rydberg constant [1/m]                                     1.09737315685270E+07
 Avogadro constant [1/mol]                                  6.02214179000000E+23
 Boltzmann constant [J/K]                                   1.38065040000000E-23
 Atomic mass unit [kg]                                      1.66053878200000E-27
 Bohr radius [m]                                            5.29177208590000E-11

 *** Conversion factors ***

 [u] -> [a.u.]                                              1.82288848426455E+03
 [Angstrom] -> [Bohr] = [a.u.]                              1.88972613288564E+00
 [a.u.] = [Bohr] -> [Angstrom]                              5.29177208590000E-01
 [a.u.] -> [s]                                              2.41888432650478E-17
 [a.u.] -> [fs]                                             2.41888432650478E-02
 [a.u.] -> [J]                                              4.35974393937059E-18
 [a.u.] -> [N]                                              8.23872205491840E-08
 [a.u.] -> [K]                                              3.15774647902944E+05
 [a.u.] -> [kJ/mol]                                         2.62549961709828E+03
 [a.u.] -> [kcal/mol]                                       6.27509468713739E+02
 [a.u.] -> [Pa]                                             2.94210107994716E+13
 [a.u.] -> [bar]                                            2.94210107994716E+08
 [a.u.] -> [atm]                                            2.90362800883016E+08
 [a.u.] -> [eV]                                             2.72113838565563E+01
 [a.u.] -> [Hz]                                             6.57968392072181E+15
 [a.u.] -> [1/cm] (wave numbers)                            2.19474631370540E+05
 [a.u./Bohr**2] -> [1/cm]                                   5.14048714338585E+03
 

 CELL_TOP| Volume [angstrom^3]:                                        46.098596
 CELL_TOP| Vector a [angstrom     3.037     0.000     0.000   |a| =     3.037160
 CELL_TOP| Vector b [angstrom     1.519     2.630     0.000   |b| =     3.037160
 CELL_TOP| Vector c [angstrom     0.000     0.000     5.771   |c| =     5.770610
 CELL_TOP| Angle (b,c), alpha [degree]:                                90.000000
 CELL_TOP| Angle (a,c), beta  [degree]:                                90.000000
 CELL_TOP| Angle (a,b), gamma [degree]:                                60.000000
 CELL_TOP| Numerically orthorhombic:                                          NO
 CELL_TOP| Periodicity                                                       XYZ

 CELL_CIF| Volume [angstrom^3]:                                        46.098596
 CELL_CIF| Vector a [angstrom     3.037     0.000     0.000   |a| =     3.037160
 CELL_CIF| Vector b [angstrom     1.519     2.630     0.000   |b| =     3.037160
 CELL_CIF| Vector c [angstrom     0.000     0.000     5.771   |c| =     5.770610
 CELL_CIF| Angle (b,c), alpha [degree]:                                90.000000
 CELL_CIF| Angle (a,c), beta  [degree]:                                90.000000
 CELL_CIF| Angle (a,b), gamma [degree]:                                60.000000
 CELL_CIF| Numerically orthorhombic:                                          NO
 CELL_CIF| Periodicity                                                       XYZ

 GENERATE|  Preliminary Number of Bonds generated:                             0
 GENERATE|  Achieved consistency in connectivity generation.

 CELL| Volume [angstrom^3]:                                            46.098596
 CELL| Vector a [angstrom]:       3.037     0.000     0.000   |a| =     3.037160
 CELL| Vector b [angstrom]:       1.519     2.630     0.000   |b| =     3.037160
 CELL| Vector c [angstrom]:       0.000     0.000     5.771   |c| =     5.770610
 CELL| Angle (b,c), alpha [degree]:                                    90.000000
 CELL| Angle (a,c), beta  [degree]:                                    90.000000
 CELL| Angle (a,b), gamma [degree]:                                    60.000000
 CELL| Numerically orthorhombic:                                              NO
 CELL| Periodicity                                                           XYZ

 CELL_REF| Volume [angstrom^3]:                                        46.098596
 CELL_REF| Vector a [angstrom     3.037     0.000     0.000   |a| =     3.037160
 CELL_REF| Vector b [angstrom     1.519     2.630     0.000   |b| =     3.037160
 CELL_REF| Vector c [angstrom     0.000     0.000     5.771   |c| =     5.770610
 CELL_REF| Angle (b,c), alpha [degree]:                                90.000000
 CELL_REF| Angle (a,c), beta  [degree]:                                90.000000
 CELL_REF| Angle (a,b), gamma [degree]:                                60.000000
 CELL_REF| Numerically orthorhombic:                                          NO
 CELL_REF| Periodicity                                                       XYZ

 *** WARNING in cryssym.F:180 :: Symmetry library SPGLIB not available ***


 *******************************************************************************
                                    Kpoints
 *******************************************************************************
 BRILLOUIN| K-point scheme                                        Monkhorst-Pack
 BRILLOUIN| K-Point grid                                             8    8    8
 BRILLOUIN| Accuracy in Symmetry determination                      0.100000E-05
 BRILLOUIN| K-Point point group symmetrization                               OFF
 BRILLOUIN| Wavefunction type                                            COMPLEX
 BRILLOUIN| List of Kpoints [2 Pi/Bohr]                                      256
 BRILLOUIN| Number           Weight            X              Y              Z
 BRILLOUIN|     1           0.00391       -0.43750       -0.43750       -0.43750
 BRILLOUIN|     2           0.00391       -0.43750       -0.43750       -0.31250
 BRILLOUIN|     3           0.00391       -0.43750       -0.43750       -0.18750
 BRILLOUIN|     4           0.00391       -0.43750       -0.43750       -0.06250
 BRILLOUIN|     5           0.00391       -0.43750       -0.43750        0.06250
 BRILLOUIN|     6           0.00391       -0.43750       -0.43750        0.18750
 BRILLOUIN|     7           0.00391       -0.43750       -0.43750        0.31250
 BRILLOUIN|     8           0.00391       -0.43750       -0.43750        0.43750
 BRILLOUIN|     9           0.00391       -0.43750       -0.31250       -0.43750
 BRILLOUIN|    10           0.00391       -0.43750       -0.31250       -0.31250
 BRILLOUIN|    11           0.00391       -0.43750       -0.31250       -0.18750
 BRILLOUIN|    12           0.00391       -0.43750       -0.31250       -0.06250
 BRILLOUIN|    13           0.00391       -0.43750       -0.31250        0.06250
 BRILLOUIN|    14           0.00391       -0.43750       -0.31250        0.18750
 BRILLOUIN|    15           0.00391       -0.43750       -0.31250        0.31250
 BRILLOUIN|    16           0.00391       -0.43750       -0.31250        0.43750
 BRILLOUIN|    17           0.00391       -0.43750       -0.18750       -0.43750
 BRILLOUIN|    18           0.00391       -0.43750       -0.18750       -0.31250
 BRILLOUIN|    19           0.00391       -0.43750       -0.18750       -0.18750
 BRILLOUIN|    20           0.00391       -0.43750       -0.18750       -0.06250
 BRILLOUIN|    21           0.00391       -0.43750       -0.18750        0.06250
 BRILLOUIN|    22           0.00391       -0.43750       -0.18750        0.18750
 BRILLOUIN|    23           0.00391       -0.43750       -0.18750        0.31250
 BRILLOUIN|    24           0.00391       -0.43750       -0.18750        0.43750
 BRILLOUIN|    25           0.00391       -0.43750       -0.06250       -0.43750
 BRILLOUIN|    26           0.00391       -0.43750       -0.06250       -0.31250
 BRILLOUIN|    27           0.00391       -0.43750       -0.06250       -0.18750
 BRILLOUIN|    28           0.00391       -0.43750       -0.06250       -0.06250
 BRILLOUIN|    29           0.00391       -0.43750       -0.06250        0.06250
 BRILLOUIN|    30           0.00391       -0.43750       -0.06250        0.18750
 BRILLOUIN|    31           0.00391       -0.43750       -0.06250        0.31250
 BRILLOUIN|    32           0.00391       -0.43750       -0.06250        0.43750
 BRILLOUIN|    33           0.00391       -0.43750        0.06250       -0.43750
 BRILLOUIN|    34           0.00391       -0.43750        0.06250       -0.31250
 BRILLOUIN|    35           0.00391       -0.43750        0.06250       -0.18750
 BRILLOUIN|    36           0.00391       -0.43750        0.06250       -0.06250
 BRILLOUIN|    37           0.00391       -0.43750        0.06250        0.06250
 BRILLOUIN|    38           0.00391       -0.43750        0.06250        0.18750
 BRILLOUIN|    39           0.00391       -0.43750        0.06250        0.31250
 BRILLOUIN|    40           0.00391       -0.43750        0.06250        0.43750
 BRILLOUIN|    41           0.00391       -0.43750        0.18750       -0.43750
 BRILLOUIN|    42           0.00391       -0.43750        0.18750       -0.31250
 BRILLOUIN|    43           0.00391       -0.43750        0.18750       -0.18750
 BRILLOUIN|    44           0.00391       -0.43750        0.18750       -0.06250
 BRILLOUIN|    45           0.00391       -0.43750        0.18750        0.06250
 BRILLOUIN|    46           0.00391       -0.43750        0.18750        0.18750
 BRILLOUIN|    47           0.00391       -0.43750        0.18750        0.31250
 BRILLOUIN|    48           0.00391       -0.43750        0.18750        0.43750
 BRILLOUIN|    49           0.00391       -0.43750        0.31250       -0.43750
 BRILLOUIN|    50           0.00391       -0.43750        0.31250       -0.31250
 BRILLOUIN|    51           0.00391       -0.43750        0.31250       -0.18750
 BRILLOUIN|    52           0.00391       -0.43750        0.31250       -0.06250
 BRILLOUIN|    53           0.00391       -0.43750        0.31250        0.06250
 BRILLOUIN|    54           0.00391       -0.43750        0.31250        0.18750
 BRILLOUIN|    55           0.00391       -0.43750        0.31250        0.31250
 BRILLOUIN|    56           0.00391       -0.43750        0.31250        0.43750
 BRILLOUIN|    57           0.00391       -0.43750        0.43750       -0.43750
 BRILLOUIN|    58           0.00391       -0.43750        0.43750       -0.31250
 BRILLOUIN|    59           0.00391       -0.43750        0.43750       -0.18750
 BRILLOUIN|    60           0.00391       -0.43750        0.43750       -0.06250
 BRILLOUIN|    61           0.00391       -0.43750        0.43750        0.06250
 BRILLOUIN|    62           0.00391       -0.43750        0.43750        0.18750
 BRILLOUIN|    63           0.00391       -0.43750        0.43750        0.31250
 BRILLOUIN|    64           0.00391       -0.43750        0.43750        0.43750
 BRILLOUIN|    65           0.00391       -0.31250       -0.43750       -0.43750
 BRILLOUIN|    66           0.00391       -0.31250       -0.43750       -0.31250
 BRILLOUIN|    67           0.00391       -0.31250       -0.43750       -0.18750
 BRILLOUIN|    68           0.00391       -0.31250       -0.43750       -0.06250
 BRILLOUIN|    69           0.00391       -0.31250       -0.43750        0.06250
 BRILLOUIN|    70           0.00391       -0.31250       -0.43750        0.18750
 BRILLOUIN|    71           0.00391       -0.31250       -0.43750        0.31250
 BRILLOUIN|    72           0.00391       -0.31250       -0.43750        0.43750
 BRILLOUIN|    73           0.00391       -0.31250       -0.31250       -0.43750
 BRILLOUIN|    74           0.00391       -0.31250       -0.31250       -0.31250
 BRILLOUIN|    75           0.00391       -0.31250       -0.31250       -0.18750
 BRILLOUIN|    76           0.00391       -0.31250       -0.31250       -0.06250
 BRILLOUIN|    77           0.00391       -0.31250       -0.31250        0.06250
 BRILLOUIN|    78           0.00391       -0.31250       -0.31250        0.18750
 BRILLOUIN|    79           0.00391       -0.31250       -0.31250        0.31250
 BRILLOUIN|    80           0.00391       -0.31250       -0.31250        0.43750
 BRILLOUIN|    81           0.00391       -0.31250       -0.18750       -0.43750
 BRILLOUIN|    82           0.00391       -0.31250       -0.18750       -0.31250
 BRILLOUIN|    83           0.00391       -0.31250       -0.18750       -0.18750
 BRILLOUIN|    84           0.00391       -0.31250       -0.18750       -0.06250
 BRILLOUIN|    85           0.00391       -0.31250       -0.18750        0.06250
 BRILLOUIN|    86           0.00391       -0.31250       -0.18750        0.18750
 BRILLOUIN|    87           0.00391       -0.31250       -0.18750        0.31250
 BRILLOUIN|    88           0.00391       -0.31250       -0.18750        0.43750
 BRILLOUIN|    89           0.00391       -0.31250       -0.06250       -0.43750
 BRILLOUIN|    90           0.00391       -0.31250       -0.06250       -0.31250
 BRILLOUIN|    91           0.00391       -0.31250       -0.06250       -0.18750
 BRILLOUIN|    92           0.00391       -0.31250       -0.06250       -0.06250
 BRILLOUIN|    93           0.00391       -0.31250       -0.06250        0.06250
 BRILLOUIN|    94           0.00391       -0.31250       -0.06250        0.18750
 BRILLOUIN|    95           0.00391       -0.31250       -0.06250        0.31250
 BRILLOUIN|    96           0.00391       -0.31250       -0.06250        0.43750
 BRILLOUIN|    97           0.00391       -0.31250        0.06250       -0.43750
 BRILLOUIN|    98           0.00391       -0.31250        0.06250       -0.31250
 BRILLOUIN|    99           0.00391       -0.31250        0.06250       -0.18750
 BRILLOUIN|   100           0.00391       -0.31250        0.06250       -0.06250
 BRILLOUIN|   101           0.00391       -0.31250        0.06250        0.06250
 BRILLOUIN|   102           0.00391       -0.31250        0.06250        0.18750
 BRILLOUIN|   103           0.00391       -0.31250        0.06250        0.31250
 BRILLOUIN|   104           0.00391       -0.31250        0.06250        0.43750
 BRILLOUIN|   105           0.00391       -0.31250        0.18750       -0.43750
 BRILLOUIN|   106           0.00391       -0.31250        0.18750       -0.31250
 BRILLOUIN|   107           0.00391       -0.31250        0.18750       -0.18750
 BRILLOUIN|   108           0.00391       -0.31250        0.18750       -0.06250
 BRILLOUIN|   109           0.00391       -0.31250        0.18750        0.06250
 BRILLOUIN|   110           0.00391       -0.31250        0.18750        0.18750
 BRILLOUIN|   111           0.00391       -0.31250        0.18750        0.31250
 BRILLOUIN|   112           0.00391       -0.31250        0.18750        0.43750
 BRILLOUIN|   113           0.00391       -0.31250        0.31250       -0.43750
 BRILLOUIN|   114           0.00391       -0.31250        0.31250       -0.31250
 BRILLOUIN|   115           0.00391       -0.31250        0.31250       -0.18750
 BRILLOUIN|   116           0.00391       -0.31250        0.31250       -0.06250
 BRILLOUIN|   117           0.00391       -0.31250        0.31250        0.06250
 BRILLOUIN|   118           0.00391       -0.31250        0.31250        0.18750
 BRILLOUIN|   119           0.00391       -0.31250        0.31250        0.31250
 BRILLOUIN|   120           0.00391       -0.31250        0.31250        0.43750
 BRILLOUIN|   121           0.00391       -0.31250        0.43750       -0.43750
 BRILLOUIN|   122           0.00391       -0.31250        0.43750       -0.31250
 BRILLOUIN|   123           0.00391       -0.31250        0.43750       -0.18750
 BRILLOUIN|   124           0.00391       -0.31250        0.43750       -0.06250
 BRILLOUIN|   125           0.00391       -0.31250        0.43750        0.06250
 BRILLOUIN|   126           0.00391       -0.31250        0.43750        0.18750
 BRILLOUIN|   127           0.00391       -0.31250        0.43750        0.31250
 BRILLOUIN|   128           0.00391       -0.31250        0.43750        0.43750
 BRILLOUIN|   129           0.00391       -0.18750       -0.43750       -0.43750
 BRILLOUIN|   130           0.00391       -0.18750       -0.43750       -0.31250
 BRILLOUIN|   131           0.00391       -0.18750       -0.43750       -0.18750
 BRILLOUIN|   132           0.00391       -0.18750       -0.43750       -0.06250
 BRILLOUIN|   133           0.00391       -0.18750       -0.43750        0.06250
 BRILLOUIN|   134           0.00391       -0.18750       -0.43750        0.18750
 BRILLOUIN|   135           0.00391       -0.18750       -0.43750        0.31250
 BRILLOUIN|   136           0.00391       -0.18750       -0.43750        0.43750
 BRILLOUIN|   137           0.00391       -0.18750       -0.31250       -0.43750
 BRILLOUIN|   138           0.00391       -0.18750       -0.31250       -0.31250
 BRILLOUIN|   139           0.00391       -0.18750       -0.31250       -0.18750
 BRILLOUIN|   140           0.00391       -0.18750       -0.31250       -0.06250
 BRILLOUIN|   141           0.00391       -0.18750       -0.31250        0.06250
 BRILLOUIN|   142           0.00391       -0.18750       -0.31250        0.18750
 BRILLOUIN|   143           0.00391       -0.18750       -0.31250        0.31250
 BRILLOUIN|   144           0.00391       -0.18750       -0.31250        0.43750
 BRILLOUIN|   145           0.00391       -0.18750       -0.18750       -0.43750
 BRILLOUIN|   146           0.00391       -0.18750       -0.18750       -0.31250
 BRILLOUIN|   147           0.00391       -0.18750       -0.18750       -0.18750
 BRILLOUIN|   148           0.00391       -0.18750       -0.18750       -0.06250
 BRILLOUIN|   149           0.00391       -0.18750       -0.18750        0.06250
 BRILLOUIN|   150           0.00391       -0.18750       -0.18750        0.18750
 BRILLOUIN|   151           0.00391       -0.18750       -0.18750        0.31250
 BRILLOUIN|   152           0.00391       -0.18750       -0.18750        0.43750
 BRILLOUIN|   153           0.00391       -0.18750       -0.06250       -0.43750
 BRILLOUIN|   154           0.00391       -0.18750       -0.06250       -0.31250
 BRILLOUIN|   155           0.00391       -0.18750       -0.06250       -0.18750
 BRILLOUIN|   156           0.00391       -0.18750       -0.06250       -0.06250
 BRILLOUIN|   157           0.00391       -0.18750       -0.06250        0.06250
 BRILLOUIN|   158           0.00391       -0.18750       -0.06250        0.18750
 BRILLOUIN|   159           0.00391       -0.18750       -0.06250        0.31250
 BRILLOUIN|   160           0.00391       -0.18750       -0.06250        0.43750
 BRILLOUIN|   161           0.00391       -0.18750        0.06250       -0.43750
 BRILLOUIN|   162           0.00391       -0.18750        0.06250       -0.31250
 BRILLOUIN|   163           0.00391       -0.18750        0.06250       -0.18750
 BRILLOUIN|   164           0.00391       -0.18750        0.06250       -0.06250
 BRILLOUIN|   165           0.00391       -0.18750        0.06250        0.06250
 BRILLOUIN|   166           0.00391       -0.18750        0.06250        0.18750
 BRILLOUIN|   167           0.00391       -0.18750        0.06250        0.31250
 BRILLOUIN|   168           0.00391       -0.18750        0.06250        0.43750
 BRILLOUIN|   169           0.00391       -0.18750        0.18750       -0.43750
 BRILLOUIN|   170           0.00391       -0.18750        0.18750       -0.31250
 BRILLOUIN|   171           0.00391       -0.18750        0.18750       -0.18750
 BRILLOUIN|   172           0.00391       -0.18750        0.18750       -0.06250
 BRILLOUIN|   173           0.00391       -0.18750        0.18750        0.06250
 BRILLOUIN|   174           0.00391       -0.18750        0.18750        0.18750
 BRILLOUIN|   175           0.00391       -0.18750        0.18750        0.31250
 BRILLOUIN|   176           0.00391       -0.18750        0.18750        0.43750
 BRILLOUIN|   177           0.00391       -0.18750        0.31250       -0.43750
 BRILLOUIN|   178           0.00391       -0.18750        0.31250       -0.31250
 BRILLOUIN|   179           0.00391       -0.18750        0.31250       -0.18750
 BRILLOUIN|   180           0.00391       -0.18750        0.31250       -0.06250
 BRILLOUIN|   181           0.00391       -0.18750        0.31250        0.06250
 BRILLOUIN|   182           0.00391       -0.18750        0.31250        0.18750
 BRILLOUIN|   183           0.00391       -0.18750        0.31250        0.31250
 BRILLOUIN|   184           0.00391       -0.18750        0.31250        0.43750
 BRILLOUIN|   185           0.00391       -0.18750        0.43750       -0.43750
 BRILLOUIN|   186           0.00391       -0.18750        0.43750       -0.31250
 BRILLOUIN|   187           0.00391       -0.18750        0.43750       -0.18750
 BRILLOUIN|   188           0.00391       -0.18750        0.43750       -0.06250
 BRILLOUIN|   189           0.00391       -0.18750        0.43750        0.06250
 BRILLOUIN|   190           0.00391       -0.18750        0.43750        0.18750
 BRILLOUIN|   191           0.00391       -0.18750        0.43750        0.31250
 BRILLOUIN|   192           0.00391       -0.18750        0.43750        0.43750
 BRILLOUIN|   193           0.00391       -0.06250       -0.43750       -0.43750
 BRILLOUIN|   194           0.00391       -0.06250       -0.43750       -0.31250
 BRILLOUIN|   195           0.00391       -0.06250       -0.43750       -0.18750
 BRILLOUIN|   196           0.00391       -0.06250       -0.43750       -0.06250
 BRILLOUIN|   197           0.00391       -0.06250       -0.43750        0.06250
 BRILLOUIN|   198           0.00391       -0.06250       -0.43750        0.18750
 BRILLOUIN|   199           0.00391       -0.06250       -0.43750        0.31250
 BRILLOUIN|   200           0.00391       -0.06250       -0.43750        0.43750
 BRILLOUIN|   201           0.00391       -0.06250       -0.31250       -0.43750
 BRILLOUIN|   202           0.00391       -0.06250       -0.31250       -0.31250
 BRILLOUIN|   203           0.00391       -0.06250       -0.31250       -0.18750
 BRILLOUIN|   204           0.00391       -0.06250       -0.31250       -0.06250
 BRILLOUIN|   205           0.00391       -0.06250       -0.31250        0.06250
 BRILLOUIN|   206           0.00391       -0.06250       -0.31250        0.18750
 BRILLOUIN|   207           0.00391       -0.06250       -0.31250        0.31250
 BRILLOUIN|   208           0.00391       -0.06250       -0.31250        0.43750
 BRILLOUIN|   209           0.00391       -0.06250       -0.18750       -0.43750
 BRILLOUIN|   210           0.00391       -0.06250       -0.18750       -0.31250
 BRILLOUIN|   211           0.00391       -0.06250       -0.18750       -0.18750
 BRILLOUIN|   212           0.00391       -0.06250       -0.18750       -0.06250
 BRILLOUIN|   213           0.00391       -0.06250       -0.18750        0.06250
 BRILLOUIN|   214           0.00391       -0.06250       -0.18750        0.18750
 BRILLOUIN|   215           0.00391       -0.06250       -0.18750        0.31250
 BRILLOUIN|   216           0.00391       -0.06250       -0.18750        0.43750
 BRILLOUIN|   217           0.00391       -0.06250       -0.06250       -0.43750
 BRILLOUIN|   218           0.00391       -0.06250       -0.06250       -0.31250
 BRILLOUIN|   219           0.00391       -0.06250       -0.06250       -0.18750
 BRILLOUIN|   220           0.00391       -0.06250       -0.06250       -0.06250
 BRILLOUIN|   221           0.00391       -0.06250       -0.06250        0.06250
 BRILLOUIN|   222           0.00391       -0.06250       -0.06250        0.18750
 BRILLOUIN|   223           0.00391       -0.06250       -0.06250        0.31250
 BRILLOUIN|   224           0.00391       -0.06250       -0.06250        0.43750
 BRILLOUIN|   225           0.00391       -0.06250        0.06250       -0.43750
 BRILLOUIN|   226           0.00391       -0.06250        0.06250       -0.31250
 BRILLOUIN|   227           0.00391       -0.06250        0.06250       -0.18750
 BRILLOUIN|   228           0.00391       -0.06250        0.06250       -0.06250
 BRILLOUIN|   229           0.00391       -0.06250        0.06250        0.06250
 BRILLOUIN|   230           0.00391       -0.06250        0.06250        0.18750
 BRILLOUIN|   231           0.00391       -0.06250        0.06250        0.31250
 BRILLOUIN|   232           0.00391       -0.06250        0.06250        0.43750
 BRILLOUIN|   233           0.00391       -0.06250        0.18750       -0.43750
 BRILLOUIN|   234           0.00391       -0.06250        0.18750       -0.31250
 BRILLOUIN|   235           0.00391       -0.06250        0.18750       -0.18750
 BRILLOUIN|   236           0.00391       -0.06250        0.18750       -0.06250
 BRILLOUIN|   237           0.00391       -0.06250        0.18750        0.06250
 BRILLOUIN|   238           0.00391       -0.06250        0.18750        0.18750
 BRILLOUIN|   239           0.00391       -0.06250        0.18750        0.31250
 BRILLOUIN|   240           0.00391       -0.06250        0.18750        0.43750
 BRILLOUIN|   241           0.00391       -0.06250        0.31250       -0.43750
 BRILLOUIN|   242           0.00391       -0.06250        0.31250       -0.31250
 BRILLOUIN|   243           0.00391       -0.06250        0.31250       -0.18750
 BRILLOUIN|   244           0.00391       -0.06250        0.31250       -0.06250
 BRILLOUIN|   245           0.00391       -0.06250        0.31250        0.06250
 BRILLOUIN|   246           0.00391       -0.06250        0.31250        0.18750
 BRILLOUIN|   247           0.00391       -0.06250        0.31250        0.31250
 BRILLOUIN|   248           0.00391       -0.06250        0.31250        0.43750
 BRILLOUIN|   249           0.00391       -0.06250        0.43750       -0.43750
 BRILLOUIN|   250           0.00391       -0.06250        0.43750       -0.31250
 BRILLOUIN|   251           0.00391       -0.06250        0.43750       -0.18750
 BRILLOUIN|   252           0.00391       -0.06250        0.43750       -0.06250
 BRILLOUIN|   253           0.00391       -0.06250        0.43750        0.06250
 BRILLOUIN|   254           0.00391       -0.06250        0.43750        0.18750
 BRILLOUIN|   255           0.00391       -0.06250        0.43750        0.31250
 BRILLOUIN|   256           0.00391       -0.06250        0.43750        0.43750
 *******************************************************************************

 *******************************************************************************
 *******************************************************************************
 **                                                                           **
 **     #####                         ##              ##                      **
 **    ##   ##            ##          ##              ##                      **
 **   ##     ##                       ##            ######                    **
 **   ##     ##  ##   ##  ##   #####  ##  ##   ####   ##    #####    #####    **
 **   ##     ##  ##   ##  ##  ##      ## ##   ##      ##   ##   ##  ##   ##   **
 **   ##  ## ##  ##   ##  ##  ##      ####     ###    ##   ######   ######    **
 **    ##  ###   ##   ##  ##  ##      ## ##      ##   ##   ##       ##        **
 **     #######   #####   ##   #####  ##  ##  ####    ##    #####   ##        **
 **           ##                                                    ##        **
 **                                                                           **
 **                                                ... make the atoms dance   **
 **                                                                           **
 **            Copyright (C) by CP2K developers group (2000-2025)             **
 **                      J. Chem. Phys. 152, 194103 (2020)                    **
 **                                                                           **
 *******************************************************************************

 DFT| Spin restricted Kohn-Sham (RKS) calculation                            RKS
 DFT| Multiplicity                                                             1
 DFT| Number of spin states                                                    1
 DFT| Charge                                                                   0
 DFT| Self-interaction correction (SIC)                                       NO
 DFT| Cutoffs: density                                              1.000000E-10
 DFT|          gradient                                             1.000000E-10
 DFT|          tau                                                  1.000000E-10
 DFT|          cutoff_smoothing_range                               0.000000E+00
 DFT| XC density smoothing                                                  NONE
 DFT| XC derivatives                                                          PW

 FUNCTIONAL| PBE:
 FUNCTIONAL| J.P.Perdew, K.Burke, M.Ernzerhof, Phys. Rev. Letter, vol. 77, n 18,
 FUNCTIONAL|  pp. 3865-3868, (1996) {spin unpolarized}                          


 QS| Method:                                                                 GPW
 QS| Density plane wave grid type                        NON-SPHERICAL FULLSPACE
 QS| Number of grid levels:                                                    4
 QS| Density cutoff [a.u.]:                                                500.0
 QS| Multi grid cutoff [a.u.]: 1) grid level                               500.0
 QS|                           2) grid level                               166.7
 QS|                           3) grid level                                55.6
 QS|                           4) grid level                                18.5
 QS| Grid level progression factor:                                          3.0
 QS| Relative density cutoff [a.u.]:                                        50.0
 QS| Interaction thresholds: eps_pgf_orb:                                1.0E-16
 QS|                         eps_filter_matrix:                          0.0E+00
 QS|                         eps_core_charge:                            1.0E-18
 QS|                         eps_rho_gspace:                             1.0E-16
 QS|                         eps_rho_rspace:                             1.0E-16
 QS|                         eps_gvg_rspace:                             1.0E-08
 QS|                         eps_ppl:                                    1.0E-02
 QS|                         eps_ppnl:                                   1.0E-10


 ATOMIC KIND INFORMATION

  1. Atomic kind: Cd                                    Number of atoms:       2

     Orbital Basis Set                                aug-DZVP-MOLOPT-GTH-tier-2

       Number of orbital shell sets:                                           1
       Number of orbital shells:                                              12
       Number of primitive Cartesian functions:                                6
       Number of Cartesian basis functions:                                   65
       Number of spherical basis functions:                                   50
       Norm type:                                                              2

       Normalised Cartesian orbitals:

                        Set   Shell   Orbital            Exponent    Coefficient

                          1       1    2s                0.076307       0.079094
                                                         0.130220       0.000000
                                                         0.222222       0.125971
                                                         0.573376      -0.190929
                                                         1.315618      -0.094804
                                                         2.617301       0.080806

                          1       2    3s                0.076307       0.213807
                                                         0.130220       0.000000
                                                         0.222222      -0.772406
                                                         0.573376       0.857984
                                                         1.315618      -0.210204
                                                         2.617301       0.148047

                          1       3    4s                0.076307       0.172250
                                                         0.130220      -0.113191
                                                         0.222222      -0.002185
                                                         0.573376       0.011671
                                                         1.315618       0.000000
                                                         2.617301       0.000000

                          1       4    3px               0.076307       0.042178
                                                         0.130220       0.000000
                                                         0.222222       0.084670
                                                         0.573376      -0.054848
                                                         1.315618      -0.180099
                                                         2.617301       0.142127
                          1       4    3py               0.076307       0.042178
                                                         0.130220       0.000000
                                                         0.222222       0.084670
                                                         0.573376      -0.054848
                                                         1.315618      -0.180099
                                                         2.617301       0.142127
                          1       4    3pz               0.076307       0.042178
                                                         0.130220       0.000000
                                                         0.222222       0.084670
                                                         0.573376      -0.054848
                                                         1.315618      -0.180099
                                                         2.617301       0.142127

                          1       5    4px               0.076307       0.076005
                                                         0.130220       0.000000
                                                         0.222222      -0.440907
                                                         0.573376       0.502110
                                                         1.315618      -0.137737
                                                         2.617301       0.280394
                          1       5    4py               0.076307       0.076005
                                                         0.130220       0.000000
                                                         0.222222      -0.440907
                                                         0.573376       0.502110
                                                         1.315618      -0.137737
                                                         2.617301       0.280394
                          1       5    4pz               0.076307       0.076005
                                                         0.130220       0.000000
                                                         0.222222      -0.440907
                                                         0.573376       0.502110
                                                         1.315618      -0.137737
                                                         2.617301       0.280394

                          1       6    5px               0.076307       0.033254
                                                         0.130220       0.072087
                                                         0.222222      -0.131377
                                                         0.573376       0.401352
                                                         1.315618       0.000000
                                                         2.617301       0.000000
                          1       6    5py               0.076307       0.033254
                                                         0.130220       0.072087
                                                         0.222222      -0.131377
                                                         0.573376       0.401352
                                                         1.315618       0.000000
                                                         2.617301       0.000000
                          1       6    5pz               0.076307       0.033254
                                                         0.130220       0.072087
                                                         0.222222      -0.131377
                                                         0.573376       0.401352
                                                         1.315618       0.000000
                                                         2.617301       0.000000

                          1       7    4dx2              0.076307      -0.000238
                                                         0.130220       0.000000
                                                         0.222222      -0.019807
                                                         0.573376      -0.223738
                                                         1.315618      -1.074612
                                                         2.617301      -2.374357
                          1       7    4dxy              0.076307      -0.000412
                                                         0.130220       0.000000
                                                         0.222222      -0.034306
                                                         0.573376      -0.387526
                                                         1.315618      -1.861282
                                                         2.617301      -4.112507
                          1       7    4dxz              0.076307      -0.000412
                                                         0.130220       0.000000
                                                         0.222222      -0.034306
                                                         0.573376      -0.387526
                                                         1.315618      -1.861282
                                                         2.617301      -4.112507
                          1       7    4dy2              0.076307      -0.000238
                                                         0.130220       0.000000
                                                         0.222222      -0.019807
                                                         0.573376      -0.223738
                                                         1.315618      -1.074612
                                                         2.617301      -2.374357
                          1       7    4dyz              0.076307      -0.000412
                                                         0.130220       0.000000
                                                         0.222222      -0.034306
                                                         0.573376      -0.387526
                                                         1.315618      -1.861282
                                                         2.617301      -4.112507
                          1       7    4dz2              0.076307      -0.000238
                                                         0.130220       0.000000
                                                         0.222222      -0.019807
                                                         0.573376      -0.223738
                                                         1.315618      -1.074612
                                                         2.617301      -2.374357

                          1       8    5dx2              0.076307       0.019174
                                                         0.130220       0.000000
                                                         0.222222      -0.013977
                                                         0.573376       0.020089
                                                         1.315618      -0.408125
                                                         2.617301      -0.578786
                          1       8    5dxy              0.076307       0.033211
                                                         0.130220       0.000000
                                                         0.222222      -0.024209
                                                         0.573376       0.034796
                                                         1.315618      -0.706894
                                                         2.617301      -1.002487
                          1       8    5dxz              0.076307       0.033211
                                                         0.130220       0.000000
                                                         0.222222      -0.024209
                                                         0.573376       0.034796
                                                         1.315618      -0.706894
                                                         2.617301      -1.002487
                          1       8    5dy2              0.076307       0.019174
                                                         0.130220       0.000000
                                                         0.222222      -0.013977
                                                         0.573376       0.020089
                                                         1.315618      -0.408125
                                                         2.617301      -0.578786
                          1       8    5dyz              0.076307       0.033211
                                                         0.130220       0.000000
                                                         0.222222      -0.024209
                                                         0.573376       0.034796
                                                         1.315618      -0.706894
                                                         2.617301      -1.002487
                          1       8    5dz2              0.076307       0.019174
                                                         0.130220       0.000000
                                                         0.222222      -0.013977
                                                         0.573376       0.020089
                                                         1.315618      -0.408125
                                                         2.617301      -0.578786

                          1       9    6dx2              0.076307       0.002552
                                                         0.130220       0.046442
                                                         0.222222      -0.021322
                                                         0.573376       0.044628
                                                         1.315618       0.000000
                                                         2.617301       0.000000
                          1       9    6dxy              0.076307       0.004421
                                                         0.130220       0.080440
                                                         0.222222      -0.036931
                                                         0.573376       0.077297
                                                         1.315618       0.000000
                                                         2.617301       0.000000
                          1       9    6dxz              0.076307       0.004421
                                                         0.130220       0.080440
                                                         0.222222      -0.036931
                                                         0.573376       0.077297
                                                         1.315618       0.000000
                                                         2.617301       0.000000
                          1       9    6dy2              0.076307       0.002552
                                                         0.130220       0.046442
                                                         0.222222      -0.021322
                                                         0.573376       0.044628
                                                         1.315618       0.000000
                                                         2.617301       0.000000
                          1       9    6dyz              0.076307       0.004421
                                                         0.130220       0.080440
                                                         0.222222      -0.036931
                                                         0.573376       0.077297
                                                         1.315618       0.000000
                                                         2.617301       0.000000
                          1       9    6dz2              0.076307       0.002552
                                                         0.130220       0.046442
                                                         0.222222      -0.021322
                                                         0.573376       0.044628
                                                         1.315618       0.000000
                                                         2.617301       0.000000

                          1      10    5fx3              0.076307       0.004701
                                                         0.130220       0.000000
                                                         0.222222      -0.005272
                                                         0.573376      -0.014106
                                                         1.315618      -0.295886
                                                         2.617301      -0.489712
                          1      10    5fx2y             0.076307       0.010512
                                                         0.130220       0.000000
                                                         0.222222      -0.011788
                                                         0.573376      -0.031542
                                                         1.315618      -0.661621
                                                         2.617301      -1.095030
                          1      10    5fx2z             0.076307       0.010512
                                                         0.130220       0.000000
                                                         0.222222      -0.011788
                                                         0.573376      -0.031542
                                                         1.315618      -0.661621
                                                         2.617301      -1.095030
                          1      10    5fxy2             0.076307       0.010512
                                                         0.130220       0.000000
                                                         0.222222      -0.011788
                                                         0.573376      -0.031542
                                                         1.315618      -0.661621
                                                         2.617301      -1.095030
                          1      10    5fxyz             0.076307       0.018208
                                                         0.130220       0.000000
                                                         0.222222      -0.020417
                                                         0.573376      -0.054633
                                                         1.315618      -1.145961
                                                         2.617301      -1.896648
                          1      10    5fxz2             0.076307       0.010512
                                                         0.130220       0.000000
                                                         0.222222      -0.011788
                                                         0.573376      -0.031542
                                                         1.315618      -0.661621
                                                         2.617301      -1.095030
                          1      10    5fy3              0.076307       0.004701
                                                         0.130220       0.000000
                                                         0.222222      -0.005272
                                                         0.573376      -0.014106
                                                         1.315618      -0.295886
                                                         2.617301      -0.489712
                          1      10    5fy2z             0.076307       0.010512
                                                         0.130220       0.000000
                                                         0.222222      -0.011788
                                                         0.573376      -0.031542
                                                         1.315618      -0.661621
                                                         2.617301      -1.095030
                          1      10    5fyz2             0.076307       0.010512
                                                         0.130220       0.000000
                                                         0.222222      -0.011788
                                                         0.573376      -0.031542
                                                         1.315618      -0.661621
                                                         2.617301      -1.095030
                          1      10    5fz3              0.076307       0.004701
                                                         0.130220       0.000000
                                                         0.222222      -0.005272
                                                         0.573376      -0.014106
                                                         1.315618      -0.295886
                                                         2.617301      -0.489712

                          1      11    6fx3              0.076307       0.003774
                                                         0.130220       0.000626
                                                         0.222222       0.006367
                                                         0.573376       0.069753
                                                         1.315618       0.000000
                                                         2.617301       0.000000
                          1      11    6fx2y             0.076307       0.008438
                                                         0.130220       0.001400
                                                         0.222222       0.014237
                                                         0.573376       0.155972
                                                         1.315618       0.000000
                                                         2.617301       0.000000
                          1      11    6fx2z             0.076307       0.008438
                                                         0.130220       0.001400
                                                         0.222222       0.014237
                                                         0.573376       0.155972
                                                         1.315618       0.000000
                                                         2.617301       0.000000
                          1      11    6fxy2             0.076307       0.008438
                                                         0.130220       0.001400
                                                         0.222222       0.014237
                                                         0.573376       0.155972
                                                         1.315618       0.000000
                                                         2.617301       0.000000
                          1      11    6fxyz             0.076307       0.014615
                                                         0.130220       0.002424
                                                         0.222222       0.024659
                                                         0.573376       0.270152
                                                         1.315618       0.000000
                                                         2.617301       0.000000
                          1      11    6fxz2             0.076307       0.008438
                                                         0.130220       0.001400
                                                         0.222222       0.014237
                                                         0.573376       0.155972
                                                         1.315618       0.000000
                                                         2.617301       0.000000
                          1      11    6fy3              0.076307       0.003774
                                                         0.130220       0.000626
                                                         0.222222       0.006367
                                                         0.573376       0.069753
                                                         1.315618       0.000000
                                                         2.617301       0.000000
                          1      11    6fy2z             0.076307       0.008438
                                                         0.130220       0.001400
                                                         0.222222       0.014237
                                                         0.573376       0.155972
                                                         1.315618       0.000000
                                                         2.617301       0.000000
                          1      11    6fyz2             0.076307       0.008438
                                                         0.130220       0.001400
                                                         0.222222       0.014237
                                                         0.573376       0.155972
                                                         1.315618       0.000000
                                                         2.617301       0.000000
                          1      11    6fz3              0.076307       0.003774
                                                         0.130220       0.000626
                                                         0.222222       0.006367
                                                         0.573376       0.069753
                                                         1.315618       0.000000
                                                         2.617301       0.000000

                          1      12    6gx4              0.076307       0.000340
                                                         0.130220      -0.000719
                                                         0.222222      -0.018752
                                                         0.573376       0.025434
                                                         1.315618       0.000000
                                                         2.617301       0.000000
                          1      12    6gx3y             0.076307       0.000900
                                                         0.130220      -0.001904
                                                         0.222222      -0.049613
                                                         0.573376       0.067292
                                                         1.315618       0.000000
                                                         2.617301       0.000000
                          1      12    6gx3z             0.076307       0.000900
                                                         0.130220      -0.001904
                                                         0.222222      -0.049613
                                                         0.573376       0.067292
                                                         1.315618       0.000000
                                                         2.617301       0.000000
                          1      12    6gx2y2            0.076307       0.001162
                                                         0.130220      -0.002457
                                                         0.222222      -0.064050
                                                         0.573376       0.086874
                                                         1.315618       0.000000
                                                         2.617301       0.000000
                          1      12    6gx2yz            0.076307       0.002013
                                                         0.130220      -0.004256
                                                         0.222222      -0.110938
                                                         0.573376       0.150470
                                                         1.315618       0.000000
                                                         2.617301       0.000000
                          1      12    6gx2z2            0.076307       0.001162
                                                         0.130220      -0.002457
                                                         0.222222      -0.064050
                                                         0.573376       0.086874
                                                         1.315618       0.000000
                                                         2.617301       0.000000
                          1      12    6gxy3             0.076307       0.000900
                                                         0.130220      -0.001904
                                                         0.222222      -0.049613
                                                         0.573376       0.067292
                                                         1.315618       0.000000
                                                         2.617301       0.000000
                          1      12    6gxy2z            0.076307       0.002013
                                                         0.130220      -0.004256
                                                         0.222222      -0.110938
                                                         0.573376       0.150470
                                                         1.315618       0.000000
                                                         2.617301       0.000000
                          1      12    6gxyz2            0.076307       0.002013
                                                         0.130220      -0.004256
                                                         0.222222      -0.110938
                                                         0.573376       0.150470
                                                         1.315618       0.000000
                                                         2.617301       0.000000
                          1      12    6gxz3             0.076307       0.000900
                                                         0.130220      -0.001904
                                                         0.222222      -0.049613
                                                         0.573376       0.067292
                                                         1.315618       0.000000
                                                         2.617301       0.000000
                          1      12    6gy4              0.076307       0.000340
                                                         0.130220      -0.000719
                                                         0.222222      -0.018752
                                                         0.573376       0.025434
                                                         1.315618       0.000000
                                                         2.617301       0.000000
                          1      12    6gy3z             0.076307       0.000900
                                                         0.130220      -0.001904
                                                         0.222222      -0.049613
                                                         0.573376       0.067292
                                                         1.315618       0.000000
                                                         2.617301       0.000000
                          1      12    6gy2z2            0.076307       0.001162
                                                         0.130220      -0.002457
                                                         0.222222      -0.064050
                                                         0.573376       0.086874
                                                         1.315618       0.000000
                                                         2.617301       0.000000
                          1      12    6gyz3             0.076307       0.000900
                                                         0.130220      -0.001904
                                                         0.222222      -0.049613
                                                         0.573376       0.067292
                                                         1.315618       0.000000
                                                         2.617301       0.000000
                          1      12    6gz4              0.076307       0.000340
                                                         0.130220      -0.000719
                                                         0.222222      -0.018752
                                                         0.573376       0.025434
                                                         1.315618       0.000000
                                                         2.617301       0.000000

       Atomic covalent radius [Angstrom]:                                  1.480

       Atomic van der Waals radius [Angstrom]:                             1.580

     GTH Potential information for                                       GTH-PBE

       Description:                       Goedecker-Teter-Hutter pseudopotential
                                           Goedecker et al., PRB 54, 1703 (1996)
                                          Hartwigsen et al., PRB 58, 3641 (1998)
                                                      Krack, TCA 114, 145 (2005)

       Gaussian exponent of the core charge distribution:               1.652893
       Electronic configuration (s p d ...):                           2   0  10

       Parameters of the local part of the GTH pseudopotential:

                          rloc        C1          C2          C3          C4
                        0.550000    3.633959

       Parameters of the non-local part of the GTH (SOC) pseudopotential:

                   l      r(l)      h(i,j,l)
                                    k(i,j,l)
                   0    0.491279   10.111382   -6.506954    1.804577
                                   -6.506954   11.335586   -4.659397
                                    1.804577   -4.659397    3.698282
                   1    0.599710    4.001487   -1.883936
                                   -1.883936    2.229103
                                    0.289311   -0.455439
                                   -0.455439    0.538883
                   2    0.377873   -6.137032    1.535711
                                    1.535711   -1.741332
                                   -0.061284    0.114110
                                    0.114110   -0.129389


 MOLECULE KIND INFORMATION


 All atoms are their own molecule, skipping detailed information


 TOTAL NUMBERS AND MAXIMUM NUMBERS

  Total number of            - Atomic kinds:                                   1
                             - Atoms:                                          2
                             - Shell sets:                                     2
                             - Shells:                                        24
                             - Primitive Cartesian functions:                 12
                             - Cartesian basis functions:                    130
                             - Spherical basis functions:                    100

  Maximum angular momentum of- Orbital basis functions:                        4
                             - Local part of the GTH pseudopotential:          0
                             - Non-local part of the GTH pseudopotential:      4


 MODULE QUICKSTEP: ATOMIC COORDINATES IN ANGSTROM

   Atom Kind Element         X             Y             Z       Z(eff)     Mass
      1    1 Cd   48      0.000000      0.000000      0.000000  12.0000 112.4110
      2    1 Cd   48      1.518565      0.876744      2.885305  12.0000 112.4110



 SCF PARAMETERS         Density guess:                                    ATOMIC
                        --------------------------------------------------------
                        max_scf:                                             500
                        max_scf_history:                                       0
                        max_diis:                                              4
                        --------------------------------------------------------
                        eps_scf:                                        1.00E-09
                        eps_scf_history:                                0.00E+00
                        eps_diis:                                       1.00E-01
                        eps_eigval:                                     1.00E-05
                        --------------------------------------------------------
                        level_shift [a.u.]:                             0.000000
                        added MOs                                        88    0
                        --------------------------------------------------------
                        Mixing method:                            BROYDEN_MIXING
                                                charge density mixing in g-space
                        --------------------------------------------------------
                        Smear method:                                FERMI_DIRAC
                        Electronic temperature [K]:                        300.0
                        Electronic temperature [a.u.]:                  9.50E-04
                        Accuracy threshold:                             1.00E-10
                        --------------------------------------------------------
                        No outer SCF

 PW_GRID| Information for grid number                                          1
 PW_GRID| Grid distributed over                                     8 processors
 PW_GRID| Real space group dimensions                                     8    1
 PW_GRID| the grid is blocked:                                                NO
 PW_GRID| Cutoff [a.u.]                                                    500.0
 PW_GRID| spherical cutoff:                                                   NO
 PW_GRID|   Bounds   1            -30      29                Points:          60
 PW_GRID|   Bounds   2            -30      29                Points:          60
 PW_GRID|   Bounds   3            -60      59                Points:         120
 PW_GRID| Volume element (a.u.^3)  0.7201E-03     Volume (a.u.^3)       311.0887
 PW_GRID| Grid span                                                    FULLSPACE
 PW_GRID|   Distribution                         Average         Max         Min
 PW_GRID|   G-Vectors                            54000.0       54000       54000
 PW_GRID|   G-Rays                                 900.0         900         900
 PW_GRID|   Real Space Points                    54000.0       57600       50400

 PW_GRID| Information for grid number                                          2
 PW_GRID| Number of the reference grid                                         1
 PW_GRID| Grid distributed over                                     8 processors
 PW_GRID| Real space group dimensions                                     8    1
 PW_GRID| the grid is blocked:                                                NO
 PW_GRID| Cutoff [a.u.]                                                    166.7
 PW_GRID| spherical cutoff:                                                   NO
 PW_GRID|   Bounds   1            -18      17                Points:          36
 PW_GRID|   Bounds   2            -18      17                Points:          36
 PW_GRID|   Bounds   3            -32      31                Points:          64
 PW_GRID| Volume element (a.u.^3)  0.3751E-02     Volume (a.u.^3)       311.0887
 PW_GRID| Grid span                                                    FULLSPACE
 PW_GRID|   Distribution                         Average         Max         Min
 PW_GRID|   G-Vectors                            10368.0       10476       10260
 PW_GRID|   G-Rays                                 288.0         291         285
 PW_GRID|   Real Space Points                    10368.0       11520        9216

 PW_GRID| Information for grid number                                          3
 PW_GRID| Number of the reference grid                                         1
 PW_GRID| Grid distributed over                                     8 processors
 PW_GRID| Real space group dimensions                                     8    1
 PW_GRID| the grid is blocked:                                                NO
 PW_GRID| Cutoff [a.u.]                                                     55.6
 PW_GRID| spherical cutoff:                                                   NO
 PW_GRID|   Bounds   1            -10       9                Points:          20
 PW_GRID|   Bounds   2            -10       9                Points:          20
 PW_GRID|   Bounds   3            -20      19                Points:          40
 PW_GRID| Volume element (a.u.^3)  0.1944E-01     Volume (a.u.^3)       311.0887
 PW_GRID| Grid span                                                    FULLSPACE
 PW_GRID|   Distribution                         Average         Max         Min
 PW_GRID|   G-Vectors                             2000.0        2040        1960
 PW_GRID|   G-Rays                                 100.0         102          98
 PW_GRID|   Real Space Points                     2000.0        2400        1600

 PW_GRID| Information for grid number                                          4
 PW_GRID| Number of the reference grid                                         1
 PW_GRID| Grid distributed over                                     8 processors
 PW_GRID| Real space group dimensions                                     8    1
 PW_GRID| the grid is blocked:                                                NO
 PW_GRID| Cutoff [a.u.]                                                     18.5
 PW_GRID| spherical cutoff:                                                   NO
 PW_GRID|   Bounds   1             -6       5                Points:          12
 PW_GRID|   Bounds   2             -6       5                Points:          12
 PW_GRID|   Bounds   3            -12      11                Points:          24
 PW_GRID| Volume element (a.u.^3)  0.9001E-01     Volume (a.u.^3)       311.0887
 PW_GRID| Grid span                                                    FULLSPACE
 PW_GRID|   Distribution                         Average         Max         Min
 PW_GRID|   G-Vectors                              432.0         444         408
 PW_GRID|   G-Rays                                  36.0          37          34
 PW_GRID|   Real Space Points                      432.0         576         288

 POISSON| Solver                                                        PERIODIC
 POISSON| Periodicity                                                        XYZ

 RS_GRID| Information for grid number                                          1
 RS_GRID|   Bounds   1            -30      29                Points:          60
 RS_GRID|   Bounds   2            -30      29                Points:          60
 RS_GRID|   Bounds   3            -60      59                Points:         120
 RS_GRID| Real space fully replicated
[...]
 flops inhomo. stacks                           0       0.0%      0.0%      0.0%
 flops total                         0.000000E+00       0.0%      0.0%      0.0%
 flops max/rank                      0.000000E+00       0.0%      0.0%      0.0%
 matmuls inhomo. stacks                         0       0.0%      0.0%      0.0%
 matmuls total                                  0       0.0%      0.0%      0.0%
 number of processed stacks                     0       0.0%      0.0%      0.0%
 average stack size                                     0.0       0.0       0.0
 marketing flops                     0.000000E+00
 -------------------------------------------------------------------------------
 -                                                                             -
 -                      DBCSR MESSAGE PASSING PERFORMANCE                      -
 -                                                                             -
 -------------------------------------------------------------------------------
 ROUTINE             CALLS      AVE VOLUME [Bytes]
 MP_Bcast                1                     12.
 MP_Allreduce           19                     21.
 MP_Alltoall        699480                  15785.
 -------------------------------------------------------------------------------

 -------------------------------------------------------------------------------
 -                                                                             -
 -                                DBM STATISTICS                               -
 -                                                                             -
 -------------------------------------------------------------------------------
    M  x    N  x    K                                          COUNT     PERCENT
 -------------------------------------------------------------------------------

 -------------------------------------------------------------------------------
 -                                                                             -
 -                                GRID STATISTICS                              -
 -                                                                             -
 -------------------------------------------------------------------------------
 LP    KERNEL             BACKEND                              COUNT     PERCENT
 8     collocate general  CPU                                 644032      50.79%
 8     integrate general  CPU                                 623906      49.21%
 0     collocate general  CPU                                      4       0.00%
 0     integrate general  CPU                                      2       0.00%
 -------------------------------------------------------------------------------

 MEMORY| Estimated peak process memory [MiB]                                 907

 -------------------------------------------------------------------------------
 ----                             MULTIGRID INFO                            ----
 -------------------------------------------------------------------------------
 count for grid        1:          13896          cutoff [a.u.]          500.00
 count for grid        2:          91274          cutoff [a.u.]          166.67
 count for grid        3:          38932          cutoff [a.u.]           55.56
 count for grid        4:          57834          cutoff [a.u.]           18.52
 total gridlevel count  :         201936

 -------------------------------------------------------------------------------
 -                                                                             -
 -                         MESSAGE PASSING PERFORMANCE                         -
 -                                                                             -
 -------------------------------------------------------------------------------

 ROUTINE             CALLS      AVE VOLUME [Bytes]
 MP_Group                6
 MP_Bcast           289454                   1726.
 MP_Allreduce       150945                     53.
 MP_Sync                 4
 MP_Alltoall           563                2470657.
 MP_SendRecv           910                 149063.
 MP_ISendRecv          875                 146725.
 MP_Wait            199807
 MP_comm_split           4
 MP_ISend           211724                   2288.
 MP_IRecv           338048                   1436.
 -------------------------------------------------------------------------------


 -------------------------------------------------------------------------------
 -                                                                             -
 -                           R E F E R E N C E S                               -
 -                                                                             -
 -------------------------------------------------------------------------------
 
 CP2K version 2025.1 (Development Version), the CP2K developers group (2025).
 CP2K is freely available from https://www.cp2k.org/ .
 
 T. D. Kuehne, M. Iannuzzi, M. Del Ben, V. V. Rybkin, P. Seewald, F. Stein, T. 
 Laino, R. Z. Khaliullin, O. Schuett, F. Schiffmann, D. Golze, J. Wilhelm, S. 
 Chulkov, M. H. Bani-Hashemian, V. Weber, U. Borstnik, M. Taillefumier, A. S. 
 Jakobovits, A. Lazzaro, H. Pabst, T. Mueller, R. Schade, M. Guidon, S. 
 Andermatt, N. Holmberg, G. K. Schenter, A. Hehn, A. Bussy, F. Belleflamme, G. 
 Tabacchi, A. Gloess, M. Lass, I. Bethune, C. J. Mundy, C. Plessl, M. Watkins, 
 J. VandeVondele, M. Krack, J. Hutter.
 J. Chem. Phys. 152, 194103 (2020).
 CP2K: An electronic structure and molecular dynamics software package - 
 Quickstep: Efficient and accurate electronic structure calculations.
 https://doi.org/10.1063/5.0007045

 O. Schuett, P. Messmer, J. Hutter, J. VandeVondele.
 Electronic Structure Calculations on Graphics Processing Units, 173-190 (2016).
 GPU-Accelerated Sparse Matrix-Matrix Multiplication for Linear Scaling Density 
 Functional Theory.
 https://doi.org/10.1002/9781118670712.ch8

 J. Hutter, M. Iannuzzi, F. Schiffmann, J. VandeVondele.
 WIREs Comput Mol Sci. 4, 15-25 (2014).
 CP2K: atomistic simulations of condensed matter systems.
 https://doi.org/10.1002/wcms.1159

 U. Borstnik, J. VandeVondele, V. Weber, J. Hutter.
 Parallel Comput. 40, 47-58 (2014).
 Sparse matrix multiplication: The distributed block-compressed sparse row 
 library.
 https://doi.org/10.1016/j.parco.2014.03.012

 J. VandeVondele, J. Hutter.
 J. Chem. Phys. 127, 114105 (2007).
 Gaussian basis sets for accurate calculations on molecular systems in gas and 
 condensed phases.
 https://doi.org/10.1063/1.2770708

 J. VandeVondele, M. Krack, F. Mohamed, M. Parrinello, T. Chassaing, J. Hutter.
 Comput. Phys. Commun. 167, 103-128 (2005).
 QUICKSTEP: Fast and accurate density functional calculations using a mixed 
 Gaussian and plane waves approach.
 https://doi.org/10.1016/j.cpc.2004.12.014

 M. Krack.
 Theor. Chem. Acc. 114, 145-152 (2005).
 Pseudopotentials for H to Kr optimized for gradient-corrected 
 exchange-correlation functionals.
 https://doi.org/10.1007/s00214-005-0655-y

 M. Frigo, S. G. Johnson.
 Proc. IEEE 93, 216-231 (2005).
 The design and implementation of FFTW3.
 https://doi.org/10.1109/JPROC.2004.840301

 C. Hartwigsen, S. Goedecker, J. Hutter.
 Phys. Rev. B 58, 3641-3662 (1998).
 Relativistic separable dual-space Gaussian pseudopotentials from H to Rn.
 https://doi.org/10.1103/PhysRevB.58.3641

 G. Lippert, J. Hutter, M. Parrinello.
 Mol. Phys. 92, 477-487 (1997).
 A hybrid Gaussian and plane wave density functional scheme.
 https://doi.org/10.1080/002689797170220

 S. Goedecker, M. Teter, J. Hutter.
 Phys. Rev. B 54, 1703-1710 (1996).
 Separable dual-space Gaussian pseudopotentials.
 https://doi.org/10.1103/PhysRevB.54.1703

 J. P. Perdew, K. Burke, M. Ernzerhof.
 Phys. Rev. Lett. 77, 3865-3868 (1996).
 Generalized gradient approximation made simple.
 https://doi.org/10.1103/PhysRevLett.77.3865


 -------------------------------------------------------------------------------
 -                                                                             -
 -                                T I M I N G                                  -
 -                                                                             -
 -------------------------------------------------------------------------------
 SUBROUTINE                       CALLS  ASD         SELF TIME        TOTAL TIME
                                MAXIMUM       AVERAGE  MAXIMUM  AVERAGE  MAXIMUM
 CP2K                                 1  1.0    0.016    0.019  800.926  800.926
 qs_energies                          1  2.0    0.024    0.156  800.618  800.693
 scf_env_do_scf                       1  3.0    0.000    0.000  786.824  786.825
 scf_env_do_scf_inner_loop           31  4.0    0.044    0.049  786.824  786.824
 do_general_diag_kp                  32  5.9    0.182    0.217  737.659  746.574
 qs_scf_new_mos_kp                   31  5.0    0.000    0.000  728.666  737.565
 mp_alltoall_i22                 119324  8.8  573.364  704.506  573.364  704.506
 dbcsr_desymmetrize_deep          67894  7.4    1.105    1.671  406.004  497.809
 rskp_transform                   16168  6.9   82.330  440.172   82.330  440.172
 dbcsr_complete_redistribute      51430  8.2    1.866    2.434  191.178  230.692
 kpoint_density_transform            31  7.0    0.089    0.109  221.951  222.659
 copy_fm_to_dbcsr                 15872  8.0    0.093    0.110  179.248  218.471
 transform_dmat                    7936  8.0   39.358  212.713   39.358  212.713
 qs_ks_update_qs_env                 31  5.0    0.000    0.000   12.540   51.663
 rebuild_ks_matrix                   31  6.0    0.000    0.000   10.323   49.446
 qs_ks_build_kohn_sham_matrix        31  7.0    0.084    0.088   10.323   49.446
 sum_up_and_integrate                31  8.0    0.000    0.000    9.340   48.390
 integrate_v_rspace                  31  9.0    0.102    0.545    9.338   48.389
 grid_integrate_task_list            31 10.0    8.953   47.631    8.953   47.631
 transfer_rs2pw                     130  8.0    0.002    0.002   34.939   43.016
 transfer_rs2pw_500                  34  8.9    0.054    0.061   34.888   42.958
 mp_sendrecv_dv                     910 10.0   34.870   42.952   34.870   42.952
 qs_rho_update_rho_low               32  5.0    0.000    0.000   41.168   41.192
 calculate_rho_elec                  32  6.0    0.026    0.066   41.168   41.192
 density_rs2pw                       32  7.0    0.001    0.001   33.414   41.086
 grid_collocate_task_list            32  7.0    7.726   40.719    7.726   40.719
 copy_dbcsr_to_fm                 35558  6.9    0.363    0.415   21.448   21.797
 cp_cfm_geeig_canon                1029  6.9    0.010    0.010    6.628    6.690
 cp_fm_start_copy_general         48208  7.3    1.056    1.389    6.288    6.437
 mp_alltoall_d11v                357972  9.3    5.687    6.197    5.687    6.197
 cp_cfm_heevd                      2058  7.9    0.003    0.003    5.960    6.032
 cp_cfm_heevd_base                 2058  8.9    5.958    6.029    5.958    6.029
 dbcsr_finalize                  145476  8.3    0.753    0.894    5.059    5.439
 dbcsr_create_new                282134  7.9    2.766    3.822    2.966    4.049
 hybrid_alltoall_any              67894  8.4    0.272    0.297    3.685    3.940
 mp_allgather_i                   96416  8.3    3.358    3.498    3.358    3.498
 dbcsr_merge_all                  51430 10.2    2.047    2.403    3.080    3.406
 mp_cart_sub                      71118  8.9    3.011    3.033    3.011    3.033
 write_kpoints_restart               31  5.0    0.012    0.017    2.920    2.921
 dbcsr_dot                        99883  8.0    0.567    1.391    2.555    2.654
 mp_alltoall_i11v                222184  9.0    2.429    2.615    2.429    2.615
 qs_energies_init_hamiltonians        1  3.0    0.000    0.000    2.495    2.495
 mp_sum_d                        100549  9.0    1.969    2.334    1.969    2.334
 evaluate_core_matrix_traces         31  6.0    0.000    0.000    2.217    2.217
 calculate_ptrace_kp                 62  7.0    0.075    0.079    2.217    2.217
 self_consistency_check              31  5.0    0.071    0.074    2.046    2.200
 build_core_hamiltonian_matrix        1  4.0    0.006    0.006    0.503    2.128
 qs_env_update_s_mstruct              1  4.0    0.000    0.000    1.724    2.078
 cp_sm_mix                        49941  6.0    0.210    0.639    1.864    2.067
 calculate_rho_core                   1  5.0    0.001    0.003    1.638    2.061
 mp_cart_create                   35565  8.9    1.849    1.948    1.849    1.948
 mp_max_d                         49943  7.0    1.535    1.836    1.535    1.836
 init_scf_run                         1  3.0    0.000    0.000    1.705    1.801
 scf_env_initial_rho_setup            1  4.0    0.000    0.000    1.705    1.801
 cp_dbcsr_alloc_block_from_nbl    11465  5.0    0.287    1.386    0.372    1.784
 copy_fm_to_dbcsr_bc              15872  9.0    0.217    0.247    0.849    1.674
 dbcsr_copy                      117365  6.8    0.640    0.768    1.038    1.357
 mp_bcast_iv                     192858  8.3    1.184    1.344    1.184    1.344
 dbcsr_work_create               119324  8.8    0.700    0.745    1.141    1.267
 cp_fm_write_unformatted           3222  6.0    0.711    1.085    0.836    1.189
 dbcsr_iterator_start            476481  8.8    0.916    0.937    1.047    1.082
 kpoint_set_mo_occupation            31  7.0    0.950    0.959    1.020    1.079
 dbcsr_work_destroy_all          119324  9.8    0.566    0.575    0.898    0.932
 dbcsr_data_new                 1295211  9.7    0.711    0.890    0.711    0.890
 dbcsr_set                       193439  7.5    0.173    0.189    0.354    0.881
 copy_dbcsr_to_fm_bc              35558  7.9    0.377    0.389    0.854    0.877
 tree_to_linear_d                 51430 11.2    0.778    0.863    0.778    0.863
 dbcsr_data_release             1907480 10.0    0.708    0.802    0.708    0.802
 cp_fm_finish_copy_general        19988  7.8    0.638    0.668    0.668    0.718
 dbcsr_zero                      193439  8.5    0.181    0.695    0.181    0.695
 fft_wrap_pw1pw2                    563 10.0    0.005    0.005    0.654    0.681
 dbcsr_iterator_stop             476481  8.8    0.562    0.572    0.663    0.676
 kpoint_density_matrices             31  7.0    0.022    0.023    0.569    0.642
 cp_cfm_gemm                       3087  7.9    0.618    0.630    0.618    0.630
 build_core_ppl                       1  5.0    0.124    0.628    0.124    0.628
 fft_wrap_pw1pw2_500                374 11.3    0.035    0.036    0.600    0.626
 parallel_gemm_fm                  3968  8.0    0.004    0.004    0.534    0.606
 parallel_gemm_fm_gemm             3968  9.0    0.004    0.004    0.530    0.602
 cp_fm_gemm                        3968 10.0    0.527    0.599    0.527    0.599
 dbcsr_destroy                   182252  7.9    0.297    0.327    0.534    0.596
 fft3d_ps                           563 12.0    0.178    0.188    0.549    0.577
 mixing_allocate                      1  3.0    0.009    0.009    0.129    0.538
 calculate_first_density_matrix       1  5.0    0.001    0.001    0.424    0.519
 calculate_atomic_block_dm            1  6.0    0.001    0.001    0.419    0.516
 dbcsr_reserve_blocks             27337  8.9    0.159    0.478    0.176    0.507
 mp_send_dv                        3222  7.0    0.112    0.450    0.112    0.450
 mp_bcast_im                      96416  8.3    0.381    0.434    0.381    0.434
 qs_vxc_create                       31  8.0    0.000    0.000    0.410    0.411
 xc_vxc_pw_create                    31  9.0    0.015    0.016    0.409    0.410
 dbcsr_copy_into_existing         17483  9.6    0.137    0.308    0.234    0.410
 build_core_ppnl                      1  5.0    0.108    0.404    0.108    0.404
 build_overlap_matrix_low             1  5.0    0.035    0.142    0.093    0.397
 quick_finalize                   67894  9.4    0.173    0.229    0.288    0.394
 build_kinetic_matrix_low             1  5.0    0.033    0.137    0.090    0.391
 mp_waitall_1                    199807  8.3    0.183    0.366    0.183    0.366
 mp_alltoall_z22v                   563 14.0    0.325    0.355    0.325    0.355
 calculate_ecore_overlap              1  4.0    0.000    0.000    0.255    0.325
 gspace_mixing                       30  5.0    0.012    0.013    0.313    0.313
 potential_pw2rs                     31 10.0    0.002    0.002    0.284    0.307
 mp_comm_free                    106717  8.9    0.248    0.290    0.248    0.290
 xc_pw_derive                       186 11.0    0.001    0.001    0.268    0.270
 qs_env_rebuild_rho                   1  5.0    0.000    0.000    0.069    0.267
 qs_rho_rebuild                       1  6.0    0.005    0.005    0.069    0.267
 broyden_mixing                      30  6.0    0.245    0.248    0.254    0.255
 mp_sum_iv                           24  5.3    0.205    0.252    0.205    0.252
 qs_scf_ensure_work_matrices          1  3.0    0.000    0.000    0.204    0.252
 yz_to_x                            253 12.8    0.014    0.016    0.201    0.226
 xc_rho_set_and_dset_create          31 10.0    0.009    0.010    0.210    0.216
 mp_isend_dv                      48800  8.3    0.183    0.193    0.183    0.193
 mp_sum_dv                          326  3.4    0.094    0.184    0.094    0.184
 xc_pw_divergence                    31 10.0    0.000    0.000    0.181    0.183
 dbcsr_iterator_seek             476481  9.8    0.130    0.175    0.130    0.175
 x_to_yz                            310 13.2    0.027    0.028    0.166    0.169
 dbcsr_sort_indices              146661 10.9    0.088    0.162    0.088    0.162
 dbcsr_data_copy_aa2              51430 11.0    0.077    0.159    0.077    0.159
 dbcsr_make_index_exist          282134  8.9    0.132    0.152    0.132    0.152
 restraint_control                    1  2.0    0.000    0.000    0.075    0.150
 mp_sum_i                             4  2.8    0.075    0.150    0.075    0.150
 dbcsr_reserve_all_blocks         15872 10.0    0.024    0.030    0.119    0.149
 transfer_pw2rs                     125 11.0    0.001    0.001    0.148    0.149
 mp_sum_dm3                          31  8.0    0.070    0.130    0.070    0.130
 transfer_pw2rs_500                  32 11.9    0.058    0.060    0.111    0.114
 parser_read_line                  7034  4.0    0.002    0.003    0.110    0.112
 parser_read_line_low                25  6.1    0.010    0.040    0.107    0.109
 merge_index                      51430 11.2    0.103    0.108    0.103    0.108
 broadcast_input_information         25  7.1    0.030    0.040    0.098    0.104
 mp_recv_dv                        9666  7.0    0.013    0.104    0.013    0.104
 mp_irecv_iv                     192832  8.3    0.012    0.099    0.012    0.099
 scf_post_calculation_gpw             1  3.0    0.000    0.000    0.085    0.085
 write_available_results              1  4.0    0.000    0.000    0.085    0.085
 write_mo_free_results                1  5.0    0.001    0.001    0.085    0.085
 dbcsr_switch_data_area           67894 10.4    0.062    0.064    0.081    0.082
 -------------------------------------------------------------------------------

 The number of warnings for this run is : 1
 
 -------------------------------------------------------------------------------
  **** **** ******  **  PROGRAM ENDED AT                 2025-08-05 00:30:51.046
 ***** ** ***  *** **   PROGRAM RAN ON                              i01r09c04s11
 **    ****   ******    PROGRAM RAN BY                                   di38fab
 ***** **    ** ** **   PROGRAM PROCESS ID                                 65560
  **** **  *******  **  PROGRAM STOPPED IN /hppfs/scratch/04/di38fab/09_GTH/Delt
                                           a_Set/Cd/aug-DZVP-MOLOPT-GTH-tier-2/8
                                           x8x8
