H                                       
   1.00000000000000     
     4.007590    0.000000    0.000000
    -2.003795    3.470675    0.000000
     0.000000    0.000000    5.003070
   H 
     4
Direct
  0.333333  0.666667  0.174980
  0.666667  0.333333  0.825020
  0.666667  0.333333  0.674980
  0.333333  0.666667  0.325020
 
   36   36   48
 0.48763E-01 0.50454E-01 0.55513E-01 0.64183E-01 0.77377E-01 0.96576E-01 0.12338     0.15914     0.20470     0.25974    
 0.32252     0.39064     0.46227     0.53613     0.60969     0.67763     0.73269     0.76833     0.78061     0.76833    
 0.73269     0.67763     0.60969     0.53613     0.46227     0.39064     0.32252     0.25974     0.20470     0.15914    
 0.12338     0.96576E-01 0.77377E-01 0.64183E-01 0.55513E-01 0.50454E-01 0.50388E-01 0.50417E-01 0.53798E-01 0.60675E-01
 0.71747E-01 0.88275E-01 0.11169     0.14325     0.18393     0.23437     0.29446     0.36295     0.43751     0.51544    
 0.59397     0.66939     0.73572     0.78540     0.81189     0.81210     0.78635     0.73742     0.67034     0.59243    
 0.51170     0.43393     0.36155     0.29523     0.23590     0.18501     0.14359     0.11162     0.88175E-01 0.71757E-01
 0.60708E-01 0.53772E-01 0.55382E-01 0.53732E-01 0.55445E-01 0.60641E-01 0.69995E-01 0.84690E-01 0.10610     0.13539    
 0.17325     0.22012     0.27687     0.34470     0.42393     0.51252     0.60615     0.69935     0.78557     0.85660    
 0.90351     0.91976     0.90363     0.85778     0.78747     0.69995     0.60426     0.50956     0.42236     0.34529    
 0.27844     0.22125     0.17351     0.13515     0.10585     0.84636E-01 0.70056E-01 0.60642E-01 0.64114E-01 0.60672E-01
 0.60710E-01 0.64153E-01 0.71708E-01 0.84620E-01 0.10431     0.13207     0.16878     0.21475     0.27050     0.33802    
 0.42041     0.51928     0.63198     0.75146     0.86800     0.97063      1.0477      1.0889      1.0884      1.0468    
 0.97044     0.86881     0.75270     0.63334     0.52081     0.42183     0.33869     0.27020     0.21396     0.16810    
 0.13174     0.10426     0.84705E-01 0.71760E-01 0.77377E-01 0.71776E-01 0.70126E-01 0.71814E-01 0.77374E-01 0.88188E-01
 0.10579     0.13153     0.16663     0.21219     0.26921     0.33956     0.42686     0.53529     0.66604     0.81399    
 0.96761      1.1117      1.2302      1.3084      1.3354      1.3072      1.2281      1.1099     0.96759     0.81630    
 0.66952     0.53770     0.42686     0.33780     0.26738     0.21134     0.16663     0.13178     0.10598     0.88279E-01
 0.96613E-01 0.88173E-01 0.84653E-01 0.84725E-01 0.88262E-01 0.96590E-01 0.11164     0.13488     0.16731     0.21046    
 0.26689     0.34007     0.43428     0.55422     0.70305     0.87859      1.0706      1.2617      1.4310      1.5583    
  1.6269      1.6270      1.5579      1.4295      1.2598      1.0699     0.87947     0.70398     0.55353     0.43228    
 0.33856     0.26689     0.21134     0.16800     0.13512     0.11172     0.12363     0.11162     0.10571     0.10424    
 0.10605     0.11168     0.12350     0.14381     0.17343     0.21305     0.26568     0.33712     0.43443     0.56415    
 0.73059     0.93290      1.1623      1.4015      1.6271      1.8133      1.9368      1.9807      1.9383      1.8151    
  1.6276      1.4003      1.1603     0.93113     0.72907     0.56292     0.43430     0.33860     0.26764     0.21389    
 0.17312     0.14353     0.15967     0.14384     0.13487     0.13148     0.13201     0.13537     0.14329     0.15942    
 0.18574     0.22211     0.27021     0.33635     0.43008     0.56144     0.73821     0.96217      1.2255      1.5105    
  1.7932      2.0450      2.2353      2.3379      2.3382      2.2370      2.0480      1.7952      1.5098      1.2233    
 0.96103     0.73845     0.56239     0.43179     0.33837     0.27079     0.22073     0.18442     0.20470     0.18551    
 0.17338     0.16734     0.16663     0.16878     0.17317     0.18371     0.20472     0.23681     0.28020     0.34017    
 0.42686     0.55202     0.72717     0.95986      1.2466      1.5703      1.9053      2.2225      2.4877      2.6645    
  2.7252      2.6624      2.4877      2.2252      1.9067      1.5693      1.2466     0.96201     0.72881     0.55199    
 0.42686     0.34026     0.27857     0.23446     0.25801     0.23604     0.22186     0.21308     0.21049     0.21223    
 0.21479     0.21985     0.23356     0.25887     0.29528     0.34678     0.42402     0.53915     0.70393     0.93021    
  1.2228      1.5698      1.9453      2.3189      2.6571      2.9179      3.0584      3.0551      2.9130      2.6566    
  2.3203      1.9444      1.5691      1.2256     0.93286     0.70220     0.53593     0.42350     0.34703     0.29356    
 0.31912     0.29440     0.28015     0.27044     0.26580     0.26692     0.26934     0.27074     0.27679     0.29354    
 0.32081     0.36006     0.42230     0.52227     0.67128     0.88039      1.1605      1.5097      1.9065      2.3192    
  2.7155      3.0548      3.2857      3.3648      3.2805      3.0524      2.7172      2.3186      1.9033      1.5103    
  1.1640     0.87951     0.66611     0.52074     0.42563     0.36148     0.38772     0.36009     0.34762     0.34088    
 0.33660     0.33712     0.34005     0.33979     0.33876     0.34560     0.36298     0.38915     0.43165     0.50808    
 0.63341     0.81725      1.0707      1.4006      1.7950      2.2241      2.6550      3.0515      3.3636      3.5351    
  3.5329      3.3621      3.0554      2.6578      2.2207      1.7918      1.4032      1.0728     0.81342     0.63049    
 0.51248     0.43678     0.46227     0.43314     0.42406     0.42492     0.42686     0.42980     0.43417     0.43400    
 0.42686     0.42132     0.42571     0.43901     0.46227     0.51023     0.60255     0.75183     0.96760      1.2600    
  1.6277      2.0480      2.4877      2.9130      3.2804      3.5329      3.6213      3.5314      3.2839      2.9192    
  2.4877      2.0430      1.6273      1.2642     0.96759     0.74833     0.60439     0.51621     0.53912     0.51238    
 0.50953     0.52233     0.53832     0.55127     0.56117     0.56390     0.55350     0.53443     0.51929     0.51399    
 0.51766     0.53765     0.59245     0.69901     0.86799      1.1096      1.4295      1.8154      2.2380      2.6641    
  3.0560      3.3633      3.5314      3.5292      3.3618      3.0599      2.6669      2.2345      1.8121      1.4325    
  1.1129     0.86576     0.69696     0.59549     0.61323     0.59391     0.60249     0.63191     0.66958     0.70309    
 0.72731     0.73873     0.73071     0.70220     0.66434     0.63049     0.60609     0.59543     0.61147     0.67121    
 0.78741     0.97012      1.2279      1.5577      1.9385      2.3394      2.7270      3.0590      3.2840      3.3607    
  3.2787      3.0566      2.7288      2.3388      1.9351      1.5580      1.2317     0.97037     0.78380     0.67027    
 0.67944     0.67126     0.69754     0.74959     0.81575     0.88036     0.93109     0.96089     0.96317     0.93375    
 0.87858     0.81253     0.74920     0.69782     0.66941     0.67856     0.73820     0.85806      1.0468      1.3069    
  1.6263      1.9798      2.3376      2.6652      2.9192      3.0563      3.0530      2.9143      2.6648      2.3392    
  1.9789      1.6253      1.3090      1.0486     0.85597     0.73555     0.73269     0.73733     0.78570     0.86653    
 0.96761      1.0721      1.1620      1.2234      1.2466      1.2261      1.1639      1.0721     0.96760     0.86655    
 0.78387     0.73485     0.73269     0.78666     0.90395      1.0887      1.3354      1.6260      1.9349      2.2335    
  2.4877      2.6595      2.7189      2.6573      2.4877      2.2363      1.9366      1.6254      1.3354      1.0900    
 0.90376     0.78488     0.76777     0.78589     0.85716     0.97014      1.1111      1.2623      1.4020      1.5095    
  1.5682      1.5686      1.5103      1.4029      1.2639      1.1132     0.97068     0.85570     0.78456     0.76803    
 0.81214     0.92007      1.0897      1.3092      1.5582      1.8118      2.0430      2.2217      2.3198      2.3201    
  2.2234      2.0460      1.8139      1.5577      1.3078      1.0894     0.92032     0.81161     0.78010     0.81183    
 0.90389      1.0477      1.2296      1.4310      1.6278      1.7938      1.9048      1.9435      1.9036      1.7920    
  1.6272      1.4325      1.2319      1.0486     0.90344     0.81158     0.78036     0.81158     0.90344      1.0486    
  1.2319      1.4325      1.6272      1.7920      1.9036      1.9435      1.9048      1.7938      1.6278      1.4310    
  1.2296      1.0477     0.90389     0.81183     0.76777     0.81161     0.92032      1.0894      1.3078      1.5577    
  1.8139      2.0460      2.2234      2.3201      2.3198      2.2217      2.0430      1.8118      1.5582      1.3092    
  1.0897     0.92007     0.81214     0.76803     0.78456     0.85570     0.97068      1.1132      1.2639      1.4029    
  1.5103      1.5686      1.5682      1.5095      1.4020      1.2623      1.1111     0.97014     0.85716     0.78589    
 0.73269     0.78488     0.90376      1.0900      1.3354      1.6254      1.9366      2.2363      2.4877      2.6573    
  2.7189      2.6595      2.4877      2.2335      1.9349      1.6260      1.3354      1.0887     0.90395     0.78666    
 0.73269     0.73485     0.78387     0.86655     0.96760      1.0721      1.1639      1.2261      1.2466      1.2234    
  1.1620      1.0721     0.96761     0.86653     0.78570     0.73733     0.67944     0.73555     0.85597      1.0486    
  1.3090      1.6253      1.9789      2.3392      2.6648      2.9143      3.0530      3.0563      2.9192      2.6652    
  2.3376      1.9798      1.6263      1.3069      1.0468     0.85806     0.73820     0.67856     0.66941     0.69782    
 0.74920     0.81253     0.87858     0.93375     0.96317     0.96089     0.93109     0.88036     0.81575     0.74959    
 0.69754     0.67126     0.61323     0.67027     0.78380     0.97037      1.2317      1.5580      1.9351      2.3388    
  2.7288      3.0566      3.2787      3.3607      3.2840      3.0590      2.7270      2.3394      1.9385      1.5577    
  1.2279     0.97012     0.78741     0.67121     0.61147     0.59543     0.60609     0.63049     0.66434     0.70220    
 0.73071     0.73873     0.72731     0.70309     0.66958     0.63191     0.60249     0.59391     0.53912     0.59549    
 0.69696     0.86576      1.1129      1.4325      1.8121      2.2345      2.6669      3.0599      3.3618      3.5292    
  3.5314      3.3633      3.0560      2.6641      2.2380      1.8154      1.4295      1.1096     0.86799     0.69901    
 0.59245     0.53765     0.51766     0.51399     0.51929     0.53443     0.55350     0.56390     0.56117     0.55127    
 0.53832     0.52233     0.50953     0.51238     0.46227     0.51621     0.60439     0.74833     0.96759      1.2642    
  1.6273      2.0430      2.4877      2.9192      3.2839      3.5314      3.6213      3.5329      3.2804      2.9130    
  2.4877      2.0480      1.6277      1.2600     0.96760     0.75183     0.60255     0.51023     0.46227     0.43901    
 0.42571     0.42132     0.42686     0.43400     0.43417     0.42980     0.42686     0.42492     0.42406     0.43314    
 0.38772     0.43678     0.51248     0.63049     0.81342      1.0728      1.4032      1.7918      2.2207      2.6578    
  3.0554      3.3621      3.5329      3.5351      3.3636      3.0515      2.6550      2.2241      1.7950      1.4006    
  1.0707     0.81725     0.63341     0.50808     0.43165     0.38915     0.36298     0.34560     0.33876     0.33979    
 0.34005     0.33712     0.33660     0.34088     0.34762     0.36009     0.31912     0.36148     0.42563     0.52074    
 0.66611     0.87951      1.1640      1.5103      1.9033      2.3186      2.7172      3.0524      3.2805      3.3648    
  3.2857      3.0548      2.7155      2.3192      1.9065      1.5097      1.1605     0.88039     0.67128     0.52227    
 0.42230     0.36006     0.32081     0.29354     0.27679     0.27074     0.26934     0.26692     0.26580     0.27044    
 0.28015     0.29440     0.25801     0.29356     0.34703     0.42350     0.53593     0.70220     0.93286      1.2256    
  1.5691      1.9444      2.3203      2.6566      2.9130      3.0551      3.0584      2.9179      2.6571      2.3189    
  1.9453      1.5698      1.2228     0.93021     0.70393     0.53915     0.42402     0.34678     0.29528     0.25887    
 0.23356     0.21985     0.21479     0.21223     0.21049     0.21308     0.22186     0.23604     0.20470     0.23446    
 0.27857     0.34026     0.42686     0.55199     0.72881     0.96201      1.2466      1.5693      1.9067      2.2252    
  2.4877      2.6624      2.7252      2.6645      2.4877      2.2225      1.9053      1.5703      1.2466     0.95986    
 0.72717     0.55202     0.42686     0.34017     0.28020     0.23681     0.20472     0.18371     0.17317     0.16878    
 0.16663     0.16734     0.17338     0.18551     0.15967     0.18442     0.22073     0.27079     0.33837     0.43179    
 0.56239     0.73845     0.96103      1.2233      1.5098      1.7952      2.0480      2.2370      2.3382      2.3379    
  2.2353      2.0450      1.7932      1.5105      1.2255     0.96217     0.73821     0.56144     0.43008     0.33635    
 0.27021     0.22211     0.18574     0.15942     0.14329     0.13537     0.13201     0.13148     0.13487     0.14384    
 0.12363     0.14353     0.17312     0.21389     0.26764     0.33860     0.43430     0.56292     0.72907     0.93113    
  1.1603      1.4003      1.6276      1.8151      1.9383      1.9807      1.9368      1.8133      1.6271      1.4015    
  1.1623     0.93290     0.73059     0.56415     0.43443     0.33712     0.26568     0.21305     0.17343     0.14381    
 0.12350     0.11168     0.10605     0.10424     0.10571     0.11162     0.96613E-01 0.11172     0.13512     0.16800    
 0.21134     0.26689     0.33856     0.43228     0.55353     0.70398     0.87947      1.0699      1.2598      1.4295    
  1.5579      1.6270      1.6269      1.5583      1.4310      1.2617      1.0706     0.87859     0.70305     0.55422    
 0.43428     0.34007     0.26689     0.21046     0.16731     0.13488     0.11164     0.96590E-01 0.88262E-01 0.84725E-01
 0.84653E-01 0.88173E-01 0.77377E-01 0.88279E-01 0.10598     0.13178     0.16663     0.21134     0.26738     0.33780    
 0.42686     0.53770     0.66952     0.81630     0.96759      1.1099      1.2281      1.3072      1.3354      1.3084    
  1.2302      1.1117     0.96761     0.81399     0.66604     0.53529     0.42686     0.33956     0.26921     0.21219    
 0.16663     0.13153     0.10579     0.88188E-01 0.77374E-01 0.71814E-01 0.70126E-01 0.71776E-01 0.64114E-01 0.71760E-01
 0.84705E-01 0.10426     0.13174     0.16810     0.21396     0.27020     0.33869     0.42183     0.52081     0.63334    
 0.75270     0.86881     0.97044      1.0468      1.0884      1.0889      1.0477     0.97063     0.86800     0.75146    
 0.63198     0.51928     0.42041     0.33802     0.27050     0.21475     0.16878     0.13207     0.10431     0.84620E-01
 0.71708E-01 0.64153E-01 0.60710E-01 0.60672E-01 0.55382E-01 0.60642E-01 0.70056E-01 0.84636E-01 0.10585     0.13515    
 0.17351     0.22125     0.27844     0.34529     0.42236     0.50956     0.60426     0.69995     0.78747     0.85778    
 0.90363     0.91976     0.90351     0.85660     0.78557     0.69935     0.60615     0.51252     0.42393     0.34470    
 0.27687     0.22012     0.17325     0.13539     0.10610     0.84690E-01 0.69995E-01 0.60641E-01 0.55445E-01 0.53732E-01
 0.50388E-01 0.53772E-01 0.60708E-01 0.71757E-01 0.88175E-01 0.11162     0.14359     0.18501     0.23590     0.29523    
 0.36155     0.43393     0.51170     0.59243     0.67034     0.73742     0.78635     0.81210     0.81189     0.78540    
 0.73572     0.66939     0.59397     0.51544     0.43751     0.36295     0.29446     0.23437     0.18393     0.14325    
 0.11169     0.88275E-01 0.71747E-01 0.60675E-01 0.53798E-01 0.50417E-01 0.49423E-01 0.51121E-01 0.56267E-01 0.65086E-01
 0.78480E-01 0.97967E-01 0.12517     0.16147     0.20787     0.26432     0.32919     0.40000     0.47493     0.55279    
 0.63091     0.70338     0.76219     0.80024     0.81333     0.80020     0.76220     0.70364     0.63147     0.55330    
 0.47493     0.39948     0.32861     0.26406     0.20787     0.16152     0.12520     0.98010E-01 0.78485E-01 0.65049E-01
 0.56256E-01 0.51147E-01 0.51052E-01 0.51061E-01 0.54346E-01 0.60927E-01 0.71336E-01 0.86811E-01 0.10888     0.13885    
 0.17776     0.22631     0.28425     0.34983     0.42003     0.49193     0.56328     0.63129     0.69098     0.73564    
 0.75943     0.75961     0.73655     0.69270     0.63240     0.56194     0.48819     0.41617     0.34813     0.28495    
 0.22794     0.17893     0.13922     0.10883     0.86739E-01 0.71331E-01 0.60938E-01 0.54338E-01 0.56132E-01 0.54598E-01
 0.56185E-01 0.60898E-01 0.69150E-01 0.81958E-01 0.10074     0.12679     0.16086     0.20322     0.25425     0.31435    
 0.38284     0.45703     0.53295     0.60661     0.67385     0.72905     0.76549     0.77810     0.76561     0.73014    
 0.67551     0.60685     0.53075     0.45401     0.38149     0.31533     0.25615     0.20448     0.16110     0.12650    
 0.10046     0.81903E-01 0.69210E-01 0.60903E-01 0.65018E-01 0.62090E-01 0.62133E-01 0.65058E-01 0.71328E-01 0.81909E-01
 0.98118E-01 0.12141     0.15281     0.19234     0.23957     0.29502     0.36044     0.43668     0.52132     0.60891    
 0.69278     0.76600     0.82095     0.85032     0.84983     0.82012     0.76576     0.69323     0.60966     0.52251    
 0.43855     0.36243     0.29603     0.23926     0.19139     0.15200     0.12102     0.98053E-01 0.81995E-01 0.71389E-01
 0.78485E-01 0.74185E-01 0.72936E-01 0.74242E-01 0.78479E-01 0.86749E-01 0.10038     0.12075     0.14928     0.18686    
 0.23331     0.28835     0.35332     0.43109     0.52304     0.62596     0.73198     0.83091     0.91220     0.96594    
 0.98447     0.96487     0.91043     0.82936     0.73196     0.62819     0.52658     0.43369     0.35334     0.28633    
 0.23117     0.18586     0.14928     0.12103     0.10059     0.86863E-01 0.98009E-01 0.92126E-01 0.89788E-01 0.89872E-01
 0.92225E-01 0.97974E-01 0.10883     0.12616     0.15103     0.18477     0.22887     0.28437     0.35236     0.43505    
 0.53508     0.65233     0.78098     0.90953      1.0238      1.1098      1.1563      1.1564      1.1095      1.0225    
 0.90800     0.78059     0.65334     0.53585     0.43396     0.34991     0.28259     0.22890     0.18584     0.15185    
 0.12644     0.10893     0.12543     0.11768     0.11420     0.11348     0.11451     0.11774     0.12535     0.13951    
 0.16103     0.19029     0.22914     0.28090     0.34910     0.43683     0.54663     0.67905     0.82987     0.98848    
  1.1390      1.2637      1.3463      1.3758      1.3476      1.2652      1.1395     0.98757     0.82820     0.67725    
 0.54476     0.43527     0.34897     0.28265     0.23139     0.19130     0.16075     0.13918     0.16200     0.15242    
 0.14762     0.14622     0.14668     0.14805     0.15196     0.16188     0.17985     0.20554     0.23932     0.28465    
 0.34732     0.43351     0.54831     0.69364     0.86547      1.0531      1.2403      1.4072      1.5331      1.6006    
  1.6009      1.5346      1.4098      1.2420      1.0523     0.86340     0.69237     0.54853     0.43484     0.34954    
 0.28684     0.23978     0.20406     0.17847     0.20787     0.19711     0.19128     0.18905     0.18943     0.19024    
 0.19105     0.19550     0.20788     0.22902     0.25824     0.29779     0.35332     0.43216     0.54256     0.69108    
 0.87695      1.0892      1.3100      1.5188      1.6924      1.8067      1.8454      1.8050      1.6923      1.5211    
  1.3112      1.0883     0.87695     0.69318     0.54453     0.43267     0.35334     0.29736     0.25627     0.22673    
 0.26254     0.25171     0.24634     0.24384     0.24425     0.24571     0.24525     0.24454     0.24937     0.26296    
 0.28495     0.31705     0.36499     0.43541     0.53583     0.67617     0.86267      1.0886      1.3351      1.5798    
  1.7991      1.9658      2.0541      2.0513      1.9617      1.7986      1.5810      1.3344      1.0881     0.86528    
 0.67870     0.53433     0.43214     0.36379     0.31679     0.28353     0.32571     0.31605     0.31389     0.31375    
 0.31513     0.31794     0.31820     0.31411     0.31106     0.31503     0.32657     0.34640     0.38145     0.44028    
 0.52868     0.65444     0.82831      1.0522      1.3109      1.5800      1.8354      2.0507      2.1944      2.2425    
  2.1900      2.0486      1.8369      1.5795      1.3083      1.0528     0.83133     0.65340     0.52368     0.43846    
 0.38427     0.34810     0.39702     0.39041     0.39496     0.40236     0.40861     0.41438     0.41690     0.41145    
 0.40080     0.39351     0.39290     0.39780     0.41356     0.45225     0.52254     0.62930     0.78155     0.98791    
  1.2418      1.5202      1.7973      2.0479      2.2414      2.3456      2.3437      2.2401      2.0512      1.7997    
  1.5173      1.2390     0.99009     0.78317     0.62576     0.52008     0.45653     0.41866     0.47493     0.47507    
 0.49045     0.51226     0.53126     0.54528     0.55304     0.54882     0.53125     0.50943     0.49242     0.48060    
 0.47492     0.48644     0.52872     0.60863     0.73197     0.90831      1.1397      1.4098      1.6923      1.9616    
  2.1899      2.3437      2.3964      2.3424      2.1929      1.9670      1.6923      1.4056      1.1393     0.91179    
 0.73196     0.60590     0.53088     0.49208     0.55584     0.56866     0.60048     0.64408     0.68648     0.71919    
 0.73933     0.74162     0.72088     0.68283     0.64141     0.60476     0.57390     0.55503     0.56197     0.60578    
 0.69225     0.82899      1.0225      1.2655      1.5355      1.8064      2.0520      2.2411      2.3424      2.3405    
  2.2399      2.0554      1.8088      1.5324      1.2626      1.0251     0.83187     0.69054     0.60425     0.56458    
 0.63452     0.66647     0.72224     0.79547     0.87233     0.93767     0.98263      1.0009     0.98553     0.93661    
 0.86725     0.79378     0.72537     0.66828     0.63356     0.63347     0.67544     0.76537     0.91016      1.1093    
  1.3478      1.6019      1.8470      2.0546      2.1930      2.2389      2.1885      2.0526      1.8485      1.6014    
  1.3448      1.1096     0.91348     0.76567     0.67233     0.63237     0.70523     0.76055     0.84790     0.95920    
  1.0807      1.1929      1.2789      1.3272      1.3294      1.2814      1.1914      1.0775     0.95821     0.84767    
 0.75894     0.70474     0.69364     0.73047     0.82014     0.96466      1.1558      1.3750      1.6004      1.8074    
  1.9670      2.0519      2.0491      1.9628      1.8070      1.6017      1.3743      1.1549     0.96649     0.82174    
 0.72860     0.69113     0.76220     0.84178     0.96522      1.1220      1.2970      1.4686      1.6127      1.7093    
  1.7447      1.7120      1.6149      1.4691      1.2970      1.1215     0.96307     0.83938     0.76219     0.73690    
 0.76594     0.85012     0.98446      1.1555      1.3447      1.5316      1.6923      1.8011      1.8383      1.7993    
  1.6924      1.5339      1.3461      1.1550     0.98447     0.85120     0.76573     0.73531     0.79968     0.90186    
  1.0609      1.2662      1.5009      1.7417      1.9595      2.1253      2.2153      2.2157      2.1261      1.9607    
  1.7437      1.5031      1.2666      1.0594     0.90050     0.79981     0.75964     0.77837     0.85093     0.96666    
  1.1098      1.2624      1.4055      1.5182      1.5805      1.5808      1.5196      1.4081      1.2642      1.1093    
 0.96539     0.85069     0.77856     0.75918     0.81281     0.93403      1.1238      1.3742      1.6690      1.9841    
  2.2876      2.5430      2.7144      2.7744      2.7129      2.5410      2.2870      1.9858      1.6716      1.3752    
  1.1233     0.93375     0.81308     0.75917     0.76542     0.82167     0.91374      1.0251      1.1392      1.2392    
  1.3085      1.3337      1.3095      1.2407      1.1398      1.0238     0.91168     0.82086     0.76589     0.75939    
 0.79963     0.93379      1.1459      1.4323      1.7798      2.1666      2.5608      2.9208      3.1997      3.3532    
  3.3529      3.1977      2.9173      2.5584      2.1673      1.7816      1.4326      1.1455     0.93442     0.80002    
 0.73495     0.72826     0.76605     0.83226     0.91149     0.98975      1.0529      1.0878      1.0873      1.0520    
 0.98916     0.91027     0.83033     0.76542     0.72972     0.73628     0.76219     0.90079      1.1237      1.4329    
  1.8190      2.2646      2.7429      3.2118      3.6158      3.8945      3.9962      3.8970      3.6157      3.2085    
  2.7410      2.2654      1.8190      1.4314      1.1238     0.90284     0.76219     0.69023     0.67239     0.69153    
 0.73197     0.78220     0.83121     0.86600     0.87695     0.86318     0.82964     0.78279     0.73198     0.69100    
 0.67398     0.69288     0.70548     0.83995      1.0596      1.3752      1.7813      2.2645      2.8063      3.3715    
  3.9021      4.3242      4.5637      4.5675      4.3299      3.9025      3.3697      2.8074      2.2657      1.7787    
  1.3731      1.0620     0.84281     0.70412     0.63131     0.60533     0.60693     0.62463     0.65228     0.67978    
 0.69447     0.69191     0.67690     0.65443     0.62802     0.60666     0.60446     0.63348     0.63508     0.75965    
 0.96300      1.2664      1.6713      2.1670      2.7411      3.3711      4.0065      4.5677      4.9626      5.1095    
  4.9688      4.5706      4.0044      3.3719      2.7451      2.1666      1.6669      1.2662     0.96725     0.76047    
 0.63244     0.56457     0.53289     0.52003     0.52160     0.53437     0.54673     0.54874     0.54268     0.53514    
 0.52722     0.52123     0.52865     0.56325     0.55636     0.66830     0.84693      1.1209      1.5029      1.9858    
  2.5587      3.2098      3.9046      4.5715      5.1108      5.4190      5.4217      5.1128      4.5670      3.9012    
  3.2138      2.5626      1.9823      1.4991      1.1237     0.84965     0.66477     0.55412     0.49380     0.45828    
 0.43677     0.43044     0.43444     0.43659     0.43331     0.43160     0.43470     0.44028     0.45352     0.48838    
 0.47493     0.57266     0.72392     0.95746      1.2970      1.7439      2.2871      2.9173      3.6157      4.3298    
  4.9688      5.4217      5.5888      5.4234      4.9647      4.3225      3.6157      2.9232      2.2875      1.7389    
  1.2970     0.96190     0.72231     0.56608     0.47492     0.42130     0.38435     0.36122     0.35332     0.35212    
 0.34888     0.34708     0.35332     0.36576     0.38296     0.41484     0.39648     0.47864     0.60350     0.79377    
  1.0782      1.4697      1.9610      2.5407      3.1964      3.8950      4.5665      5.1114      5.4235      5.4259    
  5.1129      4.5619      3.8917      3.2005      2.5444      1.9577      1.4669      1.0825     0.79724     0.59870    
 0.47329     0.39874     0.34986     0.31504     0.29557     0.28853     0.28436     0.28085     0.28480     0.29839    
 0.31781     0.34640     0.32512     0.39158     0.49234     0.64269     0.86878      1.1922      1.6151      2.1262    
  2.7126      3.3515      3.9942      4.5631      4.9647      5.1143      4.9709      4.5659      3.9922      3.3522    
  2.7164      2.1257      1.6108      1.1930     0.87438     0.64401     0.48835     0.39038     0.32774     0.28350    
 0.25417     0.23974     0.23343     0.22893     0.22924     0.23948     0.25819     0.28422     0.26228     0.31509    
 0.39475     0.51132     0.68416     0.93667      1.2807      1.7116      2.2164      2.7754      3.3536      3.8936    
  4.3225      4.5659      4.5698      4.3285      3.8942      3.3518      2.7765      2.2173      1.7086      1.2778    
 0.93871     0.68753     0.51118     0.39393     0.31713     0.26361     0.22568     0.20302     0.19239     0.18693    
 0.18485     0.19034     0.20532     0.22837     0.20787     0.25014     0.31258     0.40209     0.53126     0.71958    
 0.98386      1.3283      1.7447      2.2166      2.7167      3.2017      3.6157      3.8992      4.0023      3.9018    
  3.6158      3.1985      2.7149      2.2176      1.7447      1.3260     0.98248     0.72013     0.53125     0.40148    
 0.31396     0.25267     0.20788     0.17758     0.16080     0.15281     0.14928     0.15105     0.16098     0.17964    
 0.16205     0.19607     0.24528     0.31414     0.41017     0.54688     0.74030      1.0006      1.3271      1.7089    
  2.1256      2.5448      2.9232      3.2126      3.3705      3.3700      3.2106      2.9195      2.5424      2.1264    
  1.7112      1.3281      1.0003     0.73966     0.54561     0.40828     0.31346     0.24664     0.19738     0.16167    
 0.13887     0.12675     0.12131     0.12067     0.12615     0.13953     0.12546     0.15213     0.19099     0.24451    
 0.31674     0.41564     0.55319     0.74095     0.98415      1.2786      1.6107      1.9576      2.2874      2.5622    
  2.7450      2.8085      2.7432      2.5601      2.2868      1.9590      1.6130      1.2804     0.98539     0.74192    
 0.55334     0.41438     0.31500     0.24380     0.19135     0.15239     0.12528     0.10889     0.10068     0.98026E-01
 0.10032     0.10884     0.98040E-01 0.11781     0.14783     0.18959     0.24500     0.31795     0.41563     0.54752    
 0.72143     0.93878      1.1922      1.4662      1.7387      1.9823      2.1670      2.2667      2.2665      2.1673    
  1.9841      1.7412      1.4674      1.1914     0.93766     0.72178     0.54915     0.41691     0.31793     0.24424    
 0.18902     0.14764     0.11773     0.98022E-01 0.86851E-01 0.82013E-01 0.81946E-01 0.86765E-01 0.78480E-01 0.92251E-01