H                                       
   1.00000000000000     
     4.007590    0.000000    0.000000
    -2.003795    3.470675    0.000000
     0.000000    0.000000    5.003070
   H 
     4
Direct
  0.333333  0.666667  0.174980
  0.666667  0.333333  0.825020
  0.666667  0.333333  0.674980
  0.333333  0.666667  0.325020
 
   36   36   48
 0.48763024834E-01 0.50454298836E-01 0.55513021306E-01 0.64183184948E-01 0.77377059092E-01
 0.96576344742E-01 0.12337529920E+00 0.15914302777E+00 0.20470135758E+00 0.25974222610E+00
 0.32252483898E+00 0.39064298113E+00 0.46227234533E+00 0.53613245968E+00 0.60969204530E+00
 0.67763088636E+00 0.73269392797E+00 0.76833244887E+00 0.78061290254E+00 0.76833244887E+00
 0.73269392797E+00 0.67763088636E+00 0.60969204530E+00 0.53613245968E+00 0.46227234533E+00
 0.39064298113E+00 0.32252483898E+00 0.25974222610E+00 0.20470135758E+00 0.15914302777E+00
 0.12337529920E+00 0.96576344742E-01 0.77377059092E-01 0.64183184948E-01 0.55513021305E-01
 0.50454298836E-01 0.50388246441E-01 0.50417057232E-01 0.53797985922E-01 0.60674513475E-01
 0.71747405343E-01 0.88275188568E-01 0.11168833034E+00 0.14324527527E+00 0.18393306566E+00
 0.23437295338E+00 0.29446276150E+00 0.36294936071E+00 0.43750917830E+00 0.51543652430E+00
 0.59397415733E+00 0.66938590923E+00 0.73572014757E+00 0.78539633079E+00 0.81189473739E+00
 0.81209795597E+00 0.78635201120E+00 0.73742431053E+00 0.67033737992E+00 0.59243459827E+00
 0.51170395817E+00 0.43392881770E+00 0.36154670493E+00 0.29522747358E+00 0.23589719062E+00
 0.18501261880E+00 0.14359286565E+00 0.11162099435E+00 0.88175117052E-01 0.71756990616E-01
 0.60707957327E-01 0.53772327877E-01 0.55381952376E-01 0.53731933528E-01 0.55445026134E-01
 0.60640909306E-01 0.69994507883E-01 0.84689717330E-01 0.10610190835E+00 0.13539072290E+00
 0.17324592184E+00 0.22012473033E+00 0.27686983021E+00 0.34470365763E+00 0.42393356588E+00
 0.51251958324E+00 0.60615430159E+00 0.69934592972E+00 0.78556593506E+00 0.85660092865E+00
 0.90351210644E+00 0.91975799995E+00 0.90362638120E+00 0.85777544601E+00 0.78747188571E+00
 0.69994975650E+00 0.60426059843E+00 0.50956204609E+00 0.42235600956E+00 0.34529201222E+00
 0.27843755733E+00 0.22125056261E+00 0.17350628448E+00 0.13515347816E+00 0.10584758315E+00
 0.84636307597E-01 0.70056271055E-01 0.60641904932E-01 0.64114496584E-01 0.60671877506E-01
 0.60709597670E-01 0.64152879897E-01 0.71707908852E-01 0.84620067950E-01 0.10430510296E+00
 0.13206924095E+00 0.16878035946E+00 0.21474814160E+00 0.27050492746E+00 0.33802464989E+00
 0.42041395315E+00 0.51927648447E+00 0.63198154073E+00 0.75146079373E+00 0.86800384036E+00
 0.97062575268E+00 0.10477201076E+01 0.10889187981E+01 0.10883652635E+01 0.10467690233E+01
 0.97044258419E+00 0.86881276695E+00 0.75269843215E+00 0.63334108528E+00 0.52080968592E+00
 0.42183044616E+00 0.33868658953E+00 0.27019885792E+00 0.21395524015E+00 0.16810458129E+00
 0.13174474476E+00 0.10426429668E+00 0.84704995962E-01 0.71759626585E-01 0.77377059092E-01
 0.71776074758E-01 0.70125576812E-01 0.71813980196E-01 0.77374384147E-01 0.88187819823E-01
 0.10578760794E+00 0.13152563240E+00 0.16663389888E+00 0.21218645987E+00 0.26920551556E+00
 0.33955904472E+00 0.42685813941E+00 0.53529297624E+00 0.66604227505E+00 0.81398762990E+00
 0.96760709200E+00 0.11116673960E+01 0.12301509528E+01 0.13083716298E+01 0.13354060079E+01
 0.13071666262E+01 0.12281358185E+01 0.11099245934E+01 0.96759088091E+00 0.81630434151E+00
 0.66951678252E+00 0.53769946392E+00 0.42686366281E+00 0.33780446165E+00 0.26737905575E+00
 0.21133812627E+00 0.16662749693E+00 0.13177605015E+00 0.10597865208E+00 0.88278552427E-01
 0.96612833294E-01 0.88172647622E-01 0.84653228778E-01 0.84725244866E-01 0.88261691356E-01
 0.96590378980E-01 0.11164407955E+00 0.13488075530E+00 0.16731238511E+00 0.21045611528E+00
 0.26688607703E+00 0.34007295708E+00 0.43427708132E+00 0.55422204142E+00 0.70305284285E+00
 0.87859163073E+00 0.10706144932E+01 0.12616987687E+01 0.14309919748E+01 0.15582541566E+01
 0.16269325771E+01 0.16270262060E+01 0.15579313828E+01 0.14295204163E+01 0.12597811052E+01
 0.10698844093E+01 0.87947041158E+00 0.70397837270E+00 0.55353108888E+00 0.43228211871E+00
 0.33856280421E+00 0.26689111927E+00 0.21133723184E+00 0.16799940438E+00 0.13511698960E+00
 0.11172353530E+00 0.12363312911E+00 0.11162227794E+00 0.10571300951E+00 0.10423641460E+00
 0.10604543785E+00 0.11168056810E+00 0.12350013604E+00 0.14380975160E+00 0.17343132288E+00
 0.21305154390E+00 0.26568037140E+00 0.33712490445E+00 0.43442971272E+00 0.56415492321E+00
 0.73058650169E+00 0.93289701689E+00 0.11622914380E+01 0.14014843654E+01 0.16270544918E+01
 0.18133370965E+01 0.19368326509E+01 0.19806929731E+01 0.19383354451E+01 0.18151042043E+01
 0.16275730500E+01 0.14003146324E+01 0.11603394179E+01 0.93112663378E+00 0.72907058748E+00
 0.56291799586E+00 0.43429698622E+00 0.33859929277E+00 0.26763688566E+00 0.21388655178E+00
 0.17311738564E+00 0.14352681326E+00 0.15966700159E+00 0.14383530148E+00 0.13486674909E+00
 0.13147657877E+00 0.13201222323E+00 0.13536824056E+00 0.14328577778E+00 0.15942230027E+00
 0.18574375691E+00 0.22211195077E+00 0.27021393095E+00 0.33634851346E+00 0.43008489618E+00
 0.56144058208E+00 0.73820802504E+00 0.96216651644E+00 0.12254516369E+01 0.15105454735E+01
 0.17932345007E+01 0.20449602080E+01 0.22352753811E+01 0.23378733754E+01 0.23382486986E+01
 0.22370110707E+01 0.20479835289E+01 0.17952296303E+01 0.15097548257E+01 0.12232935873E+01
 0.96102752200E+00 0.73845280896E+00 0.56239402205E+00 0.43179463345E+00 0.33836581844E+00
 0.27079152010E+00 0.22072658880E+00 0.18442259259E+00 0.20470135758E+00 0.18550538700E+00
 0.17337699077E+00 0.16734277887E+00 0.16663389888E+00 0.16878216551E+00 0.17317349297E+00
 0.18371351414E+00 0.20471977758E+00 0.23680777839E+00 0.28020114963E+00 0.34017240079E+00
 0.42685930082E+00 0.55201802506E+00 0.72717068742E+00 0.95986083867E+00 0.12466073526E+01
 0.15702554646E+01 0.19052905029E+01 0.22224708260E+01 0.24877476905E+01 0.26644961645E+01
 0.27252170958E+01 0.26623975615E+01 0.24877461621E+01 0.22251555976E+01 0.19067317890E+01
 0.15693323005E+01 0.12466051773E+01 0.96200981714E+00 0.72881275757E+00 0.55198833138E+00
 0.42686366281E+00 0.34026154685E+00 0.27856862626E+00 0.23445697406E+00 0.25800518924E+00
 0.23604393785E+00 0.22186176719E+00 0.21307979310E+00 0.21048680599E+00 0.21222964070E+00
 0.21478858077E+00 0.21985094009E+00 0.23356447257E+00 0.25886776036E+00 0.29528197339E+00
 0.34678048821E+00 0.42401992947E+00 0.53915364408E+00 0.70393366412E+00 0.93021221989E+00
 0.12227906008E+01 0.15698213759E+01 0.19452571885E+01 0.23188915142E+01 0.26571389998E+01
 0.29178694549E+01 0.30583748489E+01 0.30551495928E+01 0.29130220248E+01 0.26566487247E+01
 0.23203422866E+01 0.19443738127E+01 0.15691015326E+01 0.12255545980E+01 0.93286367064E+00
 0.70220484728E+00 0.53592504407E+00 0.42349879466E+00 0.34702904908E+00 0.29355648911E+00
 0.31911841988E+00 0.29439670910E+00 0.28014518038E+00 0.27043623910E+00 0.26579909646E+00
 0.26692256559E+00 0.26934462041E+00 0.27073790476E+00 0.27679473054E+00 0.29354493653E+00
 0.32081472474E+00 0.36006061585E+00 0.42230279981E+00 0.52227492150E+00 0.67128367257E+00
 0.88038763133E+00 0.11604667770E+01 0.15097371318E+01 0.19064745530E+01 0.23191925112E+01
 0.27154569317E+01 0.30548054012E+01 0.32856507796E+01 0.33648101681E+01 0.32804800477E+01
 0.30524475091E+01 0.27171637510E+01 0.23186052497E+01 0.19033253699E+01 0.15102787995E+01
 0.11640036669E+01 0.87950690013E+00 0.66611036342E+00 0.52074099756E+00 0.42563135972E+00
 0.36148065253E+00 0.38772186593E+00 0.36009429791E+00 0.34762477283E+00 0.34087707672E+00
 0.33660054655E+00 0.33711535333E+00 0.34004601965E+00 0.33979360247E+00 0.33875755455E+00
 0.34559640988E+00 0.36298173105E+00 0.38915053326E+00 0.43165010808E+00 0.50807746111E+00
 0.63341050788E+00 0.81725130515E+00 0.10706730427E+01 0.14005784181E+01 0.17949523275E+01
 0.22241121671E+01 0.26550037573E+01 0.30515485838E+01 0.33635952834E+01 0.35351073823E+01
 0.35329050290E+01 0.33621244149E+01 0.30553686243E+01 0.26578328031E+01 0.22207282134E+01
 0.17917845413E+01 0.14032357476E+01 0.10728420130E+01 0.81342060930E+00 0.63048865845E+00
 0.51248316128E+00 0.43678388050E+00 0.46227234533E+00 0.43313930851E+00 0.42406463481E+00
 0.42491856370E+00 0.42685813941E+00 0.42980467058E+00 0.43417188281E+00 0.43399684455E+00
 0.42685930082E+00 0.42132104415E+00 0.42570921890E+00 0.43900714545E+00 0.46226826378E+00
 0.51023262850E+00 0.60254991436E+00 0.75183292799E+00 0.96759994234E+00 0.12600477020E+01
 0.16276986821E+01 0.20479972402E+01 0.24877468568E+01 0.29129917751E+01 0.32804165297E+01
 0.35328713044E+01 0.36213415554E+01 0.35313902220E+01 0.32838864668E+01 0.29191949838E+01
 0.24877461621E+01 0.20430236329E+01 0.16273152201E+01 0.12641805389E+01 0.96759088091E+00
 0.74833119834E+00 0.60439166736E+00 0.51620593275E+00 0.53911914835E+00 0.51238378324E+00
 0.50953289457E+00 0.52233186151E+00 0.53831704789E+00 0.55127184130E+00 0.56116823454E+00
 0.56390329694E+00 0.55349844477E+00 0.53442991855E+00 0.51928823283E+00 0.51398526498E+00
 0.51765523934E+00 0.53764575388E+00 0.59244530288E+00 0.69900684195E+00 0.86799076096E+00
 0.11096410261E+01 0.14295228267E+01 0.18153932167E+01 0.22380480296E+01 0.26640573146E+01
 0.30560158061E+01 0.33633058024E+01 0.35314220708E+01 0.35291995784E+01 0.33618234795E+01
 0.30598733184E+01 0.26668905191E+01 0.22345483558E+01 0.18121175156E+01 0.14324706164E+01
 0.11128738990E+01 0.86575738992E+00 0.69696306783E+00 0.59548733933E+00 0.61322822489E+00
 0.59390810493E+00 0.60248705308E+00 0.63191285236E+00 0.66957845463E+00 0.70308933141E+00
 0.72730815202E+00 0.73873199885E+00 0.73070686700E+00 0.70219662725E+00 0.66434107389E+00
 0.63048939268E+00 0.60608609394E+00 0.59543199154E+00 0.61146521675E+00 0.67121433115E+00
 0.78740552442E+00 0.97011900263E+00 0.12278718772E+01 0.15576721919E+01 0.19384692535E+01
 0.23394131193E+01 0.27269834984E+01 0.30590024948E+01 0.32839527093E+01 0.33606741682E+01
 0.32787081809E+01 0.30566378121E+01 0.27287532754E+01 0.23387726724E+01 0.19350570955E+01
 0.15579678713E+01 0.12316719981E+01 0.97037389582E+00 0.78380463720E+00 0.67027132753E+00
 0.67943530315E+00 0.67125637842E+00 0.69754151293E+00 0.74958768858E+00 0.81575466371E+00
 0.88035955897E+00 0.93109260011E+00 0.96088607346E+00 0.96317152442E+00 0.93375367355E+00
 0.87858321454E+00 0.81252577316E+00 0.74920142260E+00 0.69782457007E+00 0.66940991437E+00
 0.67856217366E+00 0.73819809785E+00 0.85805919225E+00 0.10467793634E+01 0.13068857827E+01
 0.16262710856E+01 0.19797921931E+01 0.23376087025E+01 0.26652395865E+01 0.29192321140E+01
 0.30562741158E+01 0.30530009845E+01 0.29143280013E+01 0.26647943123E+01 0.23391538184E+01
 0.19788885563E+01 0.16252582778E+01 0.13090084259E+01 0.10486421285E+01 0.85597102922E+00
 0.73555384134E+00 0.73269392797E+00 0.73732758561E+00 0.78569700399E+00 0.86653114308E+00
 0.96760709200E+00 0.10721193903E+01 0.11620336081E+01 0.12233862774E+01 0.12466073526E+01
 0.12260690233E+01 0.11638731961E+01 0.10720527722E+01 0.96759994234E+00 0.86654545794E+00
 0.78386934484E+00 0.73485229542E+00 0.73268946297E+00 0.78666294598E+00 0.90395448658E+00
 0.10886858999E+01 0.13354065527E+01 0.16260080545E+01 0.19349330739E+01 0.22335199553E+01
 0.24877468568E+01 0.26594662581E+01 0.27188633508E+01 0.26573346511E+01 0.24877476905E+01
 0.22362927929E+01 0.19365748210E+01 0.16253547029E+01 0.13354060079E+01 0.10899753375E+01
 0.90375745013E+00 0.78487667795E+00 0.76777377387E+00 0.78588895339E+00 0.85715960365E+00
 0.97013576604E+00 0.11111461040E+01 0.12622939323E+01 0.14020430404E+01 0.15094628247E+01
 0.15681905206E+01 0.15686430140E+01 0.15102958068E+01 0.14029408583E+01 0.12639249491E+01
 0.11131863898E+01 0.97067767762E+00 0.85569610046E+00 0.78456288533E+00 0.76802902090E+00
 0.81214043131E+00 0.92006537938E+00 0.10896686106E+01 0.13092488745E+01 0.15582308669E+01
 0.18118478530E+01 0.20430026431E+01 0.22217497269E+01 0.23197511862E+01 0.23200698761E+01
 0.22234184200E+01 0.20460428568E+01 0.18138957715E+01 0.15576589931E+01 0.13077755718E+01
 0.10894087848E+01 0.92031667495E+00 0.81160533337E+00 0.78009985960E+00 0.81182868499E+00
 0.90389408045E+00 0.10476514193E+01 0.12296379099E+01 0.14310284633E+01 0.16278253647E+01
 0.17937584745E+01 0.19047774599E+01 0.19435201516E+01 0.19035811768E+01 0.17920312123E+01
 0.16271856392E+01 0.14325095153E+01 0.12319210998E+01 0.10485837802E+01 0.90344144364E+00
 0.81158175631E+00 0.78035870776E+00 0.81158175631E+00 0.90344144364E+00 0.10485837802E+01
 0.12319210998E+01 0.14325095153E+01 0.16271856392E+01 0.17920312123E+01 0.19035811768E+01
 0.19435201516E+01 0.19047774599E+01 0.17937584745E+01 0.16278253647E+01 0.14310284633E+01
 0.12296379099E+01 0.10476514193E+01 0.90389408045E+00 0.81182868499E+00 0.76777377387E+00
 0.81160533337E+00 0.92031667495E+00 0.10894087848E+01 0.13077755718E+01 0.15576589931E+01
 0.18138957715E+01 0.20460428568E+01 0.22234184200E+01 0.23200698761E+01 0.23197511862E+01
 0.22217497269E+01 0.20430026431E+01 0.18118478530E+01 0.15582308669E+01 0.13092488745E+01
 0.10896686106E+01 0.92006537938E+00 0.81214043131E+00 0.76802902090E+00 0.78456288533E+00
 0.85569610046E+00 0.97067767763E+00 0.11131863898E+01 0.12639249491E+01 0.14029408583E+01
 0.15102958068E+01 0.15686430140E+01 0.15681905206E+01 0.15094628247E+01 0.14020430404E+01
 0.12622939323E+01 0.11111461040E+01 0.97013576604E+00 0.85715960365E+00 0.78588895339E+00
 0.73269392797E+00 0.78487667795E+00 0.90375745013E+00 0.10899753375E+01 0.13354060079E+01
 0.16253547029E+01 0.19365748210E+01 0.22362927929E+01 0.24877476905E+01 0.26573346511E+01
 0.27188633508E+01 0.26594662581E+01 0.24877468568E+01 0.22335199553E+01 0.19349330739E+01
 0.16260080545E+01 0.13354065527E+01 0.10886858999E+01 0.90395448658E+00 0.78666294598E+00
 0.73268946297E+00 0.73485229542E+00 0.78386934484E+00 0.86654545794E+00 0.96759994234E+00
 0.10720527722E+01 0.11638731961E+01 0.12260690233E+01 0.12466073526E+01 0.12233862774E+01
 0.11620336081E+01 0.10721193903E+01 0.96760709200E+00 0.86653114308E+00 0.78569700399E+00
 0.73732758561E+00 0.67943530315E+00 0.73555384134E+00 0.85597102922E+00 0.10486421285E+01
 0.13090084259E+01 0.16252582778E+01 0.19788885563E+01 0.23391538184E+01 0.26647943123E+01
 0.29143280013E+01 0.30530009845E+01 0.30562741158E+01 0.29192321140E+01 0.26652395865E+01
 0.23376087025E+01 0.19797921931E+01 0.16262710856E+01 0.13068857827E+01 0.10467793634E+01
 0.85805919225E+00 0.73819809785E+00 0.67856217366E+00 0.66940991437E+00 0.69782457007E+00
 0.74920142260E+00 0.81252577316E+00 0.87858321454E+00 0.93375367355E+00 0.96317152442E+00
 0.96088607346E+00 0.93109260010E+00 0.88035955897E+00 0.81575466371E+00 0.74958768858E+00
 0.69754151293E+00 0.67125637842E+00 0.61322822489E+00 0.67027132753E+00 0.78380463720E+00
 0.97037389582E+00 0.12316719981E+01 0.15579678713E+01 0.19350570955E+01 0.23387726724E+01
 0.27287532754E+01 0.30566378121E+01 0.32787081809E+01 0.33606741682E+01 0.32839527093E+01
 0.30590024948E+01 0.27269834984E+01 0.23394131193E+01 0.19384692535E+01 0.15576721919E+01
 0.12278718772E+01 0.97011900263E+00 0.78740552442E+00 0.67121433115E+00 0.61146521675E+00
 0.59543199154E+00 0.60608609394E+00 0.63048939268E+00 0.66434107389E+00 0.70219662725E+00
 0.73070686700E+00 0.73873199885E+00 0.72730815202E+00 0.70308933141E+00 0.66957845463E+00
 0.63191285236E+00 0.60248705308E+00 0.59390810493E+00 0.53911914835E+00 0.59548733933E+00
 0.69696306783E+00 0.86575738992E+00 0.11128738990E+01 0.14324706164E+01 0.18121175156E+01
 0.22345483558E+01 0.26668905191E+01 0.30598733184E+01 0.33618234795E+01 0.35291995784E+01
 0.35314220708E+01 0.33633058024E+01 0.30560158061E+01 0.26640573146E+01 0.22380480296E+01
 0.18153932167E+01 0.14295228267E+01 0.11096410261E+01 0.86799076096E+00 0.69900684195E+00
 0.59244530288E+00 0.53764575388E+00 0.51765523934E+00 0.51398526498E+00 0.51928823283E+00
 0.53442991855E+00 0.55349844477E+00 0.56390329694E+00 0.56116823454E+00 0.55127184130E+00
 0.53831704788E+00 0.52233186151E+00 0.50953289457E+00 0.51238378324E+00 0.46227234533E+00
 0.51620593275E+00 0.60439166736E+00 0.74833119834E+00 0.96759088091E+00 0.12641805389E+01
 0.16273152201E+01 0.20430236329E+01 0.24877461621E+01 0.29191949838E+01 0.32838864668E+01
 0.35313902220E+01 0.36213415554E+01 0.35328713044E+01 0.32804165297E+01 0.29129917751E+01
 0.24877468568E+01 0.20479972402E+01 0.16276986821E+01 0.12600477020E+01 0.96759994234E+00
 0.75183292799E+00 0.60254991436E+00 0.51023262850E+00 0.46226826378E+00 0.43900714545E+00
 0.42570921890E+00 0.42132104415E+00 0.42685930082E+00 0.43399684455E+00 0.43417188281E+00
 0.42980467058E+00 0.42685813941E+00 0.42491856370E+00 0.42406463481E+00 0.43313930851E+00
 0.38772186593E+00 0.43678388050E+00 0.51248316128E+00 0.63048865845E+00 0.81342060930E+00
 0.10728420130E+01 0.14032357476E+01 0.17917845413E+01 0.22207282134E+01 0.26578328031E+01
 0.30553686243E+01 0.33621244149E+01 0.35329050290E+01 0.35351073823E+01 0.33635952834E+01
 0.30515485838E+01 0.26550037573E+01 0.22241121671E+01 0.17949523275E+01 0.14005784181E+01
 0.10706730427E+01 0.81725130515E+00 0.63341050788E+00 0.50807746111E+00 0.43165010808E+00
 0.38915053326E+00 0.36298173105E+00 0.34559640988E+00 0.33875755455E+00 0.33979360247E+00
 0.34004601965E+00 0.33711535333E+00 0.33660054655E+00 0.34087707672E+00 0.34762477283E+00
 0.36009429791E+00 0.31911841988E+00 0.36148065253E+00 0.42563135972E+00 0.52074099756E+00
 0.66611036342E+00 0.87950690013E+00 0.11640036669E+01 0.15102787995E+01 0.19033253699E+01
 0.23186052497E+01 0.27171637510E+01 0.30524475091E+01 0.32804800477E+01 0.33648101681E+01
 0.32856507796E+01 0.30548054012E+01 0.27154569317E+01 0.23191925112E+01 0.19064745530E+01
 0.15097371318E+01 0.11604667770E+01 0.88038763133E+00 0.67128367257E+00 0.52227492150E+00
 0.42230279981E+00 0.36006061585E+00 0.32081472474E+00 0.29354493653E+00 0.27679473054E+00
 0.27073790476E+00 0.26934462041E+00 0.26692256559E+00 0.26579909646E+00 0.27043623910E+00
 0.28014518038E+00 0.29439670910E+00 0.25800518924E+00 0.29355648911E+00 0.34702904908E+00
 0.42349879466E+00 0.53592504407E+00 0.70220484728E+00 0.93286367064E+00 0.12255545980E+01
 0.15691015326E+01 0.19443738127E+01 0.23203422866E+01 0.26566487247E+01 0.29130220248E+01
 0.30551495928E+01 0.30583748489E+01 0.29178694549E+01 0.26571389998E+01 0.23188915142E+01
 0.19452571885E+01 0.15698213759E+01 0.12227906008E+01 0.93021221990E+00 0.70393366412E+00
 0.53915364408E+00 0.42401992947E+00 0.34678048821E+00 0.29528197339E+00 0.25886776036E+00
 0.23356447257E+00 0.21985094009E+00 0.21478858076E+00 0.21222964070E+00 0.21048680599E+00
 0.21307979310E+00 0.22186176719E+00 0.23604393785E+00 0.20470135758E+00 0.23445697406E+00
 0.27856862626E+00 0.34026154685E+00 0.42686366281E+00 0.55198833138E+00 0.72881275757E+00
 0.96200981714E+00 0.12466051773E+01 0.15693323005E+01 0.19067317890E+01 0.22251555976E+01
 0.24877461621E+01 0.26623975615E+01 0.27252170958E+01 0.26644961645E+01 0.24877476905E+01
 0.22224708260E+01 0.19052905029E+01 0.15702554646E+01 0.12466073526E+01 0.95986083868E+00
 0.72717068742E+00 0.55201802506E+00 0.42685930082E+00 0.34017240080E+00 0.28020114963E+00
 0.23680777839E+00 0.20471977758E+00 0.18371351414E+00 0.17317349297E+00 0.16878216551E+00
 0.16663389888E+00 0.16734277887E+00 0.17337699077E+00 0.18550538700E+00 0.15966700159E+00
 0.18442259259E+00 0.22072658880E+00 0.27079152010E+00 0.33836581844E+00 0.43179463345E+00
 0.56239402205E+00 0.73845280896E+00 0.96102752200E+00 0.12232935873E+01 0.15097548257E+01
 0.17952296303E+01 0.20479835289E+01 0.22370110707E+01 0.23382486986E+01 0.23378733754E+01
 0.22352753811E+01 0.20449602080E+01 0.17932345007E+01 0.15105454735E+01 0.12254516369E+01
 0.96216651644E+00 0.73820802504E+00 0.56144058208E+00 0.43008489618E+00 0.33634851346E+00
 0.27021393095E+00 0.22211195077E+00 0.18574375691E+00 0.15942230027E+00 0.14328577778E+00
 0.13536824056E+00 0.13201222323E+00 0.13147657877E+00 0.13486674909E+00 0.14383530148E+00
 0.12363312911E+00 0.14352681326E+00 0.17311738564E+00 0.21388655178E+00 0.26763688566E+00
 0.33859929277E+00 0.43429698622E+00 0.56291799586E+00 0.72907058748E+00 0.93112663378E+00
 0.11603394179E+01 0.14003146324E+01 0.16275730500E+01 0.18151042043E+01 0.19383354451E+01
 0.19806929731E+01 0.19368326509E+01 0.18133370965E+01 0.16270544918E+01 0.14014843654E+01
 0.11622914380E+01 0.93289701689E+00 0.73058650170E+00 0.56415492321E+00 0.43442971272E+00
 0.33712490445E+00 0.26568037140E+00 0.21305154390E+00 0.17343132288E+00 0.14380975160E+00
 0.12350013604E+00 0.11168056810E+00 0.10604543785E+00 0.10423641460E+00 0.10571300951E+00
 0.11162227794E+00 0.96612833294E-01 0.11172353530E+00 0.13511698960E+00 0.16799940438E+00
 0.21133723184E+00 0.26689111927E+00 0.33856280421E+00 0.43228211871E+00 0.55353108888E+00
 0.70397837269E+00 0.87947041158E+00 0.10698844093E+01 0.12597811052E+01 0.14295204163E+01
 0.15579313828E+01 0.16270262060E+01 0.16269325771E+01 0.15582541566E+01 0.14309919748E+01
 0.12616987687E+01 0.10706144932E+01 0.87859163073E+00 0.70305284285E+00 0.55422204142E+00
 0.43427708132E+00 0.34007295708E+00 0.26688607704E+00 0.21045611528E+00 0.16731238511E+00
 0.13488075530E+00 0.11164407955E+00 0.96590378980E-01 0.88261691356E-01 0.84725244866E-01
 0.84653228778E-01 0.88172647622E-01 0.77377059092E-01 0.88278552427E-01 0.10597865208E+00
 0.13177605015E+00 0.16662749693E+00 0.21133812627E+00 0.26737905575E+00 0.33780446165E+00
 0.42686366281E+00 0.53769946392E+00 0.66951678252E+00 0.81630434151E+00 0.96759088091E+00
 0.11099245934E+01 0.12281358185E+01 0.13071666262E+01 0.13354060079E+01 0.13083716298E+01
 0.12301509528E+01 0.11116673960E+01 0.96760709200E+00 0.81398762990E+00 0.66604227505E+00
 0.53529297624E+00 0.42685813941E+00 0.33955904472E+00 0.26920551556E+00 0.21218645987E+00
 0.16663389888E+00 0.13152563240E+00 0.10578760794E+00 0.88187819824E-01 0.77374384147E-01
 0.71813980196E-01 0.70125576812E-01 0.71776074758E-01 0.64114496584E-01 0.71759626585E-01
 0.84704995962E-01 0.10426429668E+00 0.13174474476E+00 0.16810458129E+00 0.21395524015E+00
 0.27019885792E+00 0.33868658953E+00 0.42183044616E+00 0.52080968592E+00 0.63334108528E+00
 0.75269843215E+00 0.86881276696E+00 0.97044258419E+00 0.10467690233E+01 0.10883652635E+01
 0.10889187981E+01 0.10477201076E+01 0.97062575268E+00 0.86800384036E+00 0.75146079373E+00
 0.63198154073E+00 0.51927648447E+00 0.42041395315E+00 0.33802464989E+00 0.27050492746E+00
 0.21474814160E+00 0.16878035946E+00 0.13206924095E+00 0.10430510296E+00 0.84620067950E-01
 0.71707908852E-01 0.64152879897E-01 0.60709597671E-01 0.60671877506E-01 0.55381952376E-01
 0.60641904932E-01 0.70056271055E-01 0.84636307597E-01 0.10584758315E+00 0.13515347816E+00
 0.17350628448E+00 0.22125056261E+00 0.27843755733E+00 0.34529201222E+00 0.42235600956E+00
 0.50956204609E+00 0.60426059843E+00 0.69994975650E+00 0.78747188571E+00 0.85777544601E+00
 0.90362638120E+00 0.91975799995E+00 0.90351210644E+00 0.85660092865E+00 0.78556593506E+00
 0.69934592972E+00 0.60615430159E+00 0.51251958324E+00 0.42393356588E+00 0.34470365763E+00
 0.27686983021E+00 0.22012473033E+00 0.17324592184E+00 0.13539072290E+00 0.10610190835E+00
 0.84689717330E-01 0.69994507883E-01 0.60640909306E-01 0.55445026134E-01 0.53731933528E-01
 0.50388246441E-01 0.53772327877E-01 0.60707957327E-01 0.71756990616E-01 0.88175117052E-01
 0.11162099435E+00 0.14359286565E+00 0.18501261880E+00 0.23589719062E+00 0.29522747358E+00
 0.36154670493E+00 0.43392881770E+00 0.51170395817E+00 0.59243459827E+00 0.67033737992E+00
 0.73742431053E+00 0.78635201120E+00 0.81209795597E+00 0.81189473739E+00 0.78539633079E+00
 0.73572014757E+00 0.66938590923E+00 0.59397415733E+00 0.51543652430E+00 0.43750917830E+00
 0.36294936071E+00 0.29446276150E+00 0.23437295338E+00 0.18393306566E+00 0.14324527527E+00
 0.11168833034E+00 0.88275188568E-01 0.71747405343E-01 0.60674513475E-01 0.53797985922E-01
 0.50417057232E-01 0.49422617217E-01 0.51120732019E-01 0.56266542186E-01 0.65086077276E-01
 0.78479571389E-01 0.97966912005E-01 0.12516541180E+00 0.16147120258E+00 0.20787075332E+00
 0.26431728305E+00 0.32918682231E+00 0.40000311813E+00 0.47492981537E+00 0.55278513524E+00
 0.63090539480E+00 0.70338229038E+00 0.76219295921E+00 0.80024046127E+00 0.81333253677E+00
 0.80020038864E+00 0.76220000829E+00 0.70363590303E+00 0.63146543829E+00 0.55330259048E+00
 0.47493227286E+00 0.39947980932E+00 0.32861046502E+00 0.26405714935E+00 0.20786591392E+00
 0.16151545756E+00 0.12520379531E+00 0.98010165832E-01 0.78484720666E-01 0.65048647550E-01
 0.56255661207E-01 0.51147376218E-01 0.51051882185E-01 0.51060544975E-01 0.54346352006E-01
 0.60926643569E-01 0.71335513568E-01 0.86810842655E-01 0.10887534786E+00 0.13884942004E+00
 0.17776473769E+00 0.22630802016E+00 0.28425481393E+00 0.34982620095E+00 0.42002714605E+00
 0.49193116134E+00 0.56328269776E+00 0.63128705697E+00 0.69097752011E+00 0.73563791790E+00
 0.75942752026E+00 0.75960948856E+00 0.73655194119E+00 0.69270387189E+00 0.63240155289E+00
 0.56194358280E+00 0.48819324477E+00 0.41617387948E+00 0.34813144869E+00 0.28495163962E+00
 0.22793623956E+00 0.17892870907E+00 0.13921760925E+00 0.10883336061E+00 0.86738543261E-01
 0.71331249347E-01 0.60937736852E-01 0.54338257957E-01 0.56131731430E-01 0.54597690404E-01
 0.56185256465E-01 0.60898450457E-01 0.69150372398E-01 0.81957622613E-01 0.10073885373E+00
 0.12679312860E+00 0.16085579203E+00 0.20321525037E+00 0.25424544519E+00 0.31434820663E+00
 0.38283654014E+00 0.45703187847E+00 0.53295184867E+00 0.60661354886E+00 0.67385152812E+00
 0.72904544273E+00 0.76548880052E+00 0.77809533546E+00 0.76561103470E+00 0.73013760596E+00
 0.67550729487E+00 0.60685196468E+00 0.53075296229E+00 0.45401173742E+00 0.38149083474E+00
 0.31533110612E+00 0.25614851081E+00 0.20448132033E+00 0.16109860568E+00 0.12650285771E+00
 0.10046341487E+00 0.81902638823E-01 0.69210314917E-01 0.60903355914E-01 0.65017775993E-01
 0.62090417872E-01 0.62133363576E-01 0.65058348036E-01 0.71328012784E-01 0.81909362686E-01
 0.98117590344E-01 0.12140628349E+00 0.15280536559E+00 0.19234489665E+00 0.23957373076E+00
 0.29502111338E+00 0.36044188237E+00 0.43667791134E+00 0.52132442565E+00 0.60890694270E+00
 0.69278439703E+00 0.76600052819E+00 0.82094791772E+00 0.85031522399E+00 0.84983278877E+00
 0.82011709145E+00 0.76576438507E+00 0.69322898198E+00 0.60966173993E+00 0.52251176498E+00
 0.43855142935E+00 0.36242665738E+00 0.29603312728E+00 0.23926421342E+00 0.19138967144E+00
 0.15200372489E+00 0.12102317730E+00 0.98053088926E-01 0.81994623475E-01 0.71388853061E-01
 0.78484720666E-01 0.74184683746E-01 0.72936221535E-01 0.74241682989E-01 0.78478587642E-01
 0.86748996678E-01 0.10037926127E+00 0.12075044771E+00 0.14928097925E+00 0.18685761798E+00
 0.23331122872E+00 0.28834698447E+00 0.35331851598E+00 0.43109493162E+00 0.52304421079E+00
 0.62595731246E+00 0.73197759427E+00 0.83091131259E+00 0.91220394137E+00 0.96594432164E+00
 0.98446659819E+00 0.96486810935E+00 0.91042600913E+00 0.82936027606E+00 0.73195798289E+00
 0.62818565838E+00 0.52658252708E+00 0.43368710331E+00 0.35334165090E+00 0.28632860434E+00
 0.23116605474E+00 0.18586488370E+00 0.14927758409E+00 0.12102503910E+00 0.10058734465E+00
 0.86863047042E-01 0.98009361878E-01 0.92125895814E-01 0.89787800659E-01 0.89872073262E-01
 0.92225497886E-01 0.97973855802E-01 0.10883085106E+00 0.12616274789E+00 0.15102759620E+00
 0.18476884578E+00 0.22886745675E+00 0.28437174608E+00 0.35236385369E+00 0.43505097412E+00
 0.53507693610E+00 0.65233457941E+00 0.78097711842E+00 0.90953096103E+00 0.10237619185E+01
 0.11098039044E+01 0.11563181032E+01 0.11563831064E+01 0.11095039856E+01 0.10225177547E+01
 0.90799944813E+00 0.78058655253E+00 0.65333692761E+00 0.53584775816E+00 0.43396395287E+00
 0.34990559736E+00 0.28258717197E+00 0.22889976454E+00 0.18583506999E+00 0.15185143110E+00
 0.12644254857E+00 0.10892805069E+00 0.12542949628E+00 0.11767676757E+00 0.11419890414E+00
 0.11348492014E+00 0.11450776151E+00 0.11774400688E+00 0.12535231686E+00 0.13951142848E+00
 0.16102540837E+00 0.19029110608E+00 0.22913796564E+00 0.28090107180E+00 0.34910259310E+00
 0.43682835276E+00 0.54662948801E+00 0.67905017608E+00 0.82986883045E+00 0.98848043710E+00
 0.11390385930E+01 0.12636918659E+01 0.13463488393E+01 0.13757980121E+01 0.13476481616E+01
 0.12652199584E+01 0.11395291439E+01 0.98756980666E+00 0.82820428081E+00 0.67724951728E+00
 0.54475949262E+00 0.43526951038E+00 0.34897332759E+00 0.28264748111E+00 0.23139175571E+00
 0.19129768679E+00 0.16074897493E+00 0.13918322831E+00 0.16200215917E+00 0.15242037575E+00
 0.14761946626E+00 0.14621506715E+00 0.14667569702E+00 0.14804922538E+00 0.15196041159E+00
 0.16188490304E+00 0.17984685143E+00 0.20554130609E+00 0.23931839484E+00 0.28464809979E+00
 0.34732039081E+00 0.43350587708E+00 0.54831205956E+00 0.69363538324E+00 0.86547476591E+00
 0.10530816043E+01 0.12402817510E+01 0.14072472347E+01 0.15330873847E+01 0.16006009953E+01
 0.16009339882E+01 0.15345842080E+01 0.14098309453E+01 0.12419850915E+01 0.10523396015E+01
 0.86339679949E+00 0.69236853963E+00 0.54852936120E+00 0.43484392186E+00 0.34954031798E+00
 0.28684431569E+00 0.23978178659E+00 0.20405573181E+00 0.17846873962E+00 0.20786591392E+00
 0.19710784504E+00 0.19128060787E+00 0.18905051969E+00 0.18943095213E+00 0.19024218344E+00
 0.19104652112E+00 0.19550268315E+00 0.20788378006E+00 0.22901780142E+00 0.25824264732E+00
 0.29779043799E+00 0.35332054192E+00 0.43216425396E+00 0.54255599056E+00 0.69108188251E+00
 0.87695245371E+00 0.10891644447E+01 0.13099956262E+01 0.15188380912E+01 0.16923540192E+01
 0.18067255591E+01 0.18454373276E+01 0.18049523580E+01 0.16923474757E+01 0.15210984949E+01
 0.13111843506E+01 0.10883162100E+01 0.87694900138E+00 0.69317939091E+00 0.54453379165E+00
 0.43266720394E+00 0.35334165090E+00 0.29736155172E+00 0.25627244059E+00 0.22673418071E+00
 0.26254182055E+00 0.25170548230E+00 0.24633555756E+00 0.24383941685E+00 0.24424775014E+00