   4   4   0   0
  0.1739698E+02  0.4007590E-09  0.4007590E-09  0.5003070E-09  0.5000000E-15
  1.000000000000000E-004
  CAR 
 H                                       
     46.16178443    -12.92758640  301     -8.56974530      1.00000000
    -12.928  0.0000E+00  0.0000E+00
    -12.731  0.0000E+00  0.0000E+00
    -12.534  0.0000E+00  0.0000E+00
    -12.337  0.0000E+00  0.0000E+00
    -12.140  0.0000E+00  0.0000E+00
    -11.943  0.0000E+00  0.0000E+00
    -11.746  0.0000E+00  0.0000E+00
    -11.549  0.0000E+00  0.0000E+00
    -11.352  0.0000E+00  0.0000E+00
    -11.155  0.0000E+00  0.0000E+00
    -10.958  0.0000E+00  0.0000E+00
    -10.761  0.0000E+00  0.0000E+00
    -10.564  0.0000E+00  0.0000E+00
    -10.367  0.1669E-05  0.3288E-06
    -10.170  0.1420E+00  0.2798E-01
     -9.973  0.9123E+00  0.2077E+00
     -9.776  0.1669E+01  0.5364E+00
     -9.579  0.3171E+01  0.1161E+01
     -9.382  0.4777E+01  0.2102E+01
     -9.185  0.5928E+01  0.3269E+01
     -8.988  0.3336E+01  0.3927E+01
     -8.791  0.3725E+00  0.4000E+01
     -8.594  0.6936E-06  0.4000E+01
     -8.397  0.0000E+00  0.4000E+01
     -8.200  0.0000E+00  0.4000E+01
     -8.003  0.0000E+00  0.4000E+01
     -7.807  0.0000E+00  0.4000E+01
     -7.610  0.0000E+00  0.4000E+01
     -7.413  0.0000E+00  0.4000E+01
     -7.216  0.0000E+00  0.4000E+01
     -7.019  0.0000E+00  0.4000E+01
     -6.822  0.0000E+00  0.4000E+01
     -6.625  0.0000E+00  0.4000E+01
     -6.428  0.0000E+00  0.4000E+01
     -6.231  0.0000E+00  0.4000E+01
     -6.034  0.0000E+00  0.4000E+01
     -5.837  0.0000E+00  0.4000E+01
     -5.640  0.0000E+00  0.4000E+01
     -5.443  0.0000E+00  0.4000E+01
     -5.246  0.0000E+00  0.4000E+01
     -5.049  0.0000E+00  0.4000E+01
     -4.852  0.0000E+00  0.4000E+01
     -4.655  0.0000E+00  0.4000E+01
     -4.458  0.0000E+00  0.4000E+01
     -4.261  0.0000E+00  0.4000E+01
     -4.064  0.0000E+00  0.4000E+01
     -3.867  0.0000E+00  0.4000E+01
     -3.670  0.0000E+00  0.4000E+01
     -3.473  0.0000E+00  0.4000E+01
     -3.276  0.0000E+00  0.4000E+01
     -3.079  0.0000E+00  0.4000E+01
     -2.882  0.0000E+00  0.4000E+01
     -2.685  0.0000E+00  0.4000E+01
     -2.488  0.0000E+00  0.4000E+01
     -2.291  0.0000E+00  0.4000E+01
     -2.095  0.0000E+00  0.4000E+01
     -1.898  0.0000E+00  0.4000E+01
     -1.701  0.0000E+00  0.4000E+01
     -1.504  0.0000E+00  0.4000E+01
     -1.307  0.0000E+00  0.4000E+01
     -1.110  0.0000E+00  0.4000E+01
     -0.913  0.0000E+00  0.4000E+01
     -0.716  0.0000E+00  0.4000E+01
     -0.519  0.0000E+00  0.4000E+01
     -0.322  0.0000E+00  0.4000E+01
     -0.125  0.0000E+00  0.4000E+01
      0.072  0.0000E+00  0.4000E+01
      0.269  0.0000E+00  0.4000E+01
      0.466  0.4388E-05  0.4000E+01
      0.663  0.1121E+00  0.4022E+01
      0.860  0.1930E+01  0.4402E+01
      1.057  0.4687E+01  0.5325E+01
      1.254  0.3585E+01  0.6032E+01
      1.451  0.3335E+01  0.6688E+01
      1.648  0.1574E+01  0.6998E+01
      1.845  0.1878E+01  0.7368E+01
      2.042  0.1074E+01  0.7580E+01
      2.239  0.8700E+00  0.7751E+01
      2.436  0.8438E+00  0.7917E+01
      2.633  0.7899E+00  0.8073E+01
      2.830  0.3943E+00  0.8151E+01
      3.027  0.8307E+00  0.8314E+01
      3.224  0.9684E+00  0.8505E+01
      3.420  0.7928E+00  0.8661E+01
      3.617  0.1098E+01  0.8877E+01
      3.814  0.1337E+01  0.9141E+01
      4.011  0.9741E+00  0.9333E+01
      4.208  0.1040E+01  0.9537E+01
      4.405  0.1409E+01  0.9815E+01
      4.602  0.1280E+01  0.1007E+02
      4.799  0.1543E+01  0.1037E+02
      4.996  0.1404E+01  0.1065E+02
      5.193  0.1382E+01  0.1092E+02
      5.390  0.1641E+01  0.1124E+02
      5.587  0.1956E+01  0.1163E+02
      5.784  0.1500E+01  0.1192E+02
      5.981  0.1685E+01  0.1226E+02
      6.178  0.1595E+01  0.1257E+02
      6.375  0.1722E+01  0.1291E+02
      6.572  0.1797E+01  0.1326E+02
      6.769  0.1534E+01  0.1356E+02
      6.966  0.1776E+01  0.1391E+02
      7.163  0.1766E+01  0.1426E+02
      7.360  0.1780E+01  0.1461E+02
      7.557  0.2323E+01  0.1507E+02
      7.754  0.2298E+01  0.1552E+02
      7.951  0.1303E+01  0.1578E+02
      8.148  0.1149E+01  0.1601E+02
      8.345  0.1802E+01  0.1636E+02
      8.542  0.1415E+01  0.1664E+02
      8.739  0.1352E+01  0.1691E+02
      8.935  0.1228E+01  0.1715E+02
      9.132  0.2104E+01  0.1756E+02
      9.329  0.2731E+01  0.1810E+02
      9.526  0.1951E+01  0.1848E+02
      9.723  0.1849E+01  0.1885E+02
      9.920  0.1524E+01  0.1915E+02
     10.117  0.1798E+01  0.1950E+02
     10.314  0.7466E+00  0.1965E+02
     10.511  0.1363E+01  0.1992E+02
     10.708  0.1951E+01  0.2030E+02
     10.905  0.1977E+01  0.2069E+02
     11.102  0.1771E+01  0.2104E+02
     11.299  0.1779E+01  0.2139E+02
     11.496  0.2276E+01  0.2184E+02
     11.693  0.1901E+01  0.2221E+02
     11.890  0.1659E+01  0.2254E+02
     12.087  0.1940E+01  0.2292E+02
     12.284  0.1464E+01  0.2321E+02
     12.481  0.1581E+01  0.2352E+02
     12.678  0.1447E+01  0.2381E+02
     12.875  0.1518E+01  0.2411E+02
     13.072  0.2191E+01  0.2454E+02
     13.269  0.1792E+01  0.2489E+02
     13.466  0.2487E+01  0.2538E+02
     13.663  0.1981E+01  0.2577E+02
     13.860  0.2757E+01  0.2631E+02
     14.057  0.1645E+01  0.2664E+02
     14.254  0.1776E+01  0.2699E+02
     14.450  0.2184E+01  0.2742E+02
     14.647  0.2424E+01  0.2790E+02
     14.844  0.1795E+01  0.2825E+02
     15.041  0.2546E+01  0.2875E+02
     15.238  0.2408E+01  0.2923E+02
     15.435  0.1654E+01  0.2955E+02
     15.632  0.1978E+01  0.2994E+02
     15.829  0.1942E+01  0.3032E+02
     16.026  0.2137E+01  0.3074E+02
     16.223  0.1846E+01  0.3111E+02
     16.420  0.2400E+01  0.3158E+02
     16.617  0.2179E+01  0.3201E+02
     16.814  0.2219E+01  0.3245E+02
     17.011  0.2466E+01  0.3293E+02
     17.208  0.3141E+01  0.3355E+02
     17.405  0.1682E+01  0.3388E+02
     17.602  0.1973E+01  0.3427E+02
     17.799  0.1858E+01  0.3464E+02
     17.996  0.1804E+01  0.3499E+02
     18.193  0.2249E+01  0.3544E+02
     18.390  0.2563E+01  0.3594E+02
     18.587  0.1741E+01  0.3628E+02
     18.784  0.2494E+01  0.3677E+02
     18.981  0.2259E+01  0.3722E+02
     19.178  0.2408E+01  0.3769E+02
     19.375  0.2807E+01  0.3825E+02
     19.572  0.1722E+01  0.3859E+02
     19.769  0.2963E+01  0.3917E+02
     19.965  0.2005E+01  0.3956E+02
     20.162  0.1772E+01  0.3991E+02
     20.359  0.3038E+01  0.4051E+02
     20.556  0.2350E+01  0.4097E+02
     20.753  0.2176E+01  0.4140E+02
     20.950  0.2155E+01  0.4183E+02
     21.147  0.2668E+01  0.4235E+02
     21.344  0.2682E+01  0.4288E+02
     21.541  0.2116E+01  0.4330E+02
     21.738  0.2035E+01  0.4370E+02
     21.935  0.2626E+01  0.4422E+02
     22.132  0.1815E+01  0.4457E+02
     22.329  0.2915E+01  0.4515E+02
     22.526  0.2614E+01  0.4566E+02
     22.723  0.2440E+01  0.4614E+02
     22.920  0.2401E+01  0.4662E+02
     23.117  0.2400E+01  0.4709E+02
     23.314  0.2713E+01  0.4762E+02
     23.511  0.2377E+01  0.4809E+02
     23.708  0.2569E+01  0.4860E+02
     23.905  0.2788E+01  0.4915E+02
     24.102  0.2573E+01  0.4965E+02
     24.299  0.1866E+01  0.5002E+02
     24.496  0.2421E+01  0.5050E+02
     24.693  0.2566E+01  0.5100E+02
     24.890  0.2697E+01  0.5153E+02
     25.087  0.2526E+01  0.5203E+02
     25.284  0.2948E+01  0.5261E+02
     25.481  0.2864E+01  0.5318E+02
     25.677  0.2251E+01  0.5362E+02
     25.874  0.2013E+01  0.5402E+02
     26.071  0.3210E+01  0.5465E+02
     26.268  0.3297E+01  0.5530E+02
     26.465  0.2749E+01  0.5584E+02
     26.662  0.2790E+01  0.5639E+02
     26.859  0.2185E+01  0.5682E+02
     27.056  0.2015E+01  0.5722E+02
     27.253  0.1919E+01  0.5759E+02
     27.450  0.2649E+01  0.5812E+02
     27.647  0.2657E+01  0.5864E+02
     27.844  0.2992E+01  0.5923E+02
     28.041  0.3559E+01  0.5993E+02
     28.238  0.2846E+01  0.6049E+02
     28.435  0.2408E+01  0.6096E+02
     28.632  0.2471E+01  0.6145E+02
     28.829  0.2582E+01  0.6196E+02
     29.026  0.2801E+01  0.6251E+02
     29.223  0.3294E+01  0.6316E+02
     29.420  0.3174E+01  0.6378E+02
     29.617  0.2250E+01  0.6423E+02
     29.814  0.1749E+01  0.6457E+02
     30.011  0.1939E+01  0.6495E+02
     30.208  0.2948E+01  0.6554E+02
     30.405  0.2844E+01  0.6610E+02
     30.602  0.3532E+01  0.6679E+02
     30.799  0.2643E+01  0.6731E+02
     30.996  0.4294E+01  0.6816E+02
     31.192  0.2707E+01  0.6869E+02
     31.389  0.2615E+01  0.6921E+02
     31.586  0.2801E+01  0.6976E+02
     31.783  0.2166E+01  0.7018E+02
     31.980  0.3215E+01  0.7082E+02
     32.177  0.2389E+01  0.7129E+02
     32.374  0.2942E+01  0.7187E+02
     32.571  0.3092E+01  0.7248E+02
     32.768  0.2841E+01  0.7304E+02
     32.965  0.2200E+01  0.7347E+02
     33.162  0.3532E+01  0.7416E+02
     33.359  0.2744E+01  0.7471E+02
     33.556  0.3075E+01  0.7531E+02
     33.753  0.2295E+01  0.7576E+02
     33.950  0.3312E+01  0.7642E+02
     34.147  0.3459E+01  0.7710E+02
     34.344  0.3459E+01  0.7778E+02
     34.541  0.2957E+01  0.7836E+02
     34.738  0.2122E+01  0.7878E+02
     34.935  0.3238E+01  0.7942E+02
     35.132  0.2715E+01  0.7995E+02
     35.329  0.3345E+01  0.8061E+02
     35.526  0.2052E+01  0.8101E+02
     35.723  0.2654E+01  0.8154E+02
     35.920  0.2918E+01  0.8211E+02
     36.117  0.3437E+01  0.8279E+02
     36.314  0.3030E+01  0.8339E+02
     36.511  0.3731E+01  0.8412E+02
     36.707  0.3056E+01  0.8472E+02
     36.904  0.2995E+01  0.8531E+02
     37.101  0.2933E+01  0.8589E+02
     37.298  0.3287E+01  0.8654E+02
     37.495  0.3362E+01  0.8720E+02
     37.692  0.2957E+01  0.8778E+02
     37.889  0.2978E+01  0.8837E+02
     38.086  0.3555E+01  0.8907E+02
     38.283  0.2761E+01  0.8961E+02
     38.480  0.2983E+01  0.9020E+02
     38.677  0.2530E+01  0.9070E+02
     38.874  0.2518E+01  0.9119E+02
     39.071  0.3225E+01  0.9183E+02
     39.268  0.2405E+01  0.9230E+02
     39.465  0.3401E+01  0.9297E+02
     39.662  0.2369E+01  0.9344E+02
     39.859  0.2683E+01  0.9397E+02
     40.056  0.2779E+01  0.9452E+02
     40.253  0.2324E+01  0.9497E+02
     40.450  0.1848E+01  0.9534E+02
     40.647  0.1046E+01  0.9554E+02
     40.844  0.8697E+00  0.9571E+02
     41.041  0.5678E+00  0.9583E+02
     41.238  0.2476E+00  0.9587E+02
     41.435  0.4273E-01  0.9588E+02
     41.632  0.1757E+00  0.9592E+02
     41.829  0.1451E+00  0.9595E+02
     42.026  0.2895E-01  0.9595E+02
     42.222  0.5620E-01  0.9596E+02
     42.419  0.3600E-01  0.9597E+02
     42.616  0.4793E-01  0.9598E+02
     42.813  0.5710E-01  0.9599E+02
     43.010  0.9541E-07  0.9599E+02
     43.207  0.1369E-01  0.9599E+02
     43.404  0.2115E-01  0.9600E+02
     43.601  0.1216E-01  0.9600E+02
     43.798  0.2305E-05  0.9600E+02
     43.995  0.0000E+00  0.9600E+02
     44.192  0.0000E+00  0.9600E+02
     44.389  0.0000E+00  0.9600E+02
     44.586  0.0000E+00  0.9600E+02
     44.783  0.0000E+00  0.9600E+02
     44.980  0.0000E+00  0.9600E+02
     45.177  0.0000E+00  0.9600E+02
     45.374  0.0000E+00  0.9600E+02
     45.571  0.0000E+00  0.9600E+02
     45.768  0.0000E+00  0.9600E+02
     45.965  0.0000E+00  0.9600E+02
     46.162  0.0000E+00  0.9600E+02
