    4    4    1    1
  0.1739698E+02  0.4007590E-09  0.4007590E-09  0.5003070E-09  0.5000000E-15
  1.000000000000000E-004
  CAR 
 H                                       
      4    133     48
 
  0.0000000E+00  0.0000000E+00  0.0000000E+00  0.5787037E-03
      1        -10.241706   1.000000
      2         -8.935273   1.000000
      3          0.582705   0.000000
      4          2.624605   0.000000
      5          5.779901   0.000000
      6          7.137390   0.000000
      7          7.458410   0.000000
      8          7.458606   0.000000
      9          8.817242   0.000000
     10          8.817286   0.000000
     11         11.700265   0.000000
     12         13.375448   0.000000
     13         13.375962   0.000000
     14         13.877743   0.000000
     15         14.421974   0.000000
     16         14.422223   0.000000
     17         14.673262   0.000000
     18         15.088662   0.000000
     19         15.088898   0.000000
     20         15.617124   0.000000
     21         15.617428   0.000000
     22         19.649875   0.000000
     23         19.942025   0.000000
     24         23.509029   0.000000
     25         25.537329   0.000000
     26         29.245469   0.000000
     27         31.418209   0.000000
     28         31.418661   0.000000
     29         31.443311   0.000000
     30         31.462520   0.000000
     31         31.462581   0.000000
     32         31.976083   0.000000
     33         31.976313   0.000000
     34         33.218797   0.000000
     35         33.219212   0.000000
     36         33.232391   0.000000
     37         33.389593   0.000000
     38         33.389781   0.000000
     39         33.755318   0.000000
     40         33.756243   0.000000
     41         34.110230   0.000000
     42         34.526557   0.000000
     43         37.073157   0.000000
     44         37.073231   0.000000
     45         38.720798   0.000000
     46         39.263059   0.000000
     47         39.264018   0.000000
     48         39.403721   0.000000
 
  0.8333333E-01 -0.8407208E-17  0.0000000E+00  0.3472222E-02
      1        -10.210557   1.000000
      2         -8.940691   1.000000
      3          0.656456   0.000000
      4          2.533082   0.000000
      5          5.393409   0.000000
      6          6.979806   0.000000
      7          7.051382   0.000000
      8          7.468331   0.000000
      9          9.256735   0.000000
     10          9.303076   0.000000
     11         11.445556   0.000000
     12         13.058376   0.000000
     13         13.125074   0.000000
     14         13.297812   0.000000
     15         13.910810   0.000000
     16         14.306068   0.000000
     17         14.436000   0.000000
     18         15.600544   0.000000
     19         16.299634   0.000000
     20         16.555399   0.000000
     21         16.772677   0.000000
     22         19.817209   0.000000
     23         20.054935   0.000000
     24         23.377240   0.000000
     25         25.199404   0.000000
     26         27.820237   0.000000
     27         30.298040   0.000000
     28         30.532505   0.000000
     29         31.010717   0.000000
     30         31.130968   0.000000
     31         31.148646   0.000000
     32         31.657200   0.000000
     33         31.879432   0.000000
     34         32.770741   0.000000
     35         32.842987   0.000000
     36         33.179748   0.000000
     37         33.776153   0.000000
     38         33.903148   0.000000
     39         34.362429   0.000000
     40         34.683336   0.000000
     41         35.599302   0.000000
     42         35.762992   0.000000
     43         36.345703   0.000000
     44         36.894036   0.000000
     45         37.158772   0.000000
     46         37.444044   0.000000
     47         38.202945   0.000000
     48         39.786983   0.000000
 
  0.1666667E+00 -0.2397726E-16  0.0000000E+00  0.3472222E-02
      1        -10.121755   1.000000
      2         -8.962034   1.000000
      3          0.873568   0.000000
      4          2.281246   0.000000
      5          4.683200   0.000000
      6          6.423805   0.000000
      7          6.536624   0.000000
      8          7.401107   0.000000
      9         10.052542   0.000000
     10         10.058349   0.000000
     11         10.987553   0.000000
     12         11.850436   0.000000
     13         12.932038   0.000000
     14         13.006879   0.000000
     15         13.209205   0.000000
     16         14.888314   0.000000
     17         15.557590   0.000000
     18         16.689506   0.000000
     19         17.513611   0.000000
     20         18.397632   0.000000
     21         18.444789   0.000000
     22         20.406235   0.000000
     23         20.422641   0.000000
     24         23.073604   0.000000
     25         24.345213   0.000000
     26         25.422539   0.000000
     27         27.628652   0.000000
     28         29.332372   0.000000
     29         29.927755   0.000000
     30         30.309855   0.000000
     31         30.325217   0.000000
     32         31.091656   0.000000
     33         32.252226   0.000000
     34         32.302128   0.000000
     35         33.007726   0.000000
     36         33.332108   0.000000
     37         33.379938   0.000000
     38         33.687550   0.000000
     39         34.419494   0.000000
     40         34.906053   0.000000
     41         34.988834   0.000000
     42         36.256598   0.000000
     43         36.711106   0.000000
     44         37.742933   0.000000
     45         38.183295   0.000000
     46         38.292988   0.000000
     47         38.517587   0.000000
     48         40.068938   0.000000
 
  0.2500000E+00 -0.3933653E-16  0.0000000E+00  0.3472222E-02
      1         -9.985363   1.000000
      2         -9.004761   1.000000
      3          1.227536   0.000000
      4          1.928622   0.000000
      5          4.066734   0.000000
      6          5.881886   0.000000
      7          5.885006   0.000000
      8          7.220930   0.000000
      9          9.755170   0.000000
     10         10.435588   0.000000
     11         10.883192   0.000000
     12         11.623177   0.000000
     13         12.631226   0.000000
     14         13.418963   0.000000
     15         13.591284   0.000000
     16         15.563555   0.000000
     17         17.310558   0.000000
     18         18.051325   0.000000
     19         18.943687   0.000000
     20         19.496418   0.000000
     21         20.130440   0.000000
     22         21.261700   0.000000
     23         21.514887   0.000000
     24         23.007154   0.000000
     25         23.099281   0.000000
     26         23.373366   0.000000
     27         25.010528   0.000000
     28         28.290402   0.000000
     29         28.340536   0.000000
     30         29.273596   0.000000
     31         29.534810   0.000000
     32         29.689424   0.000000
     33         31.214869   0.000000
     34         31.238227   0.000000
     35         31.993236   0.000000
     36         32.689561   0.000000
     37         33.256790   0.000000
     38         33.448193   0.000000
     39         34.338194   0.000000
     40         34.769053   0.000000
     41         36.220504   0.000000
     42         36.275694   0.000000
     43         37.854768   0.000000
     44         38.076380   0.000000
     45         38.293571   0.000000
     46         38.745675   0.000000
     47         39.388145   0.000000
     48         39.932100   0.000000
 
  0.3333333E+00 -0.2694022E-16  0.0000000E+00  0.3472222E-02
      1         -9.825398   1.000000
      2         -9.068596   1.000000
      3          1.561293   0.000000
      4          1.699060   0.000000
      5          3.657176   0.000000
      6          5.114677   0.000000
      7          5.487245   0.000000
      8          7.004320   0.000000
      9          9.074716   0.000000
     10         10.214498   0.000000
     11         10.416552   0.000000
     12         12.211655   0.000000
     13         12.906599   0.000000
     14         14.634076   0.000000
     15         14.669727   0.000000
     16         16.345655   0.000000
     17         19.295710   0.000000
     18         19.610915   0.000000
     19         19.751610   0.000000
     20         20.550862   0.000000
     21         20.666853   0.000000
     22         20.752464   0.000000
     23         22.063174   0.000000
     24         22.302760   0.000000
     25         22.553227   0.000000
     26         23.950367   0.000000
     27         24.633728   0.000000
     28         26.435890   0.000000
     29         27.483963   0.000000
     30         27.525806   0.000000
     31         28.278806   0.000000
     32         28.970228   0.000000
     33         29.144105   0.000000
     34         30.170835   0.000000
     35         30.366917   0.000000
     36         31.326089   0.000000
     37         33.158902   0.000000
     38         33.961175   0.000000
     39         34.260701   0.000000
     40         35.309595   0.000000
     41         35.975752   0.000000
     42         36.486461   0.000000
     43         37.133217   0.000000
     44         37.812027   0.000000
     45         37.929511   0.000000
     46         38.543693   0.000000
     47         40.184507   0.000000
     48         40.530605   0.000000
 
  0.4166667E+00 -0.7719158E-16  0.0000000E+00  0.3472222E-02
      1         -9.672591   1.000000
      2         -9.148069   1.000000
      3          1.287538   0.000000
      4          2.226591   0.000000
      5          3.440124   0.000000
      6          4.371496   0.000000
      7          5.245274   0.000000
      8          6.837531   0.000000
      9          8.616718   0.000000
     10          9.829181   0.000000
     11         10.311262   0.000000
     12         11.958284   0.000000
     13         14.363613   0.000000
     14         15.831243   0.000000
     15         16.262420   0.000000
     16         17.110022   0.000000
     17         18.663008   0.000000
     18         19.369318   0.000000
     19         19.850762   0.000000
     20         20.227351   0.000000
     21         21.328265   0.000000
     22         21.386343   0.000000
     23         22.312675   0.000000
     24         23.147880   0.000000
     25         23.308866   0.000000
     26         24.772422   0.000000
     27         25.389674   0.000000
     28         26.209255   0.000000
     29         26.279141   0.000000
     30         26.358155   0.000000
     31         26.980379   0.000000
     32         28.131970   0.000000
     33         28.172654   0.000000
     34         28.700095   0.000000
     35         29.758296   0.000000
     36         29.763944   0.000000
     37         32.056850   0.000000
     38         32.937952   0.000000
     39         34.276533   0.000000
     40         34.535673   0.000000
     41         36.098609   0.000000
     42         36.117949   0.000000
     43         36.857518   0.000000
     44         38.251080   0.000000
     45         39.465734   0.000000
     46         39.561008   0.000000
     47         39.671080   0.000000
     48         40.296077   0.000000
 
  0.5000000E+00 -0.7867306E-16  0.0000000E+00  0.1736111E-02
      1         -9.599566   1.000000
      2         -9.193185   1.000000
      3          1.187114   0.000000
      4          2.540673   0.000000
      5          3.373993   0.000000
      6          3.979431   0.000000
      7          5.164177   0.000000
      8          6.775354   0.000000
      9          8.458706   0.000000
     10          9.704240   0.000000
     11         10.265574   0.000000
     12         11.873642   0.000000
     13         15.457547   0.000000
     14         16.300011   0.000000
     15         17.526490   0.000000
     16         17.604766   0.000000
     17         18.143225   0.000000
     18         18.156066   0.000000
     19         19.037334   0.000000
     20         19.194769   0.000000
     21         22.522271   0.000000
     22         22.971236   0.000000
     23         23.534452   0.000000
     24         23.647629   0.000000
     25         23.890741   0.000000
     26         24.515794   0.000000
     27         24.674223   0.000000
     28         24.934130   0.000000
     29         25.301014   0.000000
     30         25.548057   0.000000
     31         27.322671   0.000000
     32         28.102445   0.000000
     33         28.941116   0.000000
     34         29.608056   0.000000
     35         29.646954   0.000000
     36         29.746682   0.000000
     37         29.813812   0.000000
     38         30.502998   0.000000
     39         34.373964   0.000000
     40         34.871467   0.000000
     41         36.071092   0.000000
     42         36.507085   0.000000
     43         36.900385   0.000000
     44         38.713545   0.000000
     45         39.283365   0.000000
     46         39.383585   0.000000
     47         40.631176   0.000000
     48         41.110310   0.000000
 
  0.8333333E-01  0.8333333E-01  0.0000000E+00  0.3472222E-02
      1        -10.150325   1.000000
      2         -8.954095   1.000000
      3          0.801411   0.000000
      4          2.364045   0.000000
      5          4.875944   0.000000
      6          6.484200   0.000000
      7          6.681674   0.000000
      8          7.598909   0.000000
      9          9.525280   0.000000
     10         10.157156   0.000000
     11         11.274939   0.000000
     12         12.040958   0.000000
     13         12.096802   0.000000
     14         13.750034   0.000000
     15         14.246751   0.000000
     16         14.386128   0.000000
     17         14.450250   0.000000
     18         16.558690   0.000000
     19         17.180379   0.000000
     20         17.903206   0.000000
     21         18.017333   0.000000
     22         20.184238   0.000000
     23         20.290956   0.000000
     24         23.156121   0.000000
     25         24.607385   0.000000
     26         25.901395   0.000000
     27         29.458524   0.000000
     28         29.628211   0.000000
     29         29.891731   0.000000
     30         30.002251   0.000000
     31         31.058705   0.000000
     32         31.204969   0.000000
     33         31.622810   0.000000
     34         31.652585   0.000000
     35         32.239132   0.000000
     36         33.882932   0.000000
     37         34.740537   0.000000
     38         34.786246   0.000000
     39         34.883249   0.000000
     40         35.324036   0.000000
     41         35.324852   0.000000
     42         35.648738   0.000000
     43         36.404241   0.000000
     44         36.533896   0.000000
     45         37.010368   0.000000
     46         37.023542   0.000000
     47         39.550315   0.000000
     48         40.125612   0.000000
 
  0.1666667E+00  0.8333333E-01  0.0000000E+00  0.6944444E-02
      1        -10.037848   1.000000
      2         -8.986210   1.000000
      3          1.087471   0.000000
      4          2.073947   0.000000
      5          4.259515   0.000000
      6          5.838057   0.000000
      7          6.145613   0.000000
      8          7.639174   0.000000
      9          9.772623   0.000000
     10         10.785413   0.000000
     11         10.948852   0.000000
     12         11.058033   0.000000
     13         12.227239   0.000000
     14         13.355291   0.000000
     15         14.434324   0.000000
     16         14.945984   0.000000
     17         15.988297   0.000000
     18         17.865779   0.000000
     19         18.293265   0.000000
     20         19.428492   0.000000
     21         19.651430   0.000000
     22         20.837704   0.000000
     23         21.064697   0.000000
     24         22.967665   0.000000
     25         23.464463   0.000000
     26         23.682514   0.000000
     27         27.132017   0.000000
     28         28.360535   0.000000
     29         28.730010   0.000000
     30         29.353880   0.000000
     31         30.069946   0.000000
     32         30.544272   0.000000
     33         30.775908   0.000000
     34         31.334666   0.000000
     35         32.271091   0.000000
     36         32.744743   0.000000
     37         32.993941   0.000000
     38         34.408605   0.000000
     39         35.356659   0.000000
     40         35.791945   0.000000
     41         36.082229   0.000000
     42         36.391440   0.000000
     43         36.701808   0.000000
     44         37.271289   0.000000
     45         37.526545   0.000000
     46         38.096164   0.000000
     47         38.812157   0.000000
     48         39.398145   0.000000
 
  0.2500000E+00  0.8333333E-01  0.0000000E+00  0.6944444E-02
      1         -9.890204   1.000000
      2         -9.041577   1.000000
      3          1.502260   0.000000
      4          1.729261   0.000000
      5          3.783048   0.000000
      6          5.296775   0.000000
      7          5.451755   0.000000
      8          7.540720   0.000000
      9          9.222174   0.000000
     10         10.101346   0.000000
     11         10.980584   0.000000
     12         11.649152   0.000000
     13         12.940799   0.000000
     14         13.460851   0.000000
     15         15.184175   0.000000
     16         15.725488   0.000000
     17         17.952729   0.000000
     18         19.255900   0.000000
     19         19.403260   0.000000
     20         20.191492   0.000000
     21         20.794118   0.000000
     22         21.066651   0.000000
     23         21.874647   0.000000
     24         22.219780   0.000000
     25         23.269036   0.000000
     26         23.747507   0.000000
     27         24.628880   0.000000
     28         27.020997   0.000000
     29         27.437961   0.000000
     30         28.284567   0.000000
     31         28.904759   0.000000
     32         29.179031   0.000000
     33         29.921046   0.000000
     34         30.451392   0.000000
     35         31.510765   0.000000
     36         32.191616   0.000000
     37         33.206034   0.000000
     38         33.302560   0.000000
     39         33.582284   0.000000
     40         35.651675   0.000000
     41         36.264411   0.000000
     42         37.309357   0.000000
     43         37.511917   0.000000
     44         37.828479   0.000000
     45         37.844138   0.000000
     46         38.047487   0.000000
     47         38.058338   0.000000
     48         39.905820   0.000000
 
  0.3333333E+00  0.8333333E-01  0.0000000E+00  0.6944444E-02
      1         -9.727642   1.000000
      2         -9.114622   1.000000
      3          1.420679   0.000000
      4          2.013992   0.000000
      5          3.507085   0.000000
      6          4.702047   0.000000
      7          4.899619   0.000000
      8          7.467433   0.000000
      9          8.554452   0.000000
     10          9.547171   0.000000
     11         10.894697   0.000000
     12         12.643466   0.000000
     13         12.980368   0.000000
     14         14.825774   0.000000
     15         16.455547   0.000000
     16         16.566215   0.000000
     17         18.842971   0.000000
     18         19.624115   0.000000
     19         20.108271   0.000000
     20         20.258641   0.000000
     21         20.728438   0.000000
     22         21.101233   0.000000
     23         22.248604   0.000000
     24         22.851154   0.000000
     25         23.355684   0.000000
     26         25.095550   0.000000
     27         25.313265   0.000000
     28         25.773518   0.000000
     29         26.224985   0.000000
     30         26.934053   0.000000
     31         27.505129   0.000000
     32         27.885108   0.000000
     33         28.614203   0.000000
     34         29.878464   0.000000
     35         30.865121   0.000000
     36         30.865662   0.000000
     37         31.146379   0.000000
     38         33.598626   0.000000
     39         33.956843   0.000000
     40         34.238016   0.000000
     41         35.422762   0.000000
     42         36.227644   0.000000
     43         37.139243   0.000000
     44         38.028184   0.000000
     45         38.410587   0.000000
     46         39.192044   0.000000
     47         39.325547   0.000000
     48         39.871117   0.000000
 
  0.4166667E+00  0.8333333E-01  0.0000000E+00  0.6944444E-02
      1         -9.604335   1.000000
      2         -9.190383   1.000000
      3          1.238191   0.000000
      4          2.499029   0.000000
      5          3.393619   0.000000
      6          4.078759   0.000000
      7          4.683420   0.000000
      8          7.482907   0.000000
      9          8.126598   0.000000
     10          9.277396   0.000000
     11         10.824819   0.000000
     12         12.490905   0.000000
     13         14.523551   0.000000
     14         15.752377   0.000000
     15         17.074513   0.000000
     16         17.247927   0.000000
     17         18.135310   0.000000
     18         19.180715   0.000000
     19         19.248713   0.000000
     20         20.095254   0.000000
     21         21.989740   0.000000
     22         22.360896   0.000000
     23         22.577822   0.000000
     24         23.640594   0.000000
     25         24.194112   0.000000
     26         24.660786   0.000000
     27         24.827211   0.000000
     28         25.056803   0.000000
     29         26.571534   0.000000
     30         26.971945   0.000000
     31         26.979472   0.000000
     32         27.360591   0.000000
     33         28.069860   0.000000
     34         28.708321   0.000000
     35         30.336119   0.000000
     36         30.378721   0.000000
     37         31.041686   0.000000
     38         31.685414   0.000000
     39         31.882536   0.000000
     40         33.466822   0.000000
     41         36.115448   0.000000
     42         37.008619   0.000000
     43         37.437419   0.000000
     44         37.961470   0.000000
     45         38.400099   0.000000
     46         39.430434   0.000000
     47         39.965445   0.000000
     48         40.021705   0.000000
 
  0.1666667E+00  0.1666667E+00  0.0000000E+00  0.3472222E-02
      1         -9.912329   1.000000
      2         -9.029470   1.000000
      3          1.435394   0.000000
      4          1.811617   0.000000
      5          3.822799   0.000000
      6          5.131751   0.000000
      7          5.590419   0.000000
      8          7.832434   0.000000
      9          9.934050   0.000000
     10          9.993116   0.000000
     11         10.199938   0.000000
     12         11.713516   0.000000
     13         12.719551   0.000000
     14         13.732734   0.000000
     15         15.062505   0.000000
     16         15.847045   0.000000
     17         17.004814   0.000000
     18         19.081270   0.000000
     19         19.201463   0.000000
     20         20.280452   0.000000
     21         20.910906   0.000000
     22         21.057358   0.000000
     23         21.657004   0.000000
     24         22.269632   0.000000
     25         23.127690   0.000000
     26         23.387504   0.000000
     27         27.074962   0.000000
     28         27.329900   0.000000
     29         27.338908   0.000000
     30         27.753877   0.000000
     31         27.827871   0.000000
     32         28.810224   0.000000
     33         30.916507   0.000000
     34         31.135075   0.000000
     35         31.687000   0.000000
     36         32.082646   0.000000
     37         33.272941   0.000000
     38         33.765077   0.000000
     39         34.891567   0.000000
     40         34.910927   0.000000
     41         35.267443   0.000000
     42         35.494478   0.000000
     43         37.758240   0.000000
     44         38.052614   0.000000
     45         38.057127   0.000000
     46         38.143000   0.000000
     47         39.535489   0.000000
     48         39.896361   0.000000
 
  0.2500000E+00  0.1666667E+00  0.0000000E+00  0.6944444E-02
      1         -9.758478   1.000000
      2         -9.097931   1.000000
      3          1.553083   0.000000
      4          1.900269   0.000000
      5          3.520012   0.000000
      6          4.544694   0.000000
      7          4.940069   0.000000
      8          7.696729   0.000000
      9          9.150086   0.000000
     10          9.434105   0.000000
     11         11.038466   0.000000
     12         12.015747   0.000000
     13         13.757719   0.000000
     14         13.819631   0.000000
     15         15.712293   0.000000
     16         17.127671   0.000000
     17         18.726541   0.000000
     18         18.978154   0.000000
     19         19.811799   0.000000
     20         20.324138   0.000000
     21         20.383896   0.000000
     22         20.539598   0.000000
     23         22.922474   0.000000
     24         23.803192   0.000000
     25         24.301702   0.000000
     26         24.927241   0.000000
     27         24.939020   0.000000
     28         25.787507   0.000000
     29         26.356835   0.000000
     30         26.842013   0.000000
     31         26.916974   0.000000
     32         27.983046   0.000000
     33         29.035160   0.000000
     34         30.627711   0.000000
     35         31.364299   0.000000
     36         31.901977   0.000000
     37         32.715882   0.000000
     38         32.962118   0.000000
     39         33.043289   0.000000
     40         34.109609   0.000000
     41         35.139878   0.000000
     42         35.464092   0.000000
     43         36.003214   0.000000
     44         36.499851   0.000000
     45         38.166585   0.000000
     46         38.776736   0.000000
     47         39.525395   0.000000
     48         39.712307   0.000000
 
  0.3333333E+00  0.1666667E+00  0.0000000E+00  0.6944444E-02
      1         -9.610737   1.000000
      2         -9.181384   1.000000
      3          1.356496   0.000000
      4          2.426867   0.000000
      5          3.401048   0.000000
      6          4.125165   0.000000
      7          4.279369   0.000000
      8          7.528799   0.000000
      9          8.673784   0.000000
     10          8.987583   0.000000
     11         11.754270   0.000000
     12         12.786151   0.000000
     13         13.656634   0.000000
     14         14.949426   0.000000
     15         16.522991   0.000000
     16         16.692234   0.000000
     17         18.605853   0.000000
     18         19.389812   0.000000
     19         19.508407   0.000000
     20         21.167171   0.000000
     21         21.214765   0.000000
     22         21.577740   0.000000
     23         22.676581   0.000000
     24         24.006315   0.000000
     25         24.354101   0.000000
     26         24.852019   0.000000
     27         25.533513   0.000000
     28         26.021778   0.000000
     29         26.321736   0.000000
     30         26.388836   0.000000
     31         27.016078   0.000000
     32         27.501088   0.000000
     33         28.543659   0.000000
     34         29.225563   0.000000
     35         29.283266   0.000000
     36         30.921558   0.000000
     37         31.890199   0.000000
     38         32.154089   0.000000
     39         33.014502   0.000000
     40         33.045302   0.000000
     41         34.398982   0.000000
     42         34.487087   0.000000
     43         36.222902   0.000000
     44         36.266931   0.000000
     45         37.488213   0.000000
     46         37.761990   0.000000
     47         40.159698   0.000000
     48         40.352716   0.000000
 
  0.4166667E+00  0.1666667E+00  0.0000000E+00  0.3472222E-02
      1         -9.537532   1.000000
      2         -9.234670   1.000000
      3          1.282062   0.000000
      4          2.755555   0.000000
      5          3.393339   0.000000
      6          3.900066   0.000000
      7          3.954652   0.000000
      8          7.463383   0.000000
      9          8.515897   0.000000
     10          8.835108   0.000000
     11         11.816354   0.000000
     12         13.610927   0.000000
     13         14.203449   0.000000
     14         14.560731   0.000000
     15         16.088176   0.000000
     16         16.940724   0.000000
     17         18.486927   0.000000
     18         19.195995   0.000000
     19         20.534390   0.000000
     20         20.621826   0.000000
     21         22.224460   0.000000
     22         22.290542   0.000000
     23         23.036064   0.000000
     24         23.043035   0.000000
     25         23.898783   0.000000
     26         24.060285   0.000000
     27         25.910606   0.000000
     28         26.327003   0.000000
     29         26.740346   0.000000
     30         26.810740   0.000000
     31         26.872001   0.000000
     32         27.669789   0.000000
     33         28.453758   0.000000
     34         29.658996   0.000000
     35         29.979943   0.000000
     36         29.990516   0.000000
     37         30.256629   0.000000
     38         30.584406   0.000000
     39         32.147310   0.000000
     40         32.500608   0.000000
     41         34.674595   0.000000
     42         35.280620   0.000000
     43         35.549492   0.000000
     44         36.036981   0.000000
     45         38.544074   0.000000
     46         38.592089   0.000000
     47         38.700007   0.000000
     48         39.033294   0.000000
 
  0.2500000E+00  0.2500000E+00  0.0000000E+00  0.3472222E-02
      1         -9.614957   1.000000
      2         -9.181291   1.000000
      3          1.426252   0.000000
      4          2.394398   0.000000
      5          3.360411   0.000000
      6          3.951246   0.000000
      7          4.381372   0.000000
      8          7.337708   0.000000