<?xml version="1.0" encoding="ISO-8859-1"?>
<modeling>
 <generator>
  <i name="program" type="string">vasp </i>
  <i name="version" type="string">6.4.3  </i>
  <i name="subversion" type="string">19Mar24 (build Jun 26 2024 13:02:28) complex                          parallel </i>
  <i name="platform" type="string">LinuxIFC </i>
  <i name="date" type="string">2025 08 08 </i>
  <i name="time" type="string">19:12:35 </i>
 </generator>
 <incar>
  <i type="string" name="SYSTEM">H</i>
  <i type="int" name="IBRION">    -1</i>
  <i type="int" name="ISYM">     2</i>
  <i name="ENCUT">    325.00000000</i>
  <i type="int" name="ISMEAR">     0</i>
  <i name="SIGMA">      0.05000000</i>
  <i type="logical" name="LWAVE"> T  </i>
  <i type="logical" name="LCHARG"> T  </i>
 </incar>
 <primitive_cell>
  <structure name="primitive_cell" >
   <crystal>
    <varray name="basis" >
     <v>       4.00759000       0.00000000       0.00000000 </v>
     <v>      -2.00379500       3.47067475       0.00000000 </v>
     <v>       0.00000000       0.00000000       5.00307000 </v>
    </varray>
    <i name="volume">     69.58790782 </i>
    <varray name="rec_basis" >
     <v>       0.24952652       0.14406421       0.00000000 </v>
     <v>       0.00000000       0.28812841       0.00000000 </v>
     <v>      -0.00000000      -0.00000000       0.19987728 </v>
    </varray>
   </crystal>
   <varray name="positions" >
    <v>       0.33333333       0.66666667       0.17498000 </v>
    <v>       0.66666667       0.33333333       0.82502000 </v>
    <v>       0.66666667       0.33333333       0.67498000 </v>
    <v>       0.33333333       0.66666667       0.32502000 </v>
   </varray>
  </structure>
  <varray name="primitive_index" >
   <v type="int" >        1 </v>
   <v type="int" >        2 </v>
   <v type="int" >        3 </v>
   <v type="int" >        4 </v>
  </varray>
 </primitive_cell>
 <kpoints>
  <generation param="Gamma">
   <v type="int" name="divisions">      12       12       12 </v>
   <v name="usershift">      0.00000000       0.00000000       0.00000000 </v>
   <v name="genvec1">      0.08333333       0.00000000       0.00000000 </v>
   <v name="genvec2">      0.00000000       0.08333333       0.00000000 </v>
   <v name="genvec3">      0.00000000       0.00000000       0.08333333 </v>
   <v name="shift">      0.00000000       0.00000000       0.00000000 </v>
  </generation>
  <varray name="kpointlist" >
   <v>       0.00000000       0.00000000       0.00000000 </v>
   <v>       0.08333333      -0.00000000       0.00000000 </v>
   <v>       0.16666667      -0.00000000       0.00000000 </v>
   <v>       0.25000000      -0.00000000       0.00000000 </v>
   <v>       0.33333333      -0.00000000       0.00000000 </v>
   <v>       0.41666667      -0.00000000       0.00000000 </v>
   <v>       0.50000000      -0.00000000       0.00000000 </v>
   <v>       0.08333333       0.08333333       0.00000000 </v>
   <v>       0.16666667       0.08333333       0.00000000 </v>
   <v>       0.25000000       0.08333333       0.00000000 </v>
   <v>       0.33333333       0.08333333       0.00000000 </v>
   <v>       0.41666667       0.08333333       0.00000000 </v>
   <v>       0.16666667       0.16666667       0.00000000 </v>
   <v>       0.25000000       0.16666667       0.00000000 </v>
   <v>       0.33333333       0.16666667       0.00000000 </v>
   <v>       0.41666667       0.16666667       0.00000000 </v>
   <v>       0.25000000       0.25000000       0.00000000 </v>
   <v>       0.33333333       0.25000000       0.00000000 </v>
   <v>       0.33333333       0.33333333       0.00000000 </v>
   <v>      -0.00000000       0.00000000       0.08333333 </v>
   <v>       0.08333333      -0.00000000       0.08333333 </v>
   <v>       0.16666667      -0.00000000       0.08333333 </v>
   <v>       0.25000000      -0.00000000       0.08333333 </v>
   <v>       0.33333333      -0.00000000       0.08333333 </v>
   <v>       0.41666667      -0.00000000       0.08333333 </v>
   <v>       0.50000000      -0.00000000       0.08333333 </v>
   <v>       0.08333333       0.08333333       0.08333333 </v>
   <v>       0.16666667       0.08333333       0.08333333 </v>
   <v>       0.25000000       0.08333333       0.08333333 </v>
   <v>       0.33333333       0.08333333       0.08333333 </v>
   <v>       0.41666667       0.08333333       0.08333333 </v>
   <v>       0.16666667       0.16666667       0.08333333 </v>
   <v>       0.25000000       0.16666667       0.08333333 </v>
   <v>       0.33333333       0.16666667       0.08333333 </v>
   <v>       0.41666667       0.16666667       0.08333333 </v>
   <v>       0.25000000       0.25000000       0.08333333 </v>
   <v>       0.33333333       0.25000000       0.08333333 </v>
   <v>       0.33333333       0.33333333       0.08333333 </v>
   <v>      -0.00000000       0.00000000       0.16666667 </v>
   <v>       0.08333333      -0.00000000       0.16666667 </v>
   <v>       0.16666667      -0.00000000       0.16666667 </v>
   <v>       0.25000000      -0.00000000       0.16666667 </v>
   <v>       0.33333333      -0.00000000       0.16666667 </v>
   <v>       0.41666667      -0.00000000       0.16666667 </v>
   <v>       0.50000000      -0.00000000       0.16666667 </v>
   <v>       0.08333333       0.08333333       0.16666667 </v>
   <v>       0.16666667       0.08333333       0.16666667 </v>
   <v>       0.25000000       0.08333333       0.16666667 </v>
   <v>       0.33333333       0.08333333       0.16666667 </v>
   <v>       0.41666667       0.08333333       0.16666667 </v>
   <v>       0.16666667       0.16666667       0.16666667 </v>
   <v>       0.25000000       0.16666667       0.16666667 </v>
   <v>       0.33333333       0.16666667       0.16666667 </v>
   <v>       0.41666667       0.16666667       0.16666667 </v>
   <v>       0.25000000       0.25000000       0.16666667 </v>
   <v>       0.33333333       0.25000000       0.16666667 </v>
   <v>       0.33333333       0.33333333       0.16666667 </v>
   <v>      -0.00000000       0.00000000       0.25000000 </v>
   <v>       0.08333333      -0.00000000       0.25000000 </v>
   <v>       0.16666667      -0.00000000       0.25000000 </v>
   <v>       0.25000000      -0.00000000       0.25000000 </v>
   <v>       0.33333333      -0.00000000       0.25000000 </v>
   <v>       0.41666667      -0.00000000       0.25000000 </v>
   <v>       0.50000000      -0.00000000       0.25000000 </v>
   <v>       0.08333333       0.08333333       0.25000000 </v>
   <v>       0.16666667       0.08333333       0.25000000 </v>
   <v>       0.25000000       0.08333333       0.25000000 </v>
   <v>       0.33333333       0.08333333       0.25000000 </v>
   <v>       0.41666667       0.08333333       0.25000000 </v>
   <v>       0.16666667       0.16666667       0.25000000 </v>
   <v>       0.25000000       0.16666667       0.25000000 </v>
   <v>       0.33333333       0.16666667       0.25000000 </v>
   <v>       0.41666667       0.16666667       0.25000000 </v>
   <v>       0.25000000       0.25000000       0.25000000 </v>
   <v>       0.33333333       0.25000000       0.25000000 </v>
   <v>       0.33333333       0.33333333       0.25000000 </v>
   <v>      -0.00000000       0.00000000       0.33333333 </v>
   <v>       0.08333333      -0.00000000       0.33333333 </v>
   <v>       0.16666667      -0.00000000       0.33333333 </v>
   <v>       0.25000000      -0.00000000       0.33333333 </v>
   <v>       0.33333333      -0.00000000       0.33333333 </v>
   <v>       0.41666667      -0.00000000       0.33333333 </v>
   <v>       0.50000000      -0.00000000       0.33333333 </v>
   <v>       0.08333333       0.08333333       0.33333333 </v>
   <v>       0.16666667       0.08333333       0.33333333 </v>
   <v>       0.25000000       0.08333333       0.33333333 </v>
   <v>       0.33333333       0.08333333       0.33333333 </v>
   <v>       0.41666667       0.08333333       0.33333333 </v>
   <v>       0.16666667       0.16666667       0.33333333 </v>
   <v>       0.25000000       0.16666667       0.33333333 </v>
   <v>       0.33333333       0.16666667       0.33333333 </v>
   <v>       0.41666667       0.16666667       0.33333333 </v>
   <v>       0.25000000       0.25000000       0.33333333 </v>
   <v>       0.33333333       0.25000000       0.33333333 </v>
   <v>       0.33333333       0.33333333       0.33333333 </v>
   <v>      -0.00000000       0.00000000       0.41666667 </v>
   <v>       0.08333333      -0.00000000       0.41666667 </v>
   <v>       0.16666667      -0.00000000       0.41666667 </v>
   <v>       0.25000000      -0.00000000       0.41666667 </v>
   <v>       0.33333333      -0.00000000       0.41666667 </v>
   <v>       0.41666667      -0.00000000       0.41666667 </v>
   <v>       0.50000000      -0.00000000       0.41666667 </v>
   <v>       0.08333333       0.08333333       0.41666667 </v>
   <v>       0.16666667       0.08333333       0.41666667 </v>
   <v>       0.25000000       0.08333333       0.41666667 </v>
   <v>       0.33333333       0.08333333       0.41666667 </v>
   <v>       0.41666667       0.08333333       0.41666667 </v>
   <v>       0.16666667       0.16666667       0.41666667 </v>
   <v>       0.25000000       0.16666667       0.41666667 </v>
   <v>       0.33333333       0.16666667       0.41666667 </v>
   <v>       0.41666667       0.16666667       0.41666667 </v>
   <v>       0.25000000       0.25000000       0.41666667 </v>
   <v>       0.33333333       0.25000000       0.41666667 </v>
   <v>       0.33333333       0.33333333       0.41666667 </v>
   <v>      -0.00000000       0.00000000       0.50000000 </v>
   <v>       0.08333333      -0.00000000       0.50000000 </v>
   <v>       0.16666667      -0.00000000       0.50000000 </v>
   <v>       0.25000000      -0.00000000       0.50000000 </v>
   <v>       0.33333333      -0.00000000       0.50000000 </v>
   <v>       0.41666667      -0.00000000       0.50000000 </v>
   <v>       0.50000000      -0.00000000       0.50000000 </v>
   <v>       0.08333333       0.08333333       0.50000000 </v>
   <v>       0.16666667       0.08333333       0.50000000 </v>
   <v>       0.25000000       0.08333333       0.50000000 </v>
   <v>       0.33333333       0.08333333       0.50000000 </v>
   <v>       0.41666667       0.08333333       0.50000000 </v>
   <v>       0.16666667       0.16666667       0.50000000 </v>
   <v>       0.25000000       0.16666667       0.50000000 </v>
   <v>       0.33333333       0.16666667       0.50000000 </v>
   <v>       0.41666667       0.16666667       0.50000000 </v>
   <v>       0.25000000       0.25000000       0.50000000 </v>
   <v>       0.33333333       0.25000000       0.50000000 </v>
   <v>       0.33333333       0.33333333       0.50000000 </v>
  </varray>
  <varray name="weights" >
   <v>       0.00057870 </v>
   <v>       0.00347222 </v>
   <v>       0.00347222 </v>
   <v>       0.00347222 </v>
   <v>       0.00347222 </v>
   <v>       0.00347222 </v>
   <v>       0.00173611 </v>
   <v>       0.00347222 </v>
   <v>       0.00694444 </v>
   <v>       0.00694444 </v>
   <v>       0.00694444 </v>
   <v>       0.00694444 </v>
   <v>       0.00347222 </v>
   <v>       0.00694444 </v>
   <v>       0.00694444 </v>
   <v>       0.00347222 </v>
   <v>       0.00347222 </v>
   <v>       0.00694444 </v>
   <v>       0.00115741 </v>
   <v>       0.00115741 </v>
   <v>       0.00694444 </v>
   <v>       0.00694444 </v>
   <v>       0.00694444 </v>
   <v>       0.00694444 </v>
   <v>       0.00694444 </v>
   <v>       0.00347222 </v>
   <v>       0.00694444 </v>
   <v>       0.01388889 </v>
   <v>       0.01388889 </v>
   <v>       0.01388889 </v>
   <v>       0.01388889 </v>
   <v>       0.00694444 </v>
   <v>       0.01388889 </v>
   <v>       0.01388889 </v>
   <v>       0.00694444 </v>
   <v>       0.00694444 </v>
   <v>       0.01388889 </v>
   <v>       0.00231481 </v>
   <v>       0.00115741 </v>
   <v>       0.00694444 </v>
   <v>       0.00694444 </v>
   <v>       0.00694444 </v>
   <v>       0.00694444 </v>
   <v>       0.00694444 </v>
   <v>       0.00347222 </v>
   <v>       0.00694444 </v>
   <v>       0.01388889 </v>
   <v>       0.01388889 </v>
   <v>       0.01388889 </v>
   <v>       0.01388889 </v>
   <v>       0.00694444 </v>
   <v>       0.01388889 </v>
   <v>       0.01388889 </v>
   <v>       0.00694444 </v>
   <v>       0.00694444 </v>
   <v>       0.01388889 </v>
   <v>       0.00231481 </v>
   <v>       0.00115741 </v>
   <v>       0.00694444 </v>
   <v>       0.00694444 </v>
   <v>       0.00694444 </v>
   <v>       0.00694444 </v>
   <v>       0.00694444 </v>
   <v>       0.00347222 </v>
   <v>       0.00694444 </v>
   <v>       0.01388889 </v>
   <v>       0.01388889 </v>
   <v>       0.01388889 </v>
   <v>       0.01388889 </v>
   <v>       0.00694444 </v>
   <v>       0.01388889 </v>
   <v>       0.01388889 </v>
   <v>       0.00694444 </v>
   <v>       0.00694444 </v>
   <v>       0.01388889 </v>
   <v>       0.00231481 </v>
   <v>       0.00115741 </v>
   <v>       0.00694444 </v>
   <v>       0.00694444 </v>
   <v>       0.00694444 </v>
   <v>       0.00694444 </v>
   <v>       0.00694444 </v>
   <v>       0.00347222 </v>
   <v>       0.00694444 </v>
   <v>       0.01388889 </v>
   <v>       0.01388889 </v>
   <v>       0.01388889 </v>
   <v>       0.01388889 </v>
   <v>       0.00694444 </v>
   <v>       0.01388889 </v>
   <v>       0.01388889 </v>
   <v>       0.00694444 </v>
   <v>       0.00694444 </v>
   <v>       0.01388889 </v>
   <v>       0.00231481 </v>
   <v>       0.00115741 </v>
   <v>       0.00694444 </v>
   <v>       0.00694444 </v>
   <v>       0.00694444 </v>
   <v>       0.00694444 </v>
   <v>       0.00694444 </v>
   <v>       0.00347222 </v>
   <v>       0.00694444 </v>
   <v>       0.01388889 </v>
   <v>       0.01388889 </v>
   <v>       0.01388889 </v>
   <v>       0.01388889 </v>
   <v>       0.00694444 </v>
   <v>       0.01388889 </v>
   <v>       0.01388889 </v>
   <v>       0.00694444 </v>
   <v>       0.00694444 </v>
   <v>       0.01388889 </v>
   <v>       0.00231481 </v>
   <v>       0.00057870 </v>
   <v>       0.00347222 </v>
   <v>       0.00347222 </v>
   <v>       0.00347222 </v>
   <v>       0.00347222 </v>
   <v>       0.00347222 </v>
   <v>       0.00173611 </v>
   <v>       0.00347222 </v>
   <v>       0.00694444 </v>
   <v>       0.00694444 </v>
   <v>       0.00694444 </v>
   <v>       0.00694444 </v>
   <v>       0.00347222 </v>
   <v>       0.00694444 </v>
   <v>       0.00694444 </v>
   <v>       0.00347222 </v>
   <v>       0.00347222 </v>
   <v>       0.00694444 </v>
   <v>       0.00115741 </v>
  </varray>
 </kpoints>
 <parameters>
  <separator name="general" >
   <i type="string" name="SYSTEM">H</i>
   <i type="logical" name="LCOMPAT"> F  </i>
  </separator>
  <separator name="electronic" >
   <i type="string" name="PREC">normal</i>
   <i name="ENMAX">    325.00000000</i>
   <i name="ENAUG">    400.00000000</i>
   <i name="EDIFF">      0.00010000</i>
   <i type="int" name="IALGO">    38</i>
   <i type="int" name="IWAVPR">    10</i>
   <i type="int" name="NBANDS">    48</i>
   <i type="int" name="NBANDSLOW">    -1</i>
   <i type="int" name="NBANDSHIGH">    -1</i>
   <i name="NELECT">      4.00000000</i>
   <i type="int" name="TURBO">     0</i>
   <i type="int" name="IRESTART">     0</i>
   <i type="int" name="NREBOOT">     0</i>
   <i type="int" name="NMIN">     0</i>
   <i name="EREF">      0.00000000</i>
   <separator name="electronic smearing" >
    <i type="int" name="ISMEAR">     0</i>
    <i name="SIGMA">      0.05000000</i>
    <i name="KSPACING">      0.50000000</i>
    <i type="logical" name="KGAMMA"> T  </i>
    <i type="logical" name="KBLOWUP"> T  </i>
   </separator>
   <separator name="electronic projectors" >
    <i type="logical" name="LREAL"> F  </i>
    <v name="ROPT">      0.00000000</v>
    <i type="int" name="LMAXPAW">  -100</i>
    <i type="int" name="LMAXMIX">     2</i>
    <i type="logical" name="NLSPLINE"> F  </i>
   </separator>
   <separator name="electronic startup" >
    <i type="int" name="ISTART">     1</i>
    <i type="int" name="ICHARG">     0</i>
    <i type="int" name="INIWAV">     1</i>
   </separator>
   <separator name="electronic spin" >
    <i type="int" name="ISPIN">     1</i>
    <i type="logical" name="LNONCOLLINEAR"> F  </i>
    <v name="MAGMOM">      1.00000000      1.00000000      1.00000000      1.00000000</v>
    <i name="NUPDOWN">     -1.00000000</i>
    <i type="logical" name="LSORBIT"> F  </i>
    <v name="SAXIS">      0.00000000      0.00000000      1.00000000</v>
    <i type="logical" name="LSPIRAL"> F  </i>
    <v name="QSPIRAL">      0.00000000      0.00000000      0.00000000</v>
    <i type="logical" name="LZEROZ"> F  </i>
   </separator>
   <separator name="electronic exchange-correlation" >
    <i type="logical" name="LASPH"> F  </i>
   </separator>
   <separator name="electronic convergence" >
    <i type="int" name="NELM">    60</i>
    <i type="int" name="NELMDL">     0</i>
    <i type="int" name="NELMIN">     2</i>
    <i name="ENINI">    325.00000000</i>
    <separator name="electronic convergence detail" >
     <i type="logical" name="LDIAG"> T  </i>
     <i type="logical" name="LSUBROT"> F  </i>
     <i name="WEIMIN">      0.00000000</i>
     <i name="EBREAK">      0.00000052</i>
     <i name="DEPER">      0.30000000</i>
     <i type="int" name="NRMM">     4</i>
     <i name="TIME">      0.40000000</i>
    </separator>
   </separator>
   <separator name="electronic mixer" >
    <i name="AMIX">      0.40000000</i>
    <i name="BMIX">      1.00000000</i>
    <i name="AMIN">      0.10000000</i>
    <i name="AMIX_MAG">      1.60000000</i>
    <i name="BMIX_MAG">      1.00000000</i>
    <separator name="electronic mixer details" >
     <i type="int" name="IMIX">     4</i>
     <i type="logical" name="MIXFIRST"> F  </i>
     <i type="int" name="MAXMIX">   -45</i>
     <i name="WC">    100.00000000</i>
     <i type="int" name="INIMIX">     1</i>
     <i type="int" name="MIXPRE">     1</i>
     <i type="int" name="MREMOVE">     5</i>
    </separator>
   </separator>
   <separator name="electronic dipolcorrection" >
    <i type="logical" name="LDIPOL"> F  </i>
    <i type="logical" name="LMONO"> F  </i>
    <i type="int" name="IDIPOL">     0</i>
    <i name="EPSILON">      1.00000000</i>
    <v name="DIPOL">   -100.00000000   -100.00000000   -100.00000000</v>
    <i name="EFIELD">      0.00000000</i>
    <i type="logical" name="LVACPOTAV"> F  </i>
   </separator>
  </separator>
  <separator name="grids" >
   <i type="int" name="NGX">    18</i>
   <i type="int" name="NGY">    18</i>
   <i type="int" name="NGZ">    24</i>
   <i type="int" name="NGXF">    36</i>
   <i type="int" name="NGYF">    36</i>
   <i type="int" name="NGZF">    48</i>
   <i type="logical" name="ADDGRID"> F  </i>
  </separator>
  <separator name="ionic" >
   <i type="int" name="NSW">     0</i>
   <i type="int" name="IBRION">    -1</i>
   <i type="int" name="MDALGO">     0</i>
   <i type="int" name="ISIF">     2</i>
   <i name="PSTRESS">      0.00000000</i>
   <i name="EDIFFG">      0.00100000</i>
   <i type="int" name="NFREE">     0</i>
   <i name="POTIM">      0.50000000</i>
   <i name="SMASS">     -3.00000000</i>
   <i name="SCALEE">      1.00000000</i>
  </separator>
  <separator name="ionic md" >
   <i name="TEBEG">      0.00010000</i>
   <i name="TEEND">      0.00010000</i>
   <i type="int" name="NBLOCK">     1</i>
   <i type="int" name="KBLOCK">     1</i>
   <i type="int" name="NPACO">   256</i>
   <i name="APACO">     10.00000000</i>
  </separator>
  <separator name="symmetry" >
   <i type="int" name="ISYM">     2</i>
   <i name="SYMPREC">      0.00001000</i>
  </separator>
  <separator name="dos" >
   <i type="int" name="LORBIT">     0</i>
   <v name="RWIGS">     -1.00000000</v>
   <i type="int" name="NEDOS">   301</i>
   <i name="EMIN">     10.00000000</i>
   <i name="EMAX">    -10.00000000</i>
   <i name="EFERMI">      0.00000000</i>
  </separator>
  <separator name="writing" >
   <i type="int" name="NWRITE">     2</i>
   <i type="logical" name="LWAVE"> T  </i>
   <i type="logical" name="LDOWNSAMPLE"> F  </i>
   <i type="logical" name="LCHARG"> T  </i>
   <i type="logical" name="LPARD"> F  </i>
   <i type="logical" name="LVTOT"> F  </i>
   <i type="logical" name="LVHAR"> F  </i>
   <i type="logical" name="LELF"> F  </i>
   <i type="logical" name="LOPTICS"> F  </i>
   <v name="STM">      0.00000000      0.00000000      0.00000000      0.00000000      0.00000000      0.00000000      0.00000000</v>
  </separator>
  <separator name="performance" >
   <i type="int" name="NPAR">    48</i>
   <i type="int" name="NSIM">     4</i>
   <i type="int" name="NBLK">    -1</i>
   <i type="logical" name="LPLANE"> T  </i>
   <i type="logical" name="LSCALAPACK"> T  </i>
   <i type="logical" name="LSCAAWARE"> T  </i>
   <i type="logical" name="LSCALU"> F  </i>
   <i type="logical" name="LASYNC"> F  </i>
   <i type="logical" name="LORBITALREAL"> F  </i>
  </separator>
  <separator name="miscellaneous" >
   <i type="int" name="IDIOT">     3</i>
   <i type="int" name="PHON_NSTRUCT">    -1</i>
   <i type="logical" name="LMUSIC"> F  </i>
   <v name="POMASS">      1.00000000</v>
   <v name="DARWINR">      0.00000000</v>
   <v name="DARWINV">      1.00000000</v>
   <i type="logical" name="LCORR"> T  </i>
  </separator>
  <i type="logical" name="GGA_COMPAT"> T  </i>
  <i type="logical" name="LBERRY"> F  </i>
  <i type="int" name="ICORELEVEL">     0</i>
  <i type="logical" name="LDAU"> F  </i>
  <i type="int" name="I_CONSTRAINED_M">     0</i>
  <separator name="electronic exchange-correlation" >
   <i type="string" name="GGA    ">PE</i>
   <i type="string" name="XC_C">1</i>
   <i type="int" name="VOSKOWN">     0</i>
   <i type="logical" name="LHFCALC"> F  </i>
   <i type="string" name="PRECFOCK"></i>
   <i type="logical" name="LSYMGRAD"> F  </i>
   <i type="logical" name="LHFONE"> F  </i>
   <i type="logical" name="LRHFCALC"> F  </i>
   <i type="logical" name="LTHOMAS"> F  </i>
   <i type="logical" name="LMODELHF"> F  </i>
   <i type="logical" name="LFOCKACE"> F  </i>
   <i name="ENCUT4O">     -1.00000000</i>
   <i type="int" name="EXXOEP">     0</i>
   <i type="int" name="FOURORBIT">     0</i>
   <i name="AEXX">      0.00000000</i>
   <i name="HFALPHA">      0.00000000</i>
   <i name="MCALPHA">      0.00000000</i>
   <i name="ALDAX">      1.00000000</i>
   <i name="AGGAX">      1.00000000</i>
   <i name="AMGGAX">      1.00000000</i>
   <i name="ALDAC">      1.00000000</i>
   <i name="AGGAC">      1.00000000</i>
   <i name="AMGGAC">      1.00000000</i>
   <i type="int" name="NKREDX">     1</i>
   <i type="int" name="NKREDY">     1</i>
   <i type="int" name="NKREDZ">     1</i>
   <i type="logical" name="SHIFTRED"> F  </i>
   <i type="logical" name="ODDONLY"> F  </i>
   <i type="logical" name="EVENONLY"> F  </i>
   <i type="int" name="LMAXFOCK">     0</i>
   <i type="int" name="NMAXFOCKAE">     0</i>
   <i type="logical" name="LFOCKAEDFT"> F  </i>
   <i name="HFSCREEN">      0.00000000</i>
   <i name="HFSCREENC">      0.00000000</i>
   <i type="int" name="NBANDSGWLOW">     0</i>
  </separator>
  <separator name="vdW DFT" >
   <i type="logical" name="LUSE_VDW"> F  </i>
   <i type="int" name="IVDW_NL">    -1</i>
   <i type="logical" name="LSPIN_VDW"> F  </i>
   <i name="ZAB_VDW">     -0.84910000</i>
   <i name="GAMMA_VDW">      1.39626340</i>
   <i name="ALPHA_VDW">      0.00000000</i>
   <i name="PARAM1">      0.12340000</i>
   <i name="PARAM2">      1.00000000</i>
   <i name="BPARAM">      6.30000000</i>
   <i name="CPARAM">      0.00930000</i>
  </separator>
  <separator name="model GW" >
   <i type="int" name="MODEL_GW">     0</i>
   <i name="MODEL_EPS0">     10.43818617</i>
   <i name="MODEL_ALPHA">      1.00000000</i>
  </separator>
  <separator name="linear response parameters" >
   <i type="logical" name="LEPSILON"> F  </i>
   <i type="logical" name="LRPA"> F  </i>
   <i type="logical" name="LNABLA"> F  </i>
   <i type="logical" name="LVEL"> F  </i>
   <i name="CSHIFT">      0.10000000</i>
   <i name="OMEGAMAX">     -1.00000000</i>
   <i name="DEG_THRESHOLD">      0.00200000</i>
   <i name="RTIME">     -0.10000000</i>
   <i name="WPLASMAI">      0.00000000</i>
   <v name="DFIELD">      0.00000000      0.00000000      0.00000000</v>
   <v name="WPLASMA">      0.00000000      0.00000000      0.00000000      0.00000000      0.00000000      0.00000000      0.00000000      0.00000000      0.00000000</v>
  </separator>
  <separator name="orbital magnetization" >
   <i type="logical" name="NUCIND"> F  </i>
   <v name="MAGPOS">      0.00000000      0.00000000      0.00000000</v>
   <i type="logical" name="LNICSALL"> T  </i>
   <i type="logical" name="ORBITALMAG"> F  </i>
   <i type="logical" name="LMAGBLOCH"> F  </i>
   <i type="logical" name="LCHIMAG"> F  </i>
   <i type="logical" name="LGAUGE"> T  </i>
   <i type="int" name="MAGATOM">     0</i>
   <v name="MAGDIPOL">      0.00000000      0.00000000      0.00000000</v>
   <v name="AVECCONST">      0.00000000      0.00000000      0.00000000</v>
  </separator>
  <separator name="response functions" >
   <i type="logical" name="LALL_IN_ONE"> F  </i>
   <i type="int" name="IALL_IN_ONE">    -1</i>
   <i type="int" name="NBANDS_WAVE">    -1</i>
   <i type="logical" name="LFINITE_TEMPERATURE"> F  </i>
   <i type="logical" name="LADDER"> F  </i>
   <i type="logical" name="LRPAFORCE"> F  </i>
   <i type="logical" name="LFXC"> F  </i>
   <i type="logical" name="LHARTREE"> T  </i>
   <i type="int" name="IBSE">     0</i>
   <v type="int" name="KPOINT">    -1     0     0     0</v>
   <i type="logical" name="LTCTC"> F  </i>
   <i type="logical" name="LTCTE"> F  </i>
   <i type="logical" name="LTETE"> F  </i>
   <i type="logical" name="LTRIPLET"> F  </i>
   <i type="logical" name="LFXCEPS"> F  </i>
   <i type="logical" name="LFXHEG"> F  </i>
   <i type="int" name="NATURALO">     2</i>
   <i type="logical" name="LHOLEGF"> F  </i>
   <i type="logical" name="L2ORDER"> F  </i>
   <i type="logical" name="LDMP1"> F  </i>
   <i type="logical" name="LMP2LT"> F  </i>
   <i type="logical" name="LSMP2LT"> F  </i>
   <i type="logical" name="LGWLF"> F  </i>
   <i name="ENCUTGW">     -1.60000002</i>
   <i name="ENCUTGWSOFT">     -1.60000002</i>
   <i name="ENCUTLF">     -1.00000000</i>
   <i type="logical" name="ESF_SPLINES"> F  </i>
   <i name="ESF_CONV">      0.01000000</i>
   <i type="int" name="ESF_NINTER">    15</i>
   <i type="int" name="LMAXMP2">    -1</i>
   <i name="SCISSOR">      0.00000000</i>
   <i type="int" name="NOMEGA">     0</i>
   <i type="int" name="NOMEGAR">     0</i>
   <i type="int" name="NBANDSGW">    -1</i>
   <i type="int" name="NBANDSO">    -1</i>
   <i type="int" name="NBANDSV">    -1</i>
   <i type="int" name="NELMGW">     1</i>
   <i type="int" name="NELMHF">     1</i>
   <i type="int" name="DIM">     3</i>
   <i type="int" name="IESPILON">     4</i>
   <i type="int" name="ANTIRES">     0</i>
   <i name="OMEGAMAX">    -30.00000000</i>
   <i name="OMEGAMIN">    -30.00000000</i>
   <i name="OMEGATL">   -200.00000000</i>
   <i type="int" name="OMEGAGRID">     0</i>
   <i name="CSHIFT">     -0.10000000</i>
   <i type="logical" name="LSELFENERGY"> F  </i>
   <i type="logical" name="LSPECTRAL"> F  </i>
   <i type="logical" name="LSPECTRALGW"> F  </i>
   <i type="logical" name="LSINGLES"> F  </i>
   <i type="logical" name="LFERMIGW"> F  </i>
   <i type="logical" name="ODDONLYGW"> F  </i>
   <i type="logical" name="EVENONLYGW"> F  </i>
   <i type="int" name="NKREDLFX">     1</i>
   <i type="int" name="NKREDLFY">     1</i>
   <i type="int" name="NKREDLFZ">     1</i>
   <i type="int" name="MAXMEM">  2800</i>
   <i type="int" name="TELESCOPE">     0</i>
   <i type="int" name="NTAUPAR">    -1</i>
   <i type="int" name="NOMEGAPAR">    -1</i>
   <i name="DAMP_NEWTON">      0.80000001</i>
   <i name="LAMBDA">      1.00000000</i>
  </separator>
  <separator name="External order field" >
   <i name="OFIELD_KAPPA">      0.00000000</i>
   <v name="OFIELD_K">      0.00000000      0.00000000      0.00000000</v>
   <i name="OFIELD_Q6_NEAR">      0.00000000</i>
   <i name="OFIELD_Q6_FAR">      0.00000000</i>
   <i name="OFIELD_A">      0.00000000</i>
  </separator>
  <separator name="optional k-points parameters" >
   <i type="int" name="KPOINTS_OPT_MODE">     1</i>
   <i type="logical" name="LKPOINTS_OPT"> T  </i>
  </separator>
 </parameters>
 <atominfo>
  <atoms>       4 </atoms>
  <types>       1 </types>
  <array name="atoms" >
   <dimension dim="1">ion</dimension>
   <field type="string">element</field>
   <field type="int">atomtype</field>
   <set>
    <rc><c>H </c><c>   1</c></rc>
    <rc><c>H </c><c>   1</c></rc>
    <rc><c>H </c><c>   1</c></rc>
    <rc><c>H </c><c>   1</c></rc>
   </set>
  </array>
  <array name="atomtypes" >
   <dimension dim="1">type</dimension>
   <field type="int">atomspertype</field>
   <field type="string">element</field>
   <field>mass</field>
   <field>valence</field>
   <field type="string">pseudopotential</field>
   <set>
    <rc><c>   4</c><c>H </c><c>      1.00000000</c><c>      1.00000000</c><c>PAW_PBE H 15Jun2001                     </c></rc>
   </set>
  </array>
 </atominfo>
 <structure name="initialpos" >
  <crystal>
   <varray name="basis" >
    <v>       4.00759000       0.00000000       0.00000000 </v>
    <v>      -2.00379500       3.47067475       0.00000000 </v>
    <v>       0.00000000       0.00000000       5.00307000 </v>
   </varray>
   <i name="volume">     69.58790782 </i>
   <varray name="rec_basis" >
    <v>       0.24952652       0.14406421       0.00000000 </v>
    <v>       0.00000000       0.28812841       0.00000000 </v>
    <v>      -0.00000000      -0.00000000       0.19987728 </v>
   </varray>
  </crystal>
  <varray name="positions" >
   <v>       0.33333333       0.66666667       0.17498000 </v>
   <v>       0.66666667       0.33333333       0.82502000 </v>
   <v>       0.66666667       0.33333333       0.67498000 </v>
   <v>       0.33333333       0.66666667       0.32502000 </v>
  </varray>
 </structure>
 <calculation>
  <scstep>
   <time name="dav">    2.69    2.69</time>
   <time name="total">    2.71    2.72</time>
   <energy>
    <i name="alphaZ">      0.56013582 </i>
    <i name="ewald">    -11.08378711 </i>
    <i name="hartreedc">    -25.54929357 </i>
    <i name="XCdc">     10.59246569 </i>
    <i name="pawpsdc">     53.42396823 </i>
    <i name="pawaedc">    -53.51900085 </i>
    <i name="eentropy">     -0.00000000 </i>
    <i name="bandstr">    -37.76759719 </i>
    <i name="atom">     49.83586067 </i>
    <i name="e_fr_energy">    -13.50724831 </i>
    <i name="e_wo_entrp">    -13.50724831 </i>
    <i name="e_0_energy">    -13.50724831 </i>
   </energy>
  </scstep>
  <scstep>
   <time name="dav">    1.41    1.41</time>
   <time name="total">    1.41    1.41</time>
   <energy>
    <i name="alphaZ">      0.56013582 </i>
    <i name="ewald">    -11.08378711 </i>
    <i name="hartreedc">    -25.54647629 </i>
    <i name="XCdc">     10.59200290 </i>
    <i name="pawpsdc">     53.41795333 </i>
    <i name="pawaedc">    -53.51296912 </i>
    <i name="eentropy">     -0.00000000 </i>
    <i name="bandstr">    -37.76996749 </i>
    <i name="atom">     49.83586067 </i>
    <i name="e_fr_energy">    -13.50724728 </i>
    <i name="e_wo_entrp">    -13.50724728 </i>
    <i name="e_0_energy">    -13.50724728 </i>
   </energy>
  </scstep>
  <structure>
   <crystal>
    <varray name="basis" >
     <v>       4.00759000       0.00000000       0.00000000 </v>
     <v>      -2.00379500       3.47067475       0.00000000 </v>
     <v>       0.00000000       0.00000000       5.00307000 </v>
    </varray>
    <i name="volume">     69.58790782 </i>
    <varray name="rec_basis" >
     <v>       0.24952652       0.14406421       0.00000000 </v>
     <v>       0.00000000       0.28812841       0.00000000 </v>
     <v>      -0.00000000      -0.00000000       0.19987728 </v>
    </varray>
   </crystal>
   <varray name="positions" >
    <v>       0.33333333       0.66666667       0.17498000 </v>
    <v>       0.66666667       0.33333333       0.82502000 </v>
    <v>       0.66666667       0.33333333       0.67498000 </v>
    <v>       0.33333333       0.66666667       0.32502000 </v>
   </varray>
  </structure>
  <varray name="forces" >
   <v>       0.00000000       0.00000000      -0.03813152 </v>
   <v>      -0.00000000      -0.00000000       0.03813152 </v>
   <v>       0.00000000      -0.00000000      -0.03813152 </v>
   <v>      -0.00000000      -0.00000000       0.03813152 </v>
  </varray>
  <varray name="stress" >
   <v>     -12.24041256      -0.00000000      -0.00000000 </v>
   <v>      -0.00000000     -12.24041256      -0.00000000 </v>
   <v>      -0.00000000      -0.00000000     -12.68823425 </v>
  </varray>
  <energy>
   <i name="e_fr_energy">    -13.50724728 </i>
   <i name="e_wo_entrp">    -13.50724728 </i>
   <i name="e_0_energy">    -13.50724728 </i>
  </energy>
  <dos comment="kpoints_opt">
   <i name="efermi">     -3.82037655 </i>
   <total>
    <array>
     <dimension dim="1">gridpoints</dimension>
     <dimension dim="2">spin</dimension>
     <field>energy</field>
     <field>total</field>
     <field>integrated</field>
     <set>
      <set comment="spin 1">
       <r>   -12.9276     0.0000     0.0000 </r>
       <r>   -12.7306     0.0000     0.0000 </r>
       <r>   -12.5337     0.0000     0.0000 </r>
       <r>   -12.3367     0.0000     0.0000 </r>
       <r>   -12.1397     0.0000     0.0000 </r>
       <r>   -11.9428     0.0000     0.0000 </r>
       <r>   -11.7458     0.0000     0.0000 </r>
       <r>   -11.5488     0.0000     0.0000 </r>
       <r>   -11.3519     0.0000     0.0000 </r>
       <r>   -11.1549     0.0000     0.0000 </r>
       <r>   -10.9579     0.0000     0.0000 </r>
       <r>   -10.7610     0.0000     0.0000 </r>
       <r>   -10.5640     0.0000     0.0000 </r>
       <r>   -10.3670     0.0001     0.0000 </r>
       <r>   -10.1701     1.5979     0.3147 </r>
       <r>    -9.9731     1.6522     0.6402 </r>
       <r>    -9.7762     1.2419     0.8848 </r>
       <r>    -9.5792     2.3346     1.3446 </r>
       <r>    -9.3822     3.1796     1.9709 </r>
       <r>    -9.1853     4.1567     2.7896 </r>
       <r>    -8.9883     3.5390     3.4867 </r>
       <r>    -8.7913     2.6062     4.0000 </r>
       <r>    -8.5944     0.0000     4.0000 </r>
       <r>    -8.3974     0.0000     4.0000 </r>
       <r>    -8.2004     0.0000     4.0000 </r>
       <r>    -8.0035     0.0000     4.0000 </r>
       <r>    -7.8065     0.0000     4.0000 </r>
       <r>    -7.6095     0.0000     4.0000 </r>
       <r>    -7.4126     0.0000     4.0000 </r>
       <r>    -7.2156     0.0000     4.0000 </r>
       <r>    -7.0186     0.0000     4.0000 </r>
       <r>    -6.8217     0.0000     4.0000 </r>
       <r>    -6.6247     0.0000     4.0000 </r>
       <r>    -6.4278     0.0000     4.0000 </r>
       <r>    -6.2308     0.0000     4.0000 </r>
       <r>    -6.0338     0.0000     4.0000 </r>
       <r>    -5.8369     0.0000     4.0000 </r>
       <r>    -5.6399     0.0000     4.0000 </r>
       <r>    -5.4429     0.0000     4.0000 </r>
       <r>    -5.2460     0.0000     4.0000 </r>
       <r>    -5.0490     0.0000     4.0000 </r>
       <r>    -4.8520     0.0000     4.0000 </r>
       <r>    -4.6551     0.0000     4.0000 </r>
       <r>    -4.4581     0.0000     4.0000 </r>
       <r>    -4.2611     0.0000     4.0000 </r>
       <r>    -4.0642     0.0000     4.0000 </r>
       <r>    -3.8672     0.0000     4.0000 </r>
       <r>    -3.6703     0.0000     4.0000 </r>
       <r>    -3.4733     0.0000     4.0000 </r>
       <r>    -3.2763     0.0000     4.0000 </r>
       <r>    -3.0794     0.0000     4.0000 </r>
       <r>    -2.8824     0.0000     4.0000 </r>
       <r>    -2.6854     0.0000     4.0000 </r>
       <r>    -2.4885     0.0000     4.0000 </r>
       <r>    -2.2915     0.0000     4.0000 </r>
       <r>    -2.0945     0.0000     4.0000 </r>
       <r>    -1.8976     0.0000     4.0000 </r>
       <r>    -1.7006     0.0000     4.0000 </r>
       <r>    -1.5036     0.0000     4.0000 </r>
       <r>    -1.3067     0.0000     4.0000 </r>
       <r>    -1.1097     0.0000     4.0000 </r>
       <r>    -0.9127     0.0000     4.0000 </r>
       <r>    -0.7158     0.0000     4.0000 </r>
       <r>    -0.5188     0.0000     4.0000 </r>
       <r>    -0.3219     0.0000     4.0000 </r>
       <r>    -0.1249     0.0000     4.0000 </r>
       <r>     0.0721     0.0000     4.0000 </r>
       <r>     0.2690     0.0000     4.0000 </r>
       <r>     0.4660     0.0002     4.0000 </r>
       <r>     0.6630     1.1151     4.2197 </r>
       <r>     0.8599     0.9635     4.4095 </r>
       <r>     1.0569     0.6328     4.5341 </r>
       <r>     1.2539     2.3203     4.9911 </r>
       <r>     1.4508     3.9004     5.7594 </r>
       <r>     1.6478     1.2336     6.0023 </r>
       <r>     1.8448     1.0023     6.1998 </r>
       <r>     2.0417     0.9460     6.3861 </r>
       <r>     2.2387     0.9727     6.5777 </r>
       <r>     2.4357     1.1212     6.7985 </r>
       <r>     2.6326     2.9018     7.3701 </r>
       <r>     2.8296     1.2475     7.6158 </r>
       <r>     3.0265     0.7385     7.7613 </r>
       <r>     3.2235     0.6401     7.8873 </r>
       <r>     3.4205     5.9735     9.0639 </r>
       <r>     3.6174     2.9875     9.6523 </r>
       <r>     3.8144     1.9395    10.0343 </r>
       <r>     4.0114     3.2093    10.6665 </r>
       <r>     4.2083     1.3688    10.9361 </r>
       <r>     4.4053     1.0274    11.1384 </r>
       <r>     4.6023     0.9575    11.3270 </r>
       <r>     4.7992     0.9246    11.5091 </r>
       <r>     4.9962     0.9290    11.6921 </r>
       <r>     5.1932     1.4204    11.9719 </r>
       <r>     5.3901     1.3559    12.2389 </r>
       <r>     5.5871     1.0796    12.4516 </r>
       <r>     5.7840     1.2911    12.7059 </r>
       <r>     5.9810     0.7755    12.8586 </r>
       <r>     6.1780     0.6318    12.9831 </r>
       <r>     6.3749     0.6289    13.1070 </r>
       <r>     6.5719     0.6486    13.2347 </r>
       <r>     6.7689     0.9275    13.4174 </r>
       <r>     6.9658     2.8752    13.9837 </r>
       <r>     7.1628     3.0363    14.5818 </r>
       <r>     7.3598     1.8174    14.9397 </r>
       <r>     7.5567     3.1918    15.5684 </r>
       <r>     7.7537     1.3045    15.8253 </r>
       <r>     7.9507     2.2220    16.2630 </r>
       <r>     8.1476     1.0170    16.4633 </r>
       <r>     8.3446     0.8975    16.6401 </r>
       <r>     8.5416     1.3671    16.9094 </r>
       <r>     8.7385     0.8339    17.0736 </r>
       <r>     8.9355     1.7591    17.4201 </r>
       <r>     9.1324     1.3521    17.6864 </r>
       <r>     9.3294     1.1699    17.9169 </r>
       <r>     9.5264     1.2049    18.1542 </r>
       <r>     9.7233     1.6667    18.4825 </r>
       <r>     9.9203     1.7000    18.8173 </r>
       <r>    10.1173     1.6949    19.1511 </r>
       <r>    10.3142     2.4436    19.6324 </r>
       <r>    10.5112     2.6803    20.1604 </r>
       <r>    10.7082     1.2015    20.3970 </r>
       <r>    10.9051     0.7670    20.5481 </r>
       <r>    11.1021     1.1427    20.7732 </r>
       <r>    11.2991     1.3778    21.0445 </r>
       <r>    11.4960     1.7103    21.3814 </r>
       <r>    11.6930     1.7268    21.7215 </r>
       <r>    11.8899     2.0247    22.1203 </r>
       <r>    12.0869     2.1965    22.5530 </r>
       <r>    12.2839     1.6523    22.8784 </r>
       <r>    12.4808     1.7041    23.2141 </r>
       <r>    12.6778     1.3330    23.4766 </r>
       <r>    12.8748     1.2136    23.7157 </r>
       <r>    13.0717     2.3778    24.1840 </r>
       <r>    13.2687     2.1847    24.6143 </r>
       <r>    13.4657     2.5420    25.1150 </r>
       <r>    13.6626     1.7248    25.4547 </r>
       <r>    13.8596     2.1383    25.8759 </r>
       <r>    14.0566     1.6483    26.2006 </r>
       <r>    14.2535     2.8306    26.7581 </r>
       <r>    14.4505     3.9449    27.5351 </r>
       <r>    14.6475     2.9512    28.1164 </r>
       <r>    14.8444     2.7082    28.6498 </r>
       <r>    15.0414     1.9759    29.0390 </r>
       <r>    15.2383     2.6333    29.5576 </r>
       <r>    15.4353     2.5268    30.0553 </r>
       <r>    15.6323     2.4229    30.5326 </r>
       <r>    15.8292     2.6516    31.0548 </r>
       <r>    16.0262     2.5091    31.5490 </r>
       <r>    16.2232     2.0822    31.9592 </r>
       <r>    16.4201     2.0587    32.3646 </r>
       <r>    16.6171     1.5318    32.6664 </r>
       <r>    16.8141     1.3978    32.9417 </r>
       <r>    17.0110     1.4305    33.2234 </r>
       <r>    17.2080     1.4628    33.5116 </r>
       <r>    17.4050     1.7132    33.8490 </r>
       <r>    17.6019     2.4450    34.3306 </r>
       <r>    17.7989     1.6448    34.6546 </r>
       <r>    17.9959     1.3013    34.9109 </r>
       <r>    18.1928     1.5829    35.2226 </r>
       <r>    18.3898     1.6265    35.5430 </r>
       <r>    18.5867     1.5897    35.8561 </r>
       <r>    18.7837     1.7719    36.2051 </r>
       <r>    18.9807     1.3008    36.4613 </r>
       <r>    19.1776     3.3461    37.1204 </r>
       <r>    19.3746     4.2419    37.9559 </r>
       <r>    19.5716     1.8327    38.3169 </r>
       <r>    19.7685     3.1208    38.9316 </r>
       <r>    19.9655     2.3407    39.3926 </r>
       <r>    20.1625     2.7448    39.9332 </r>
       <r>    20.3594     2.5779    40.4410 </r>
       <r>    20.5564     1.8146    40.7984 </r>
       <r>    20.7534     1.9852    41.1894 </r>
       <r>    20.9503     1.3674    41.4588 </r>
       <r>    21.1473     1.3283    41.7204 </r>
       <r>    21.3442     1.2183    41.9604 </r>
       <r>    21.5412     1.1240    42.1818 </r>
       <r>    21.7382     1.4192    42.4613 </r>
       <r>    21.9351     2.1272    42.8803 </r>
       <r>    22.1321     2.2228    43.3181 </r>
       <r>    22.3291     3.1883    43.9461 </r>
       <r>    22.5260     2.9876    44.5345 </r>
       <r>    22.7230     2.5261    45.0321 </r>
       <r>    22.9200     1.4687    45.3214 </r>
       <r>    23.1169     5.7008    46.4442 </r>
       <r>    23.3139     3.1794    47.0704 </r>
       <r>    23.5109     3.4299    47.7460 </r>
       <r>    23.7078     3.7904    48.4926 </r>
       <r>    23.9048     3.1522    49.1134 </r>
       <r>    24.1018     2.2471    49.5560 </r>
       <r>    24.2987     2.2764    50.0044 </r>
       <r>    24.4957     2.2163    50.4409 </r>
       <r>    24.6926     2.2157    50.8773 </r>
       <r>    24.8896     1.9355    51.2586 </r>
       <r>    25.0866     2.3125    51.7140 </r>
       <r>    25.2835     3.1706    52.3385 </r>
       <r>    25.4805     4.1833    53.1625 </r>
       <r>    25.6775     3.3690    53.8261 </r>
       <r>    25.8744     2.0432    54.2285 </r>
       <r>    26.0714     2.3866    54.6986 </r>
       <r>    26.2684     2.5092    55.1928 </r>
       <r>    26.4653     2.3748    55.6606 </r>
       <r>    26.6623     2.2026    56.0944 </r>
       <r>    26.8593     2.1559    56.5190 </r>
       <r>    27.0562     2.6585    57.0427 </r>
       <r>    27.2532     2.1215    57.4605 </r>
       <r>    27.4502     2.3995    57.9332 </r>
       <r>    27.6471     1.6617    58.2605 </r>
       <r>    27.8441     1.8661    58.6280 </r>
       <r>    28.0410     2.0769    59.0371 </r>
       <r>    28.2380     2.4020    59.5102 </r>
       <r>    28.4350     2.0466    59.9133 </r>
       <r>    28.6319     2.0683    60.3207 </r>
       <r>    28.8289     2.5649    60.8259 </r>
       <r>    29.0259     3.5888    61.5328 </r>
       <r>    29.2228     2.3481    61.9953 </r>
       <r>    29.4198     2.2975    62.4478 </r>
       <r>    29.6168     3.6205    63.1609 </r>
       <r>    29.8137     5.4995    64.2441 </r>
       <r>    30.0107     4.4494    65.1205 </r>
       <r>    30.2077     3.8137    65.8717 </r>
       <r>    30.4046     2.9325    66.4493 </r>
       <r>    30.6016     4.0492    67.2468 </r>
       <r>    30.7985     2.8774    67.8135 </r>
       <r>    30.9955     3.3093    68.4654 </r>
       <r>    31.1925     3.6000    69.1744 </r>
       <r>    31.3894     5.2463    70.2078 </r>
       <r>    31.5864     5.3229    71.2562 </r>
       <r>    31.7834     2.4534    71.7394 </r>
       <r>    31.9803     3.4228    72.4136 </r>
       <r>    32.1773     3.1687    73.0377 </r>
       <r>    32.3743     2.6177    73.5533 </r>
       <r>    32.5712     2.1725    73.9812 </r>
       <r>    32.7682     2.3838    74.4507 </r>
       <r>    32.9652     2.8484    75.0118 </r>
       <r>    33.1621     2.8371    75.5706 </r>
       <r>    33.3591     3.1880    76.1985 </r>
       <r>    33.5561     2.9579    76.7811 </r>
       <r>    33.7530     2.9902    77.3701 </r>
       <r>    33.9500     3.2840    78.0169 </r>
       <r>    34.1469     4.1279    78.8299 </r>
       <r>    34.3439     3.9664    79.6112 </r>
       <r>    34.5409     2.9851    80.1991 </r>
       <r>    34.7378     2.7876    80.7482 </r>
       <r>    34.9348     3.1212    81.3630 </r>
       <r>    35.1318     2.2130    81.7989 </r>
       <r>    35.3287     2.7278    82.3361 </r>
       <r>    35.5257     3.1285    82.9523 </r>
       <r>    35.7227     2.6893    83.4820 </r>
       <r>    35.9196     2.8327    84.0400 </r>
       <r>    36.1166     3.6153    84.7521 </r>
       <r>    36.3136     2.5140    85.2472 </r>
       <r>    36.5105     2.2763    85.6956 </r>
       <r>    36.7075     2.9086    86.2685 </r>
       <r>    36.9044     3.0754    86.8742 </r>
       <r>    37.1014     3.8597    87.6344 </r>
       <r>    37.2984     2.9015    88.2059 </r>
       <r>    37.4953     2.5984    88.7177 </r>
       <r>    37.6923     2.4405    89.1984 </r>
       <r>    37.8893     2.8589    89.7615 </r>
       <r>    38.0862     2.9282    90.3383 </r>
       <r>    38.2832     3.1514    90.9590 </r>
       <r>    38.4802     2.4313    91.4379 </r>
       <r>    38.6771     2.8544    92.0001 </r>
       <r>    38.8741     2.4008    92.4730 </r>
       <r>    39.0711     1.9843    92.8638 </r>
       <r>    39.2680     2.2179    93.3006 </r>
       <r>    39.4650     2.4451    93.7822 </r>
       <r>    39.6620     1.7523    94.1274 </r>
       <r>    39.8589     2.1871    94.5582 </r>
       <r>    40.0559     1.5375    94.8610 </r>
       <r>    40.2528     1.5234    95.1610 </r>
       <r>    40.4498     1.1905    95.3955 </r>
       <r>    40.6468     1.2205    95.6359 </r>
       <r>    40.8437     0.7661    95.7868 </r>
       <r>    41.0407     0.6024    95.9055 </r>
       <r>    41.2377     0.4797    96.0000 </r>
       <r>    41.4346     0.0002    96.0000 </r>
       <r>    41.6316     0.0000    96.0000 </r>
       <r>    41.8286     0.0000    96.0000 </r>
       <r>    42.0255     0.0000    96.0000 </r>
       <r>    42.2225     0.0000    96.0000 </r>
       <r>    42.4195     0.0000    96.0000 </r>
       <r>    42.6164     0.0000    96.0000 </r>
       <r>    42.8134     0.0000    96.0000 </r>
       <r>    43.0104     0.0000    96.0000 </r>
       <r>    43.2073     0.0000    96.0000 </r>
       <r>    43.4043     0.0000    96.0000 </r>
       <r>    43.6012     0.0000    96.0000 </r>
       <r>    43.7982     0.0000    96.0000 </r>
       <r>    43.9952     0.0000    96.0000 </r>
       <r>    44.1921     0.0000    96.0000 </r>
       <r>    44.3891     0.0000    96.0000 </r>
       <r>    44.5861     0.0000    96.0000 </r>
       <r>    44.7830     0.0000    96.0000 </r>
       <r>    44.9800     0.0000    96.0000 </r>
       <r>    45.1770     0.0000    96.0000 </r>
       <r>    45.3739     0.0000    96.0000 </r>
       <r>    45.5709     0.0000    96.0000 </r>
       <r>    45.7679     0.0000    96.0000 </r>
       <r>    45.9648     0.0000    96.0000 </r>
       <r>    46.1618     0.0000    96.0000 </r>
      </set>
     </set>
    </array>
   </total>
  </dos>
  <eigenvalues_kpoints_opt comment="kpoints_opt">
   <kpoints>
    <varray name="kpointlist" >
     <v>       0.00000000       0.00000000       0.00000000 </v>
     <v>       0.01041667       0.00000000       0.00000000 </v>
     <v>       0.02083333       0.00000000       0.00000000 </v>
     <v>       0.03125000       0.00000000       0.00000000 </v>
     <v>       0.04166667       0.00000000       0.00000000 </v>
     <v>       0.05208333       0.00000000       0.00000000 </v>
     <v>       0.06250000       0.00000000       0.00000000 </v>
     <v>       0.07291667       0.00000000       0.00000000 </v>
     <v>       0.08333333       0.00000000       0.00000000 </v>
     <v>       0.09375000       0.00000000       0.00000000 </v>
     <v>       0.10416667       0.00000000       0.00000000 </v>
     <v>       0.11458333       0.00000000       0.00000000 </v>
     <v>       0.12500000       0.00000000       0.00000000 </v>
     <v>       0.13541667       0.00000000       0.00000000 </v>
     <v>       0.14583333       0.00000000       0.00000000 </v>
     <v>       0.15625000       0.00000000       0.00000000 </v>
     <v>       0.16666667       0.00000000       0.00000000 </v>
     <v>       0.17708333       0.00000000       0.00000000 </v>
     <v>       0.18750000       0.00000000       0.00000000 </v>
     <v>       0.19791667       0.00000000       0.00000000 </v>
     <v>       0.20833333       0.00000000       0.00000000 </v>
     <v>       0.21875000       0.00000000       0.00000000 </v>
     <v>       0.22916667       0.00000000       0.00000000 </v>
     <v>       0.23958333       0.00000000       0.00000000 </v>
     <v>       0.25000000       0.00000000       0.00000000 </v>
     <v>       0.26041667       0.00000000       0.00000000 </v>
     <v>       0.27083333       0.00000000       0.00000000 </v>
     <v>       0.28125000       0.00000000       0.00000000 </v>
     <v>       0.29166667       0.00000000       0.00000000 </v>
     <v>       0.30208333       0.00000000       0.00000000 </v>
     <v>       0.31250000       0.00000000       0.00000000 </v>
     <v>       0.32291667       0.00000000       0.00000000 </v>
     <v>       0.33333333       0.00000000       0.00000000 </v>
     <v>       0.34375000       0.00000000       0.00000000 </v>
     <v>       0.35416667       0.00000000       0.00000000 </v>
     <v>       0.36458333       0.00000000       0.00000000 </v>
     <v>       0.37500000       0.00000000       0.00000000 </v>
     <v>       0.38541667       0.00000000       0.00000000 </v>
     <v>       0.39583333       0.00000000       0.00000000 </v>
     <v>       0.40625000       0.00000000       0.00000000 </v>
     <v>       0.41666667       0.00000000       0.00000000 </v>
     <v>       0.42708333       0.00000000       0.00000000 </v>
     <v>       0.43750000       0.00000000       0.00000000 </v>
     <v>       0.44791667       0.00000000       0.00000000 </v>
     <v>       0.45833333       0.00000000       0.00000000 </v>
     <v>       0.46875000       0.00000000       0.00000000 </v>
     <v>       0.47916667       0.00000000       0.00000000 </v>
     <v>       0.48958333       0.00000000       0.00000000 </v>
     <v>       0.50000000       0.00000000       0.00000000 </v>
     <v>       0.50000000       0.00000000       0.00000000 </v>
     <v>       0.49652778       0.00694444       0.00000000 </v>
     <v>       0.49305556       0.01388889       0.00000000 </v>
     <v>       0.48958333       0.02083333       0.00000000 </v>
     <v>       0.48611111       0.02777778       0.00000000 </v>
     <v>       0.48263889       0.03472222       0.00000000 </v>
     <v>       0.47916667       0.04166667       0.00000000 </v>
     <v>       0.47569444       0.04861111       0.00000000 </v>
     <v>       0.47222222       0.05555556       0.00000000 </v>
     <v>       0.46875000       0.06250000       0.00000000 </v>
     <v>       0.46527778       0.06944444       0.00000000 </v>
     <v>       0.46180556       0.07638889       0.00000000 </v>
     <v>       0.45833333       0.08333333       0.00000000 </v>
     <v>       0.45486111       0.09027778       0.00000000 </v>
     <v>       0.45138889       0.09722222       0.00000000 </v>
     <v>       0.44791667       0.10416667       0.00000000 </v>
     <v>       0.44444444       0.11111111       0.00000000 </v>
     <v>       0.44097222       0.11805556       0.00000000 </v>
     <v>       0.43750000       0.12500000       0.00000000 </v>
     <v>       0.43402778       0.13194444       0.00000000 </v>
     <v>       0.43055556       0.13888889       0.00000000 </v>
     <v>       0.42708333       0.14583333       0.00000000 </v>
     <v>       0.42361111       0.15277778       0.00000000 </v>
     <v>       0.42013889       0.15972222       0.00000000 </v>
     <v>       0.41666667       0.16666667       0.00000000 </v>
     <v>       0.41319444       0.17361111       0.00000000 </v>
     <v>       0.40972222       0.18055556       0.00000000 </v>
     <v>       0.40625000       0.18750000       0.00000000 </v>
     <v>       0.40277778       0.19444444       0.00000000 </v>
     <v>       0.39930556       0.20138889       0.00000000 </v>
     <v>       0.39583333       0.20833333       0.00000000 </v>
     <v>       0.39236111       0.21527778       0.00000000 </v>
     <v>       0.38888889       0.22222222       0.00000000 </v>
     <v>       0.38541667       0.22916667       0.00000000 </v>
     <v>       0.38194444       0.23611111       0.00000000 </v>
     <v>       0.37847222       0.24305556       0.00000000 </v>
     <v>       0.37500000       0.25000000       0.00000000 </v>
     <v>       0.37152778       0.25694444       0.00000000 </v>
     <v>       0.36805556       0.26388889       0.00000000 </v>
     <v>       0.36458333       0.27083333       0.00000000 </v>
     <v>       0.36111111       0.27777778       0.00000000 </v>
     <v>       0.35763889       0.28472222       0.00000000 </v>
     <v>       0.35416667       0.29166667       0.00000000 </v>
     <v>       0.35069444       0.29861111       0.00000000 </v>
     <v>       0.34722222       0.30555556       0.00000000 </v>
     <v>       0.34375000       0.31250000       0.00000000 </v>
     <v>       0.34027778       0.31944444       0.00000000 </v>
     <v>       0.33680556       0.32638889       0.00000000 </v>
     <v>       0.33333333       0.33333333       0.00000000 </v>
     <v>       0.33333333       0.33333333       0.00000000 </v>
     <v>       0.32638889       0.32638889       0.00000000 </v>
     <v>       0.31944444       0.31944444       0.00000000 </v>
     <v>       0.31250000       0.31250000       0.00000000 </v>
     <v>       0.30555556       0.30555556       0.00000000 </v>
     <v>       0.29861111       0.29861111       0.00000000 </v>
     <v>       0.29166667       0.29166667       0.00000000 </v>
     <v>       0.28472222       0.28472222       0.00000000 </v>
     <v>       0.27777778       0.27777778       0.00000000 </v>
     <v>       0.27083333       0.27083333       0.00000000 </v>
     <v>       0.26388889       0.26388889       0.00000000 </v>
     <v>       0.25694444       0.25694444       0.00000000 </v>
     <v>       0.25000000       0.25000000       0.00000000 </v>
     <v>       0.24305556       0.24305556       0.00000000 </v>
     <v>       0.23611111       0.23611111       0.00000000 </v>
     <v>       0.22916667       0.22916667       0.00000000 </v>
     <v>       0.22222222       0.22222222       0.00000000 </v>
     <v>       0.21527778       0.21527778       0.00000000 </v>
     <v>       0.20833333       0.20833333       0.00000000 </v>
     <v>       0.20138889       0.20138889       0.00000000 </v>
     <v>       0.19444444       0.19444444       0.00000000 </v>
     <v>       0.18750000       0.18750000       0.00000000 </v>
     <v>       0.18055556       0.18055556       0.00000000 </v>
     <v>       0.17361111       0.17361111       0.00000000 </v>
     <v>       0.16666667       0.16666667       0.00000000 </v>
     <v>       0.15972222       0.15972222       0.00000000 </v>
     <v>       0.15277778       0.15277778       0.00000000 </v>
     <v>       0.14583333       0.14583333       0.00000000 </v>
     <v>       0.13888889       0.13888889       0.00000000 </v>
     <v>       0.13194444       0.13194444       0.00000000 </v>
     <v>       0.12500000       0.12500000       0.00000000 </v>
     <v>       0.11805556       0.11805556       0.00000000 </v>
     <v>       0.11111111       0.11111111       0.00000000 </v>
     <v>       0.10416667       0.10416667       0.00000000 </v>
     <v>       0.09722222       0.09722222       0.00000000 </v>
     <v>       0.09027778       0.09027778       0.00000000 </v>
     <v>       0.08333333       0.08333333       0.00000000 </v>
     <v>       0.07638889       0.07638889       0.00000000 </v>
     <v>       0.06944444       0.06944444       0.00000000 </v>
     <v>       0.06250000       0.06250000       0.00000000 </v>
     <v>       0.05555556       0.05555556       0.00000000 </v>
     <v>       0.04861111       0.04861111       0.00000000 </v>
     <v>       0.04166667       0.04166667       0.00000000 </v>
     <v>       0.03472222       0.03472222       0.00000000 </v>
     <v>       0.02777778       0.02777778       0.00000000 </v>
     <v>       0.02083333       0.02083333       0.00000000 </v>
     <v>       0.01388889       0.01388889       0.00000000 </v>
     <v>       0.00694444       0.00694444       0.00000000 </v>
     <v>       0.00000000       0.00000000       0.00000000 </v>
    </varray>
    <varray name="weights" >
     <v>       0.00680272 </v>
     <v>       0.00680272 </v>
     <v>       0.00680272 </v>
     <v>       0.00680272 </v>
     <v>       0.00680272 </v>
     <v>       0.00680272 </v>
     <v>       0.00680272 </v>
     <v>       0.00680272 </v>
     <v>       0.00680272 </v>
     <v>       0.00680272 </v>
     <v>       0.00680272 </v>
     <v>       0.00680272 </v>
     <v>       0.00680272 </v>
     <v>       0.00680272 </v>
     <v>       0.00680272 </v>
     <v>       0.00680272 </v>
     <v>       0.00680272 </v>
     <v>       0.00680272 </v>
     <v>       0.00680272 </v>
     <v>       0.00680272 </v>
     <v>       0.00680272 </v>
     <v>       0.00680272 </v>
     <v>       0.00680272 </v>
     <v>       0.00680272 </v>
     <v>       0.00680272 </v>
     <v>       0.00680272 </v>
     <v>       0.00680272 </v>
     <v>       0.00680272 </v>
     <v>       0.00680272 </v>
     <v>       0.00680272 </v>
     <v>       0.00680272 </v>
     <v>       0.00680272 </v>
     <v>       0.00680272 </v>
     <v>       0.00680272 </v>
     <v>       0.00680272 </v>
     <v>       0.00680272 </v>
     <v>       0.00680272 </v>
     <v>       0.00680272 </v>
     <v>       0.00680272 </v>
     <v>       0.00680272 </v>
     <v>       0.00680272 </v>
     <v>       0.00680272 </v>
     <v>       0.00680272 </v>
     <v>       0.00680272 </v>
     <v>       0.00680272 </v>
     <v>       0.00680272 </v>
     <v>       0.00680272 </v>
     <v>       0.00680272 </v>
     <v>       0.00680272 </v>
     <v>       0.00680272 </v>
     <v>       0.00680272 </v>
     <v>       0.00680272 </v>
     <v>       0.00680272 </v>
     <v>       0.00680272 </v>
     <v>       0.00680272 </v>
     <v>       0.00680272 </v>
     <v>       0.00680272 </v>
     <v>       0.00680272 </v>
     <v>       0.00680272 </v>
     <v>       0.00680272 </v>
     <v>       0.00680272 </v>
     <v>       0.00680272 </v>
     <v>       0.00680272 </v>
     <v>       0.00680272 </v>
     <v>       0.00680272 </v>
     <v>       0.00680272 </v>
     <v>       0.00680272 </v>
     <v>       0.00680272 </v>
     <v>       0.00680272 </v>
     <v>       0.00680272 </v>
     <v>       0.00680272 </v>
     <v>       0.00680272 </v>
     <v>       0.00680272 </v>
     <v>       0.00680272 </v>
     <v>       0.00680272 </v>
     <v>       0.00680272 </v>
     <v>       0.00680272 </v>
     <v>       0.00680272 </v>
     <v>       0.00680272 </v>
     <v>       0.00680272 </v>
     <v>       0.00680272 </v>
     <v>       0.00680272 </v>
     <v>       0.00680272 </v>
     <v>       0.00680272 </v>
     <v>       0.00680272 </v>
     <v>       0.00680272 </v>
     <v>       0.00680272 </v>
     <v>       0.00680272 </v>
     <v>       0.00680272 </v>
     <v>       0.00680272 </v>
     <v>       0.00680272 </v>
     <v>       0.00680272 </v>
     <v>       0.00680272 </v>
     <v>       0.00680272 </v>
     <v>       0.00680272 </v>
     <v>       0.00680272 </v>
     <v>       0.00680272 </v>
     <v>       0.00680272 </v>
     <v>       0.00680272 </v>
     <v>       0.00680272 </v>
     <v>       0.00680272 </v>
     <v>       0.00680272 </v>
     <v>       0.00680272 </v>
     <v>       0.00680272 </v>
     <v>       0.00680272 </v>
     <v>       0.00680272 </v>
     <v>       0.00680272 </v>
     <v>       0.00680272 </v>
     <v>       0.00680272 </v>
     <v>       0.00680272 </v>
     <v>       0.00680272 </v>
     <v>       0.00680272 </v>
     <v>       0.00680272 </v>
     <v>       0.00680272 </v>
     <v>       0.00680272 </v>
     <v>       0.00680272 </v>
     <v>       0.00680272 </v>
     <v>       0.00680272 </v>
     <v>       0.00680272 </v>
     <v>       0.00680272 </v>
     <v>       0.00680272 </v>
     <v>       0.00680272 </v>
     <v>       0.00680272 </v>
     <v>       0.00680272 </v>
     <v>       0.00680272 </v>
     <v>       0.00680272 </v>
     <v>       0.00680272 </v>
     <v>       0.00680272 </v>
     <v>       0.00680272 </v>
     <v>       0.00680272 </v>
     <v>       0.00680272 </v>
     <v>       0.00680272 </v>
     <v>       0.00680272 </v>
     <v>       0.00680272 </v>
     <v>       0.00680272 </v>
     <v>       0.00680272 </v>
     <v>       0.00680272 </v>
     <v>       0.00680272 </v>
     <v>       0.00680272 </v>
     <v>       0.00680272 </v>
     <v>       0.00680272 </v>
     <v>       0.00680272 </v>
     <v>       0.00680272 </v>
     <v>       0.00680272 </v>
     <v>       0.00680272 </v>
     <v>       0.00680272 </v>
     <v>       0.00680272 </v>
    </varray>
   </kpoints>
   <eigenvalues>
    <array>
     <dimension dim="1">band</dimension>
     <dimension dim="2">kpoint</dimension>
     <dimension dim="3">spin</dimension>
     <field>eigene</field>
     <set>
      <set comment="spin 1">
       <set comment="kpoint 1">
        <r>  -10.2423 </r>
        <r>   -8.9360 </r>
        <r>    0.5825 </r>
        <r>    2.6244 </r>
        <r>    5.7798 </r>
        <r>    7.1369 </r>
        <r>    7.4582 </r>
        <r>    7.4584 </r>
        <r>    8.8170 </r>
        <r>    8.8171 </r>
        <r>   11.7004 </r>
        <r>   13.3752 </r>
        <r>   13.3757 </r>
        <r>   13.8778 </r>
        <r>   14.4218 </r>
        <r>   14.4221 </r>
        <r>   14.6733 </r>
        <r>   15.0885 </r>
        <r>   15.0888 </r>
        <r>   15.6171 </r>
        <r>   15.6174 </r>
        <r>   19.6498 </r>
        <r>   19.9419 </r>
        <r>   23.5088 </r>
        <r>   25.5371 </r>
        <r>   29.2454 </r>
        <r>   31.4180 </r>
        <r>   31.4184 </r>
        <r>   31.4433 </r>
        <r>   31.4623 </r>
        <r>   31.4623 </r>
        <r>   31.9759 </r>
        <r>   31.9761 </r>
        <r>   33.2187 </r>
        <r>   33.2191 </r>
        <r>   33.2324 </r>
        <r>   33.3895 </r>
        <r>   33.3897 </r>
        <r>   33.7551 </r>
        <r>   33.7561 </r>
        <r>   34.1101 </r>
        <r>   34.5264 </r>
        <r>   37.0729 </r>
        <r>   37.0730 </r>
        <r>   38.7208 </r>
        <r>   39.2628 </r>
        <r>   39.2639 </r>
        <r>   39.4037 </r>
       </set>
       <set comment="kpoint 2">
        <r>  -10.2419 </r>
        <r>   -8.9361 </r>
        <r>    0.5836 </r>
        <r>    2.6229 </r>
        <r>    5.7726 </r>
        <r>    7.1344 </r>
        <r>    7.4495 </r>
        <r>    7.4587 </r>
        <r>    8.8249 </r>
        <r>    8.8273 </r>
        <r>   11.6953 </r>
        <r>   13.3701 </r>
        <r>   13.3813 </r>
        <r>   13.8627 </r>
        <r>   14.4095 </r>
        <r>   14.4123 </r>
        <r>   14.6129 </r>
        <r>   15.0981 </r>
        <r>   15.1599 </r>
        <r>   15.6324 </r>
        <r>   15.6474 </r>
        <r>   19.6523 </r>
        <r>   19.9437 </r>
        <r>   23.5066 </r>
        <r>   25.5315 </r>
        <r>   29.2152 </r>
        <r>   31.4067 </r>
        <r>   31.4100 </r>
        <r>   31.4352 </r>
        <r>   31.4497 </r>
        <r>   31.4565 </r>
        <r>   31.9579 </r>
        <r>   31.9870 </r>
        <r>   33.1080 </r>
        <r>   33.2296 </r>
        <r>   33.2457 </r>
        <r>   33.3791 </r>
        <r>   33.5104 </r>
        <r>   33.6106 </r>
        <r>   33.7972 </r>
        <r>   34.3024 </r>
        <r>   34.4965 </r>
        <r>   37.0531 </r>
        <r>   37.0854 </r>
        <r>   38.6035 </r>
        <r>   39.1292 </r>
        <r>   39.2852 </r>
        <r>   39.3456 </r>
       </set>
       <set comment="kpoint 3">
        <r>  -10.2404 </r>
        <r>   -8.9364 </r>
        <r>    0.5871 </r>
        <r>    2.6186 </r>
        <r>    5.7512 </r>
        <r>    7.1269 </r>
        <r>    7.4238 </r>
        <r>    7.4600 </r>
        <r>    8.8483 </r>
        <r>    8.8570 </r>
        <r>   11.6806 </r>
        <r>   13.3540 </r>
        <r>   13.3976 </r>
        <r>   13.8166 </r>
        <r>   14.3738 </r>
        <r>   14.3906 </r>
        <r>   14.4938 </r>
        <r>   15.1261 </r>
        <r>   15.3132 </r>
        <r>   15.6762 </r>
        <r>   15.7321 </r>
        <r>   19.6599 </r>
        <r>   19.9489 </r>
        <r>   23.5000 </r>
        <r>   25.5149 </r>
        <r>   29.1272 </r>
        <r>   31.3457 </r>
        <r>   31.3857 </r>
        <r>   31.4118 </r>
        <r>   31.4417 </r>
        <r>   31.4422 </r>
        <r>   31.8996 </r>
        <r>   32.0122 </r>
        <r>   32.9453 </r>
        <r>   33.2610 </r>
        <r>   33.2789 </r>
        <r>   33.3226 </r>
        <r>   33.5020 </r>
        <r>   33.6539 </r>
        <r>   33.9335 </r>
        <r>   34.4100 </r>
        <r>   34.6252 </r>
        <r>   36.9921 </r>
        <r>   37.1202 </r>
        <r>   38.3454 </r>
        <r>   38.9072 </r>
        <r>   39.1631 </r>
        <r>   39.3510 </r>
       </set>
       <set comment="kpoint 4">
        <r>  -10.2379 </r>
        <r>   -8.9368 </r>
        <r>    0.5928 </r>
        <r>    2.6113 </r>
        <r>    5.7166 </r>
        <r>    7.1144 </r>
        <r>    7.3834 </r>
        <r>    7.4620 </r>
        <r>    8.8864 </r>
        <r>    8.9041 </r>
        <r>   11.6569 </r>
        <r>   13.3285 </r>
        <r>   13.4196 </r>
        <r>   13.7387 </r>
        <r>   14.3192 </r>
        <r>   14.3705 </r>
        <r>   14.3723 </r>
        <r>   15.1715 </r>
        <r>   15.4961 </r>
        <r>   15.7441 </r>
        <r>   15.8581 </r>
        <r>   19.6726 </r>
        <r>   19.9576 </r>
        <r>   23.4891 </r>
        <r>   25.4874 </r>
        <r>   28.9882 </r>
        <r>   31.2475 </r>
        <r>   31.3467 </r>
        <r>   31.3469 </r>
        <r>   31.4237 </r>
        <r>   31.4592 </r>
        <r>   31.7949 </r>
        <r>   32.0319 </r>
        <r>   32.8105 </r>
        <r>   33.1112 </r>
        <r>   33.3116 </r>
        <r>   33.4404 </r>
        <r>   33.5167 </r>
        <r>   33.7795 </r>
        <r>   34.1433 </r>
        <r>   34.2784 </r>
        <r>   34.9772 </r>
        <r>   36.8869 </r>
        <r>   37.1702 </r>
        <r>   38.0365 </r>
        <r>   38.7007 </r>
        <r>   38.8846 </r>
        <r>   39.4595 </r>
       </set>
       <set comment="kpoint 5">
        <r>  -10.2345 </r>
        <r>   -8.9375 </r>
        <r>    0.6008 </r>
        <r>    2.6011 </r>
        <r>    5.6698 </r>
        <r>    7.0970 </r>
        <r>    7.3309 </r>
        <r>    7.4643 </r>
        <r>    8.9384 </r>
        <r>    8.9657 </r>
        <r>   11.6256 </r>
        <r>   13.2953 </r>
        <r>   13.4382 </r>
        <r>   13.6325 </r>
        <r>   14.2507 </r>
        <r>   14.2714 </r>
        <r>   14.3611 </r>
        <r>   15.2327 </r>
        <r>   15.6934 </r>
        <r>   15.8313 </r>
        <r>   16.0128 </r>
        <r>   19.6905 </r>
        <r>   19.9699 </r>
        <r>   23.4740 </r>
        <r>   25.4493 </r>
        <r>   28.8070 </r>
        <r>   31.1254 </r>
        <r>   31.2467 </r>
        <r>   31.2957 </r>
        <r>   31.4020 </r>
        <r>   31.4845 </r>
        <r>   31.6493 </r>
        <r>   32.0259 </r>
        <r>   32.7219 </r>
        <r>   32.9822 </r>
        <r>   33.3792 </r>
        <r>   33.5655 </r>
        <r>   33.5892 </r>
        <r>   33.9162 </r>
        <r>   34.0966 </r>
        <r>   34.4046 </r>
        <r>   35.3437 </r>
        <r>   36.7355 </r>
        <r>   37.2277 </r>
        <r>   37.7077 </r>
        <r>   38.5308 </r>
        <r>   38.5599 </r>
        <r>   39.6083 </r>
       </set>
       <set comment="kpoint 6">
        <r>  -10.2308 </r>
        <r>   -8.9383 </r>
        <r>    0.6111 </r>
        <r>    2.5878 </r>
        <r>    5.6125 </r>
        <r>    7.0746 </r>
        <r>    7.2692 </r>
        <r>    7.4664 </r>
        <r>    9.0028 </r>
        <r>    9.0388 </r>
        <r>   11.5877 </r>
        <r>   13.2565 </r>
        <r>   13.4410 </r>
        <r>   13.5049 </r>
        <r>   14.1727 </r>
        <r>   14.2076 </r>
        <r>   14.3644 </r>
        <r>   15.3078 </r>
        <r>   15.8997 </r>
        <r>   15.9334 </r>
        <r>   16.1867 </r>
        <r>   19.7138 </r>
        <r>   19.9857 </r>
        <r>   23.4549 </r>
        <r>   25.4009 </r>
        <r>   28.5922 </r>
        <r>   30.9877 </r>
        <r>   31.0937 </r>
        <r>   31.2344 </r>
        <r>   31.3720 </r>
        <r>   31.4912 </r>
        <r>   31.5171 </r>
        <r>   31.9888 </r>
        <r>   32.6863 </r>
        <r>   32.9028 </r>
        <r>   33.4615 </r>
        <r>   33.6319 </r>
        <r>   33.7608 </r>
        <r>   33.8915 </r>
        <r>   34.0792 </r>
        <r>   34.6792 </r>
        <r>   35.7193 </r>
        <r>   36.5410 </r>
        <r>   37.2866 </r>
        <r>   37.3704 </r>
        <r>   38.2164 </r>
        <r>   38.4013 </r>
        <r>   39.7080 </r>
       </set>
       <set comment="kpoint 7">
        <r>  -10.2248 </r>
        <r>   -8.9390 </r>
        <r>    0.6237 </r>
        <r>    2.5724 </r>
        <r>    5.5463 </r>
        <r>    7.0477 </r>
        <r>    7.2008 </r>
        <r>    7.4679 </r>
        <r>    9.0786 </r>
        <r>    9.1209 </r>
        <r>   11.5446 </r>
        <r>   13.2139 </r>
        <r>   13.3631 </r>
        <r>   13.4171 </r>
        <r>   14.0885 </r>
        <r>   14.1934 </r>
        <r>   14.3792 </r>
        <r>   15.3952 </r>
        <r>   16.0469 </r>
        <r>   16.1129 </r>
        <r>   16.3738 </r>
        <r>   19.7425 </r>
        <r>   20.0050 </r>
        <r>   23.4319 </r>
        <r>   25.3428 </r>
        <r>   28.3524 </r>
        <r>   30.8405 </r>
        <r>   30.8741 </r>
        <r>   31.1653 </r>
        <r>   31.3247 </r>
        <r>   31.3525 </r>
        <r>   31.5567 </r>
        <r>   31.9379 </r>
        <r>   32.6929 </r>
        <r>   32.8611 </r>
        <r>   33.5563 </r>
        <r>   33.6679 </r>
        <r>   33.7118 </r>
        <r>   33.9494 </r>
        <r>   34.2618 </r>
        <r>   34.9719 </r>
        <r>   36.0947 </r>
        <r>   36.3169 </r>
        <r>   37.0294 </r>
        <r>   37.3433 </r>
        <r>   37.8655 </r>
        <r>   38.3083 </r>
        <r>   39.7350 </r>
       </set>
       <set comment="kpoint 8">
        <r>  -10.2184 </r>
        <r>   -8.9402 </r>
        <r>    0.6386 </r>
        <r>    2.5539 </r>
        <r>    5.4727 </r>
        <r>    7.0158 </r>
        <r>    7.1276 </r>
        <r>    7.4686 </r>
        <r>    9.1636 </r>
        <r>    9.2095 </r>
        <r>   11.4970 </r>
        <r>   13.1694 </r>
        <r>   13.2129 </r>
        <r>   13.3659 </r>
        <r>   14.0006 </r>
        <r>   14.2293 </r>
        <r>   14.4035 </r>
        <r>   15.4932 </r>
        <r>   16.1695 </r>
        <r>   16.3317 </r>
        <r>   16.5699 </r>
        <r>   19.7768 </r>
        <r>   20.0281 </r>
        <r>   23.4054 </r>
        <r>   25.2752 </r>
        <r>   28.0934 </r>
        <r>   30.6014 </r>
        <r>   30.6878 </r>
        <r>   31.0901 </r>
        <r>   31.2359 </r>
        <r>   31.2508 </r>
        <r>   31.6032 </r>
        <r>   31.8971 </r>
        <r>   32.7247 </r>
        <r>   32.8441 </r>
        <r>   33.4286 </r>
        <r>   33.6616 </r>
        <r>   33.8028 </r>
        <r>   34.1508 </r>
        <r>   34.4645 </r>
        <r>   35.2791 </r>
        <r>   36.0391 </r>
        <r>   36.5021 </r>
        <r>   36.6874 </r>
        <r>   37.3957 </r>
        <r>   37.5121 </r>
        <r>   38.2445 </r>
        <r>   39.7607 </r>
       </set>
       <set comment="kpoint 9">
        <r>  -10.2112 </r>
        <r>   -8.9415 </r>
        <r>    0.6562 </r>
        <r>    2.5329 </r>
        <r>    5.3933 </r>
        <r>    6.9794 </r>
        <r>    7.0512 </r>
        <r>    7.4681 </r>
        <r>    9.2565 </r>
        <r>    9.3029 </r>
        <r>   11.4455 </r>
        <r>   13.0584 </r>
        <r>   13.1249 </r>
        <r>   13.2977 </r>
        <r>   13.9107 </r>
        <r>   14.3060 </r>
        <r>   14.4359 </r>
        <r>   15.6004 </r>
        <r>   16.2995 </r>
        <r>   16.5553 </r>
        <r>   16.7726 </r>
        <r>   19.8171 </r>
        <r>   20.0549 </r>
        <r>   23.3770 </r>
        <r>   25.1991 </r>
        <r>   27.8201 </r>
        <r>   30.2979 </r>
        <r>   30.5324 </r>
        <r>   31.0105 </r>
        <r>   31.1307 </r>
        <r>   31.1485 </r>
        <r>   31.6570 </r>
        <r>   31.8793 </r>
        <r>   32.7706 </r>
        <r>   32.8428 </r>
        <r>   33.1796 </r>
        <r>   33.7760 </r>
        <r>   33.9030 </r>
        <r>   34.3623 </r>
        <r>   34.6832 </r>
        <r>   35.5992 </r>
        <r>   35.7628 </r>
        <r>   36.3457 </r>
        <r>   36.8939 </r>
        <r>   37.1587 </r>
        <r>   37.4438 </r>
        <r>   38.2027 </r>
        <r>   39.7872 </r>
       </set>
       <set comment="kpoint 10">
        <r>  -10.2032 </r>
        <r>   -8.9436 </r>
        <r>    0.6752 </r>
        <r>    2.5092 </r>
        <r>    5.3094 </r>
        <r>    6.9379 </r>
        <r>    6.9727 </r>
        <r>    7.4662 </r>
        <r>    9.3558 </r>
        <r>    9.3993 </r>
        <r>   11.3904 </r>
        <r>   12.9010 </r>
        <r>   13.0818 </r>
        <r>   13.2243 </r>
        <r>   13.8199 </r>
        <r>   14.4119 </r>
        <r>   14.4747 </r>
        <r>   15.7157 </r>
        <r>   16.4357 </r>
        <r>   16.7829 </r>
        <r>   16.9787 </r>
        <r>   19.8636 </r>
        <r>   20.0854 </r>
        <r>   23.3423 </r>
        <r>   25.1142 </r>
        <r>   27.5362 </r>
        <r>   29.9777 </r>
        <r>   30.3759 </r>
        <r>   30.9276 </r>
        <r>   31.0234 </r>
        <r>   31.0301 </r>
        <r>   31.7168 </r>
        <r>   31.8834 </r>
        <r>   32.8242 </r>
        <r>   32.8517 </r>
        <r>   32.9259 </r>
        <r>   33.8981 </r>
        <r>   34.0102 </r>
        <r>   34.5816 </r>
        <r>   34.9144 </r>
        <r>   35.4727 </r>
        <r>   35.9307 </r>
        <r>   36.0051 </r>
        <r>   36.8064 </r>
        <r>   37.2919 </r>
        <r>   37.4879 </r>
        <r>   38.1775 </r>
        <r>   39.8146 </r>
       </set>
       <set comment="kpoint 11">
        <r>  -10.1954 </r>
        <r>   -8.9450 </r>
        <r>    0.6965 </r>
        <r>    2.4825 </r>
        <r>    5.2223 </r>
        <r>    6.8923 </r>
        <r>    6.8932 </r>
        <r>    7.4628 </r>
        <r>    9.4600 </r>
        <r>    9.4973 </r>
        <r>   11.3319 </r>
        <r>   12.7439 </r>
        <r>   13.0414 </r>
        <r>   13.1543 </r>
        <r>   13.7291 </r>
        <r>   14.5194 </r>
        <r>   14.5390 </r>
        <r>   15.8381 </r>
        <r>   16.5772 </r>
        <r>   17.0142 </r>
        <r>   17.1870 </r>
        <r>   19.9167 </r>
        <r>   20.1199 </r>
        <r>   23.3056 </r>
        <r>   25.0221 </r>
        <r>   27.2440 </r>
        <r>   29.6483 </r>
        <r>   30.2199 </r>
        <r>   30.8423 </r>
        <r>   30.8836 </r>
        <r>   30.9311 </r>
        <r>   31.7829 </r>
        <r>   31.9017 </r>
        <r>   32.6689 </r>
        <r>   32.8673 </r>
        <r>   32.8874 </r>
        <r>   34.0269 </r>
        <r>   34.1213 </r>
        <r>   34.8072 </r>
        <r>   35.1554 </r>
        <r>   35.1778 </r>
        <r>   35.6668 </r>
        <r>   36.2727 </r>
        <r>   36.4562 </r>
        <r>   37.5290 </r>
        <r>   37.6921 </r>
        <r>   38.1661 </r>
        <r>   39.8440 </r>
       </set>
       <set comment="kpoint 12">
        <r>  -10.1851 </r>
        <r>   -8.9463 </r>
        <r>    0.7210 </r>
        <r>    2.4541 </r>
        <r>    5.1331 </r>
        <r>    6.8133 </r>
        <r>    6.8429 </r>
        <r>    7.4577 </r>
        <r>    9.5672 </r>
        <r>    9.5960 </r>
        <r>   11.2705 </r>
        <r>   12.5884 </r>
        <r>   13.0054 </r>
        <r>   13.0936 </r>
        <r>   13.6389 </r>
        <r>   14.5699 </r>
        <r>   14.6822 </r>
        <r>   15.9670 </r>
        <r>   16.7235 </r>
        <r>   17.2485 </r>
        <r>   17.3965 </r>
        <r>   19.9769 </r>
        <r>   20.1586 </r>
        <r>   23.2696 </r>
        <r>   24.9233 </r>
        <r>   26.9460 </r>
        <r>   29.3139 </r>
        <r>   30.0656 </r>
        <r>   30.7349 </r>
        <r>   30.7555 </r>
        <r>   30.8325 </r>
        <r>   31.8559 </r>
        <r>   31.9231 </r>
        <r>   32.4227 </r>
        <r>   32.8883 </r>
        <r>   32.9542 </r>
        <r>   34.1616 </r>
        <r>   34.2286 </r>
        <r>   34.8888 </r>
        <r>   35.0363 </r>
        <r>   35.3329 </r>
        <r>   35.4041 </r>
        <r>   36.1085 </r>
        <r>   36.6241 </r>
        <r>   37.5676 </r>
        <r>   38.0642 </r>
        <r>   38.1954 </r>
        <r>   39.8753 </r>
       </set>
       <set comment="kpoint 13">
        <r>  -10.1743 </r>
        <r>   -8.9487 </r>
        <r>    0.7471 </r>
        <r>    2.4234 </r>
        <r>    5.0427 </r>
        <r>    6.7336 </r>
        <r>    6.7892 </r>
        <r>    7.4504 </r>
        <r>    9.6757 </r>
        <r>    9.6936 </r>
        <r>   11.2071 </r>
        <r>   12.4347 </r>
        <r>   12.9748 </r>
        <r>   13.0453 </r>
        <r>   13.5497 </r>
        <r>   14.6251 </r>
        <r>   14.8382 </r>
        <r>   16.1016 </r>
        <r>   16.8741 </r>
        <r>   17.4853 </r>
        <r>   17.6047 </r>
        <r>   20.0448 </r>
        <r>   20.2015 </r>
        <r>   23.2305 </r>
        <r>   24.8179 </r>
        <r>   26.6449 </r>
        <r>   28.9771 </r>
        <r>   29.9131 </r>
        <r>   30.5808 </r>
        <r>   30.6675 </r>
        <r>   30.7334 </r>
        <r>   31.9129 </r>
        <r>   31.9343 </r>
        <r>   32.2158 </r>
        <r>   32.9127 </r>
        <r>   33.0270 </r>
        <r>   34.2911 </r>
        <r>   34.3016 </r>
        <r>   34.6485 </r>
        <r>   34.9904 </r>
        <r>   35.2812 </r>
[...]
       <r>   35.1734    0.0000 </r>
       <r>   36.1806    0.0000 </r>
       <r>   36.1806    0.0000 </r>
       <r>   38.2443    0.0000 </r>
       <r>   38.2445    0.0000 </r>
       <r>   39.8975    0.0000 </r>
       <r>   39.8975    0.0000 </r>
      </set>
      <set comment="kpoint 132">
       <r>   -9.3475    1.0000 </r>
       <r>   -9.3475    1.0000 </r>
       <r>    1.1040    0.0000 </r>
       <r>    1.1042    0.0000 </r>
       <r>    3.1349    0.0000 </r>
       <r>    3.1349    0.0000 </r>
       <r>    8.1440    0.0000 </r>
       <r>    8.1441    0.0000 </r>
       <r>    9.0802    0.0000 </r>
       <r>    9.0805    0.0000 </r>
       <r>   12.8766    0.0000 </r>
       <r>   12.8769    0.0000 </r>
       <r>   14.2284    0.0000 </r>
       <r>   14.2289    0.0000 </r>
       <r>   15.2059    0.0000 </r>
       <r>   15.2062    0.0000 </r>
       <r>   16.2383    0.0000 </r>
       <r>   16.2383    0.0000 </r>
       <r>   20.5121    0.0000 </r>
       <r>   20.5124    0.0000 </r>
       <r>   22.2418    0.0000 </r>
       <r>   22.2422    0.0000 </r>
       <r>   23.8152    0.0000 </r>
       <r>   23.8155    0.0000 </r>
       <r>   24.9479    0.0000 </r>
       <r>   24.9487    0.0000 </r>
       <r>   25.8975    0.0000 </r>
       <r>   25.8979    0.0000 </r>
       <r>   26.2954    0.0000 </r>
       <r>   26.2957    0.0000 </r>
       <r>   27.9300    0.0000 </r>
       <r>   27.9303    0.0000 </r>
       <r>   28.8062    0.0000 </r>
       <r>   28.8066    0.0000 </r>
       <r>   30.7208    0.0000 </r>
       <r>   30.7211    0.0000 </r>
       <r>   32.3326    0.0000 </r>
       <r>   32.3329    0.0000 </r>
       <r>   34.1949    0.0000 </r>
       <r>   34.1953    0.0000 </r>
       <r>   36.3227    0.0000 </r>
       <r>   36.3229    0.0000 </r>
       <r>   36.7336    0.0000 </r>
       <r>   36.7339    0.0000 </r>
       <r>   37.6090    0.0000 </r>
       <r>   37.6090    0.0000 </r>
       <r>   38.6820    0.0000 </r>
       <r>   38.6824    0.0000 </r>
      </set>
      <set comment="kpoint 133">
       <r>   -9.3374    1.0000 </r>
       <r>   -9.3374    1.0000 </r>
       <r>    1.1974    0.0000 </r>
       <r>    1.1976    0.0000 </r>
       <r>    2.8623    0.0000 </r>
       <r>    2.8623    0.0000 </r>
       <r>    8.5571    0.0000 </r>
       <r>    8.5572    0.0000 </r>
       <r>    8.7748    0.0000 </r>
       <r>    8.7752    0.0000 </r>
       <r>   13.8499    0.0000 </r>
       <r>   13.8502    0.0000 </r>
       <r>   14.5341    0.0000 </r>
       <r>   14.5343    0.0000 </r>
       <r>   14.6152    0.0000 </r>
       <r>   14.6153    0.0000 </r>
       <r>   14.9592    0.0000 </r>
       <r>   14.9596    0.0000 </r>
       <r>   21.4756    0.0000 </r>
       <r>   21.4759    0.0000 </r>
       <r>   22.5222    0.0000 </r>
       <r>   22.5223    0.0000 </r>
       <r>   24.2670    0.0000 </r>
       <r>   24.2679    0.0000 </r>
       <r>   25.1191    0.0000 </r>
       <r>   25.1192    0.0000 </r>
       <r>   26.1420    0.0000 </r>
       <r>   26.1422    0.0000 </r>
       <r>   26.7362    0.0000 </r>
       <r>   26.7363    0.0000 </r>
       <r>   27.9596    0.0000 </r>
       <r>   27.9598    0.0000 </r>
       <r>   28.0336    0.0000 </r>
       <r>   28.0345    0.0000 </r>
       <r>   28.1767    0.0000 </r>
       <r>   28.1774    0.0000 </r>
       <r>   32.7844    0.0000 </r>
       <r>   32.7846    0.0000 </r>
       <r>   34.6729    0.0000 </r>
       <r>   34.6730    0.0000 </r>
       <r>   36.3256    0.0000 </r>
       <r>   36.3256    0.0000 </r>
       <r>   38.1993    0.0000 </r>
       <r>   38.1994    0.0000 </r>
       <r>   38.5585    0.0000 </r>
       <r>   38.5589    0.0000 </r>
       <r>   38.7315    0.0000 </r>
       <r>   38.7316    0.0000 </r>
      </set>
     </set>
    </set>
   </array>
  </eigenvalues>
  <separator name="orbital magnetization" >
   <v name="MAGDIPOLOUT">      0.00000000      0.00000000      0.00000000</v>
  </separator>
  <dos>
   <i name="efermi">     -8.56974530 </i>
   <total>
    <array>
     <dimension dim="1">gridpoints</dimension>
     <dimension dim="2">spin</dimension>
     <field>energy</field>
     <field>total</field>
     <field>integrated</field>
     <set>
      <set comment="spin 1">
       <r>   -12.9276     0.0000     0.0000 </r>
       <r>   -12.7306     0.0000     0.0000 </r>
       <r>   -12.5337     0.0000     0.0000 </r>
       <r>   -12.3367     0.0000     0.0000 </r>
       <r>   -12.1397     0.0000     0.0000 </r>
       <r>   -11.9428     0.0000     0.0000 </r>
       <r>   -11.7458     0.0000     0.0000 </r>
       <r>   -11.5488     0.0000     0.0000 </r>
       <r>   -11.3519     0.0000     0.0000 </r>
       <r>   -11.1549     0.0000     0.0000 </r>
       <r>   -10.9579     0.0000     0.0000 </r>
       <r>   -10.7610     0.0000     0.0000 </r>
       <r>   -10.5640     0.0000     0.0000 </r>
       <r>   -10.3670     0.0000     0.0000 </r>
       <r>   -10.1701     0.1420     0.0280 </r>
       <r>    -9.9731     0.9123     0.2077 </r>
       <r>    -9.7762     1.6689     0.5364 </r>
       <r>    -9.5792     3.1714     1.1610 </r>
       <r>    -9.3822     4.7770     2.1019 </r>
       <r>    -9.1853     5.9276     3.2695 </r>
       <r>    -8.9883     3.3365     3.9266 </r>
       <r>    -8.7913     0.3725     4.0000 </r>
       <r>    -8.5944     0.0000     4.0000 </r>
       <r>    -8.3974     0.0000     4.0000 </r>
       <r>    -8.2004     0.0000     4.0000 </r>
       <r>    -8.0035     0.0000     4.0000 </r>
       <r>    -7.8065     0.0000     4.0000 </r>
       <r>    -7.6095     0.0000     4.0000 </r>
       <r>    -7.4126     0.0000     4.0000 </r>
       <r>    -7.2156     0.0000     4.0000 </r>
       <r>    -7.0186     0.0000     4.0000 </r>
       <r>    -6.8217     0.0000     4.0000 </r>
       <r>    -6.6247     0.0000     4.0000 </r>
       <r>    -6.4278     0.0000     4.0000 </r>
       <r>    -6.2308     0.0000     4.0000 </r>
       <r>    -6.0338     0.0000     4.0000 </r>
       <r>    -5.8369     0.0000     4.0000 </r>
       <r>    -5.6399     0.0000     4.0000 </r>
       <r>    -5.4429     0.0000     4.0000 </r>
       <r>    -5.2460     0.0000     4.0000 </r>
       <r>    -5.0490     0.0000     4.0000 </r>
       <r>    -4.8520     0.0000     4.0000 </r>
       <r>    -4.6551     0.0000     4.0000 </r>
       <r>    -4.4581     0.0000     4.0000 </r>
       <r>    -4.2611     0.0000     4.0000 </r>
       <r>    -4.0642     0.0000     4.0000 </r>
       <r>    -3.8672     0.0000     4.0000 </r>
       <r>    -3.6703     0.0000     4.0000 </r>
       <r>    -3.4733     0.0000     4.0000 </r>
       <r>    -3.2763     0.0000     4.0000 </r>
       <r>    -3.0794     0.0000     4.0000 </r>
       <r>    -2.8824     0.0000     4.0000 </r>
       <r>    -2.6854     0.0000     4.0000 </r>
       <r>    -2.4885     0.0000     4.0000 </r>
       <r>    -2.2915     0.0000     4.0000 </r>
       <r>    -2.0945     0.0000     4.0000 </r>
       <r>    -1.8976     0.0000     4.0000 </r>
       <r>    -1.7006     0.0000     4.0000 </r>
       <r>    -1.5036     0.0000     4.0000 </r>
       <r>    -1.3067     0.0000     4.0000 </r>
       <r>    -1.1097     0.0000     4.0000 </r>
       <r>    -0.9127     0.0000     4.0000 </r>
       <r>    -0.7158     0.0000     4.0000 </r>
       <r>    -0.5188     0.0000     4.0000 </r>
       <r>    -0.3219     0.0000     4.0000 </r>
       <r>    -0.1249     0.0000     4.0000 </r>
       <r>     0.0721     0.0000     4.0000 </r>
       <r>     0.2690     0.0000     4.0000 </r>
       <r>     0.4660     0.0000     4.0000 </r>
       <r>     0.6630     0.1121     4.0221 </r>
       <r>     0.8599     1.9300     4.4022 </r>
       <r>     1.0569     4.6875     5.3255 </r>
       <r>     1.2539     3.5847     6.0315 </r>
       <r>     1.4508     3.3350     6.6884 </r>
       <r>     1.6478     1.5736     6.9984 </r>
       <r>     1.8448     1.8781     7.3683 </r>
       <r>     2.0417     1.0741     7.5798 </r>
       <r>     2.2387     0.8700     7.7512 </r>
       <r>     2.4357     0.8438     7.9174 </r>
       <r>     2.6326     0.7899     8.0730 </r>
       <r>     2.8296     0.3943     8.1506 </r>
       <r>     3.0265     0.8307     8.3143 </r>
       <r>     3.2235     0.9684     8.5050 </r>
       <r>     3.4205     0.7928     8.6611 </r>
       <r>     3.6174     1.0983     8.8775 </r>
       <r>     3.8144     1.3371     9.1408 </r>
       <r>     4.0114     0.9741     9.3327 </r>
       <r>     4.2083     1.0396     9.5375 </r>
       <r>     4.4053     1.4092     9.8150 </r>
       <r>     4.6023     1.2799    10.0671 </r>
       <r>     4.7992     1.5428    10.3710 </r>
       <r>     4.9962     1.4035    10.6475 </r>
       <r>     5.1932     1.3822    10.9197 </r>
       <r>     5.3901     1.6412    11.2429 </r>
       <r>     5.5871     1.9560    11.6282 </r>
       <r>     5.7840     1.5004    11.9237 </r>
       <r>     5.9810     1.6848    12.2556 </r>
       <r>     6.1780     1.5945    12.5696 </r>
       <r>     6.3749     1.7220    12.9088 </r>
       <r>     6.5719     1.7969    13.2627 </r>
       <r>     6.7689     1.5344    13.5650 </r>
       <r>     6.9658     1.7762    13.9148 </r>
       <r>     7.1628     1.7662    14.2627 </r>
       <r>     7.3598     1.7798    14.6132 </r>
       <r>     7.5567     2.3226    15.0707 </r>
       <r>     7.7537     2.2985    15.5234 </r>
       <r>     7.9507     1.3027    15.7800 </r>
       <r>     8.1476     1.1488    16.0063 </r>
       <r>     8.3446     1.8025    16.3613 </r>
       <r>     8.5416     1.4147    16.6400 </r>
       <r>     8.7385     1.3519    16.9063 </r>
       <r>     8.9355     1.2279    17.1481 </r>
       <r>     9.1324     2.1037    17.5625 </r>
       <r>     9.3294     2.7314    18.1005 </r>
       <r>     9.5264     1.9506    18.4847 </r>
       <r>     9.7233     1.8488    18.8488 </r>
       <r>     9.9203     1.5238    19.1489 </r>
       <r>    10.1173     1.7979    19.5031 </r>
       <r>    10.3142     0.7466    19.6501 </r>
       <r>    10.5112     1.3634    19.9187 </r>
       <r>    10.7082     1.9507    20.3029 </r>
       <r>    10.9051     1.9769    20.6923 </r>
       <r>    11.1021     1.7715    21.0412 </r>
       <r>    11.2991     1.7786    21.3915 </r>
       <r>    11.4960     2.2757    21.8397 </r>
       <r>    11.6930     1.9015    22.2143 </r>
       <r>    11.8899     1.6585    22.5409 </r>
       <r>    12.0869     1.9403    22.9231 </r>
       <r>    12.2839     1.4644    23.2116 </r>
       <r>    12.4808     1.5806    23.5229 </r>
       <r>    12.6778     1.4472    23.8079 </r>
       <r>    12.8748     1.5179    24.1069 </r>
       <r>    13.0717     2.1906    24.5384 </r>
       <r>    13.2687     1.7924    24.8914 </r>
       <r>    13.4657     2.4867    25.3812 </r>
       <r>    13.6626     1.9813    25.7715 </r>
       <r>    13.8596     2.7567    26.3144 </r>
       <r>    14.0566     1.6449    26.6384 </r>
       <r>    14.2535     1.7757    26.9882 </r>
       <r>    14.4505     2.1840    27.4184 </r>
       <r>    14.6475     2.4237    27.8957 </r>
       <r>    14.8444     1.7948    28.2492 </r>
       <r>    15.0414     2.5461    28.7507 </r>
       <r>    15.2383     2.4084    29.2251 </r>
       <r>    15.4353     1.6545    29.5510 </r>
       <r>    15.6323     1.9781    29.9406 </r>
       <r>    15.8292     1.9422    30.3231 </r>
       <r>    16.0262     2.1366    30.7440 </r>
       <r>    16.2232     1.8462    31.1076 </r>
       <r>    16.4201     2.3999    31.5803 </r>
       <r>    16.6171     2.1795    32.0096 </r>
       <r>    16.8141     2.2192    32.4467 </r>
       <r>    17.0110     2.4664    32.9325 </r>
       <r>    17.2080     3.1412    33.5512 </r>
       <r>    17.4050     1.6822    33.8825 </r>
       <r>    17.6019     1.9728    34.2711 </r>
       <r>    17.7989     1.8578    34.6370 </r>
       <r>    17.9959     1.8038    34.9923 </r>
       <r>    18.1928     2.2488    35.4352 </r>
       <r>    18.3898     2.5629    35.9400 </r>
       <r>    18.5867     1.7407    36.2829 </r>
       <r>    18.7837     2.4938    36.7741 </r>
       <r>    18.9807     2.2593    37.2191 </r>
       <r>    19.1776     2.4083    37.6934 </r>
       <r>    19.3746     2.8071    38.2463 </r>
       <r>    19.5716     1.7217    38.5854 </r>
       <r>    19.7685     2.9628    39.1690 </r>
       <r>    19.9655     2.0052    39.5639 </r>
       <r>    20.1625     1.7718    39.9129 </r>
       <r>    20.3594     3.0376    40.5112 </r>
       <r>    20.5564     2.3500    40.9741 </r>
       <r>    20.7534     2.1755    41.4026 </r>
       <r>    20.9503     2.1547    41.8270 </r>
       <r>    21.1473     2.6677    42.3524 </r>
       <r>    21.3442     2.6818    42.8807 </r>
       <r>    21.5412     2.1159    43.2974 </r>
       <r>    21.7382     2.0346    43.6982 </r>
       <r>    21.9351     2.6257    44.2153 </r>
       <r>    22.1321     1.8154    44.5729 </r>
       <r>    22.3291     2.9151    45.1471 </r>
       <r>    22.5260     2.6143    45.6620 </r>
       <r>    22.7230     2.4398    46.1425 </r>
       <r>    22.9200     2.4013    46.6155 </r>
       <r>    23.1169     2.3999    47.0882 </r>
       <r>    23.3139     2.7130    47.6226 </r>
       <r>    23.5109     2.3768    48.0907 </r>
       <r>    23.7078     2.5689    48.5967 </r>
       <r>    23.9048     2.7879    49.1458 </r>
       <r>    24.1018     2.5731    49.6526 </r>
       <r>    24.2987     1.8663    50.0202 </r>
       <r>    24.4957     2.4207    50.4970 </r>
       <r>    24.6926     2.5662    51.0025 </r>
       <r>    24.8896     2.6973    51.5337 </r>
       <r>    25.0866     2.5257    52.0312 </r>
       <r>    25.2835     2.9484    52.6120 </r>
       <r>    25.4805     2.8640    53.1761 </r>
       <r>    25.6775     2.2509    53.6194 </r>
       <r>    25.8744     2.0135    54.0160 </r>
       <r>    26.0714     3.2097    54.6482 </r>
       <r>    26.2684     3.2970    55.2976 </r>
       <r>    26.4653     2.7490    55.8390 </r>
       <r>    26.6623     2.7897    56.3885 </r>
       <r>    26.8593     2.1848    56.8188 </r>
       <r>    27.0562     2.0154    57.2158 </r>
       <r>    27.2532     1.9190    57.5938 </r>
       <r>    27.4502     2.6493    58.1156 </r>
       <r>    27.6471     2.6574    58.6390 </r>
       <r>    27.8441     2.9916    59.2282 </r>
       <r>    28.0410     3.5590    59.9292 </r>
       <r>    28.2380     2.8458    60.4897 </r>
       <r>    28.4350     2.4081    60.9641 </r>
       <r>    28.6319     2.4707    61.4507 </r>
       <r>    28.8289     2.5818    61.9592 </r>
       <r>    29.0259     2.8006    62.5108 </r>
       <r>    29.2228     3.2938    63.1596 </r>
       <r>    29.4198     3.1745    63.7849 </r>
       <r>    29.6168     2.2502    64.2281 </r>
       <r>    29.8137     1.7494    64.5726 </r>
       <r>    30.0107     1.9386    64.9545 </r>
       <r>    30.2077     2.9482    65.5352 </r>
       <r>    30.4046     2.8441    66.0954 </r>
       <r>    30.6016     3.5325    66.7911 </r>
       <r>    30.7985     2.6435    67.3118 </r>
       <r>    30.9955     4.2942    68.1576 </r>
       <r>    31.1925     2.7066    68.6907 </r>
       <r>    31.3894     2.6146    69.2057 </r>
       <r>    31.5864     2.8005    69.7573 </r>
       <r>    31.7834     2.1662    70.1840 </r>
       <r>    31.9803     3.2145    70.8171 </r>
       <r>    32.1773     2.3889    71.2877 </r>
       <r>    32.3743     2.9417    71.8671 </r>
       <r>    32.5712     3.0924    72.4762 </r>
       <r>    32.7682     2.8414    73.0358 </r>
       <r>    32.9652     2.2001    73.4692 </r>
       <r>    33.1621     3.5323    74.1649 </r>
       <r>    33.3591     2.7441    74.7054 </r>
       <r>    33.5561     3.0749    75.3111 </r>
       <r>    33.7530     2.2950    75.7631 </r>
       <r>    33.9500     3.3118    76.4154 </r>
       <r>    34.1469     3.4587    77.0967 </r>
       <r>    34.3439     3.4585    77.7779 </r>
       <r>    34.5409     2.9565    78.3602 </r>
       <r>    34.7378     2.1223    78.7782 </r>
       <r>    34.9348     3.2378    79.4159 </r>
       <r>    35.1318     2.7153    79.9508 </r>
       <r>    35.3287     3.3446    80.6095 </r>
       <r>    35.5257     2.0521    81.0137 </r>
       <r>    35.7227     2.6542    81.5365 </r>
       <r>    35.9196     2.9179    82.1112 </r>
       <r>    36.1166     3.4372    82.7882 </r>
       <r>    36.3136     3.0299    83.3850 </r>
       <r>    36.5105     3.7310    84.1199 </r>
       <r>    36.7075     3.0558    84.7218 </r>
       <r>    36.9044     2.9947    85.3116 </r>
       <r>    37.1014     2.9327    85.8893 </r>
       <r>    37.2984     3.2869    86.5367 </r>
       <r>    37.4953     3.3618    87.1988 </r>
       <r>    37.6923     2.9569    87.7812 </r>
       <r>    37.8893     2.9780    88.3678 </r>
       <r>    38.0862     3.5552    89.0680 </r>
       <r>    38.2832     2.7606    89.6118 </r>
       <r>    38.4802     2.9834    90.1994 </r>
       <r>    38.6771     2.5300    90.6977 </r>
       <r>    38.8741     2.5185    91.1938 </r>
       <r>    39.0711     3.2250    91.8290 </r>
       <r>    39.2680     2.4051    92.3027 </r>
       <r>    39.4650     3.4011    92.9726 </r>
       <r>    39.6620     2.3694    93.4393 </r>
       <r>    39.8589     2.6830    93.9677 </r>
       <r>    40.0559     2.7790    94.5151 </r>
       <r>    40.2528     2.3236    94.9728 </r>
       <r>    40.4498     1.8479    95.3367 </r>
       <r>    40.6468     1.0456    95.5427 </r>
       <r>    40.8437     0.8697    95.7140 </r>
       <r>    41.0407     0.5678    95.8258 </r>
       <r>    41.2377     0.2476    95.8746 </r>
       <r>    41.4346     0.0427    95.8830 </r>
       <r>    41.6316     0.1757    95.9176 </r>
       <r>    41.8286     0.1451    95.9462 </r>
       <r>    42.0255     0.0290    95.9519 </r>
       <r>    42.2225     0.0562    95.9630 </r>
       <r>    42.4195     0.0360    95.9701 </r>
       <r>    42.6164     0.0479    95.9795 </r>
       <r>    42.8134     0.0571    95.9907 </r>
       <r>    43.0104     0.0000    95.9907 </r>
       <r>    43.2073     0.0137    95.9934 </r>
       <r>    43.4043     0.0212    95.9976 </r>
       <r>    43.6012     0.0122    96.0000 </r>
       <r>    43.7982     0.0000    96.0000 </r>
       <r>    43.9952     0.0000    96.0000 </r>
       <r>    44.1921     0.0000    96.0000 </r>
       <r>    44.3891     0.0000    96.0000 </r>
       <r>    44.5861     0.0000    96.0000 </r>
       <r>    44.7830     0.0000    96.0000 </r>
       <r>    44.9800     0.0000    96.0000 </r>
       <r>    45.1770     0.0000    96.0000 </r>
       <r>    45.3739     0.0000    96.0000 </r>
       <r>    45.5709     0.0000    96.0000 </r>
       <r>    45.7679     0.0000    96.0000 </r>
       <r>    45.9648     0.0000    96.0000 </r>
       <r>    46.1618     0.0000    96.0000 </r>
      </set>
     </set>
    </array>
   </total>
  </dos>
 </calculation>
 <structure name="finalpos" >
  <crystal>
   <varray name="basis" >
    <v>       4.00759000       0.00000000       0.00000000 </v>
    <v>      -2.00379500       3.47067475       0.00000000 </v>
    <v>       0.00000000       0.00000000       5.00307000 </v>
   </varray>
   <i name="volume">     69.58790782 </i>
   <varray name="rec_basis" >
    <v>       0.24952652       0.14406421       0.00000000 </v>
    <v>       0.00000000       0.28812841       0.00000000 </v>
    <v>      -0.00000000      -0.00000000       0.19987728 </v>
   </varray>
  </crystal>
  <varray name="positions" >
   <v>       0.33333333       0.66666667       0.17498000 </v>
   <v>       0.66666667       0.33333333       0.82502000 </v>
   <v>       0.66666667       0.33333333       0.67498000 </v>
   <v>       0.33333333       0.66666667       0.32502000 </v>
  </varray>
 </structure>
</modeling>
