Au                                      
   1.00000000000000     
     4.174100    0.000000    0.000000
     0.000000    4.174100    0.000000
     0.000000    0.000000    4.174100
   Au
     4
Direct
  0.000000  0.000000  0.000000
  0.000000  0.500000  0.500000
  0.500000  0.000000  0.500000
  0.500000  0.500000  0.000000
 
   36   36   36
  353.82      341.22      308.59      266.94      224.55      183.21      141.76      101.49      66.953      42.228    
  27.399      18.787      13.557      10.524      8.7261      7.5879      6.8790      6.5157      6.4113      6.5157    
  6.8790      7.5879      8.7261      10.524      13.557      18.787      27.399      42.228      66.953      101.49    
  141.76      183.21      224.55      266.94      308.59      341.22      341.22      329.49      299.00      259.70    
  219.07      178.79      138.10      98.673      65.084      41.205      26.925      18.567      13.486      10.534    
  8.7798      7.6666      6.9730      6.6177      6.5157      6.6177      6.9730      7.6666      8.7798      10.534    
  13.486      18.567      26.925      41.205      65.084      98.673      138.10      178.79      219.07      259.70    
  299.00      329.49      308.59      299.00      273.72      240.12      203.77      166.18      127.64      90.682    
  59.855      38.383      25.621      17.972      13.318      10.604      8.9802      7.9455      7.3016      6.9730    
  6.8790      6.9730      7.3016      7.9455      8.9802      10.604      13.318      17.972      25.621      38.383    
  59.855      90.682      127.64      166.18      203.77      240.12      273.72      299.00      266.94      259.70    
  240.12      212.75      181.17      146.98      111.75      78.812      52.307      34.413      23.773      17.166    
  13.159      10.813      9.4004      8.5004      7.9455      7.6666      7.5879      7.6666      7.9455      8.5004    
  9.4004      10.813      13.159      17.166      23.773      34.413      52.307      78.812      111.75      146.98    
  181.17      212.75      240.12      259.70      224.55      219.07      203.77      181.17      153.66      123.24    
  92.488      64.958      43.861      30.102      21.706      16.355      13.131      11.241      10.108      9.4004    
  8.9802      8.7798      8.7261      8.7798      8.9802      9.4004      10.108      11.241      13.131      16.355    
  21.706      30.102      43.861      64.958      92.488      123.24      153.66      181.17      203.77      219.07    
  183.21      178.79      166.18      146.98      123.24      97.387      72.369      51.237      35.909      26.102    
  19.764      15.750      13.371      12.011      11.241      10.813      10.604      10.534      10.524      10.534    
  10.604      10.813      11.241      12.011      13.371      15.750      19.764      26.102      35.909      51.237    
  72.369      97.387      123.24      146.98      166.18      178.79      141.76      138.10      127.64      111.75    
  92.488      72.369      54.015      39.467      29.371      22.689      18.252      15.563      14.081      13.371    
  13.131      13.159      13.318      13.486      13.557      13.486      13.318      13.159      13.131      13.371    
  14.081      15.563      18.252      22.689      29.371      39.467      54.015      72.369      92.488      111.75    
  127.64      138.10      101.49      98.673      90.682      78.812      64.958      51.237      39.467      30.604    
  24.393      20.078      17.406      16.021      15.563      15.750      16.355      17.166      17.972      18.567    
  18.787      18.567      17.972      17.166      16.355      15.750      15.563      16.021      17.406      20.078    
  24.393      30.604      39.467      51.237      64.958      78.812      90.682      98.673      66.953      65.084    
  59.855      52.307      43.861      35.909      29.371      24.393      20.751      18.466      17.416      17.406    
  18.252      19.764      21.706      23.773      25.621      26.925      27.399      26.925      25.621      23.773    
  21.706      19.764      18.252      17.406      17.416      18.466      20.751      24.393      29.371      35.909    
  43.861      52.307      59.855      65.084      42.228      41.205      38.383      34.413      30.102      26.102    
  22.689      20.078      18.466      17.925      18.466      20.078      22.689      26.102      30.102      34.413    
  38.383      41.205      42.228      41.205      38.383      34.413      30.102      26.102      22.689      20.078    
  18.466      17.925      18.466      20.078      22.689      26.102      30.102      34.413      38.383      41.205    
  27.399      26.925      25.621      23.773      21.706      19.764      18.252      17.406      17.416      18.466    
  20.751      24.393      29.371      35.909      43.861      52.307      59.855      65.084      66.953      65.084    
  59.855      52.307      43.861      35.909      29.371      24.393      20.751      18.466      17.416      17.406    
  18.252      19.764      21.706      23.773      25.621      26.925      18.787      18.567      17.972      17.166    
  16.355      15.750      15.563      16.021      17.406      20.078      24.393      30.604      39.467      51.237    
  64.958      78.812      90.682      98.673      101.49      98.673      90.682      78.812      64.958      51.237    
  39.467      30.604      24.393      20.078      17.406      16.021      15.563      15.750      16.355      17.166    
  17.972      18.567      13.557      13.486      13.318      13.159      13.131      13.371      14.081      15.563    
  18.252      22.689      29.371      39.467      54.015      72.369      92.488      111.75      127.64      138.10    
  141.76      138.10      127.64      111.75      92.488      72.369      54.015      39.467      29.371      22.689    
  18.252      15.563      14.081      13.371      13.131      13.159      13.318      13.486      10.524      10.534    
  10.604      10.813      11.241      12.011      13.371      15.750      19.764      26.102      35.909      51.237    
  72.369      97.387      123.24      146.98      166.18      178.79      183.21      178.79      166.18      146.98    
  123.24      97.387      72.369      51.237      35.909      26.102      19.764      15.750      13.371      12.011    
  11.241      10.813      10.604      10.534      8.7261      8.7798      8.9802      9.4004      10.108      11.241    
  13.131      16.355      21.706      30.102      43.861      64.958      92.488      123.24      153.66      181.17    
  203.77      219.07      224.55      219.07      203.77      181.17      153.66      123.24      92.488      64.958    
  43.861      30.102      21.706      16.355      13.131      11.241      10.108      9.4004      8.9802      8.7798    
  7.5879      7.6666      7.9455      8.5004      9.4004      10.813      13.159      17.166      23.773      34.413    
  52.307      78.812      111.75      146.98      181.17      212.75      240.12      259.70      266.94      259.70    
  240.12      212.75      181.17      146.98      111.75      78.812      52.307      34.413      23.773      17.166    
  13.159      10.813      9.4004      8.5004      7.9455      7.6666      6.8790      6.9730      7.3016      7.9455    
  8.9802      10.604      13.318      17.972      25.621      38.383      59.855      90.682      127.64      166.18    
  203.77      240.12      273.72      299.00      308.59      299.00      273.72      240.12      203.77      166.18    
  127.64      90.682      59.855      38.383      25.621      17.972      13.318      10.604      8.9802      7.9455    
  7.3016      6.9730      6.5157      6.6177      6.9730      7.6666      8.7798      10.534      13.486      18.567    
  26.925      41.205      65.084      98.673      138.10      178.79      219.07      259.70      299.00      329.49    
  341.22      329.49      299.00      259.70      219.07      178.79      138.10      98.673      65.084      41.205    
  26.925      18.567      13.486      10.534      8.7798      7.6666      6.9730      6.6177      6.4113      6.5157    
  6.8790      7.5879      8.7261      10.524      13.557      18.787      27.399      42.228      66.953      101.49    
  141.76      183.21      224.55      266.94      308.59      341.22      353.82      341.22      308.59      266.94    
  224.55      183.21      141.76      101.49      66.953      42.228      27.399      18.787      13.557      10.524    
  8.7261      7.5879      6.8790      6.5157      6.5157      6.6177      6.9730      7.6666      8.7798      10.534    
  13.486      18.567      26.925      41.205      65.084      98.673      138.10      178.79      219.07      259.70    
  299.00      329.49      341.22      329.49      299.00      259.70      219.07      178.79      138.10      98.673    
  65.084      41.205      26.925      18.567      13.486      10.534      8.7798      7.6666      6.9730      6.6177    
  6.8790      6.9730      7.3016      7.9455      8.9802      10.604      13.318      17.972      25.621      38.383    
  59.855      90.682      127.64      166.18      203.77      240.12      273.72      299.00      308.59      299.00    
  273.72      240.12      203.77      166.18      127.64      90.682      59.855      38.383      25.621      17.972    
  13.318      10.604      8.9802      7.9455      7.3016      6.9730      7.5879      7.6666      7.9455      8.5004    
  9.4004      10.813      13.159      17.166      23.773      34.413      52.307      78.812      111.75      146.98    
  181.17      212.75      240.12      259.70      266.94      259.70      240.12      212.75      181.17      146.98    
  111.75      78.812      52.307      34.413      23.773      17.166      13.159      10.813      9.4004      8.5004    
  7.9455      7.6666      8.7261      8.7798      8.9802      9.4004      10.108      11.241      13.131      16.355    
  21.706      30.102      43.861      64.958      92.488      123.24      153.66      181.17      203.77      219.07    
  224.55      219.07      203.77      181.17      153.66      123.24      92.488      64.958      43.861      30.102    
  21.706      16.355      13.131      11.241      10.108      9.4004      8.9802      8.7798      10.524      10.534    
  10.604      10.813      11.241      12.011      13.371      15.750      19.764      26.102      35.909      51.237    
  72.369      97.387      123.24      146.98      166.18      178.79      183.21      178.79      166.18      146.98    
  123.24      97.387      72.369      51.237      35.909      26.102      19.764      15.750      13.371      12.011    
  11.241      10.813      10.604      10.534      13.557      13.486      13.318      13.159      13.131      13.371    
  14.081      15.563      18.252      22.689      29.371      39.467      54.015      72.369      92.488      111.75    
  127.64      138.10      141.76      138.10      127.64      111.75      92.488      72.369      54.015      39.467    
  29.371      22.689      18.252      15.563      14.081      13.371      13.131      13.159      13.318      13.486    
  18.787      18.567      17.972      17.166      16.355      15.750      15.563      16.021      17.406      20.078    
  24.393      30.604      39.467      51.237      64.958      78.812      90.682      98.673      101.49      98.673    
  90.682      78.812      64.958      51.237      39.467      30.604      24.393      20.078      17.406      16.021    
  15.563      15.750      16.355      17.166      17.972      18.567      27.399      26.925      25.621      23.773    
  21.706      19.764      18.252      17.406      17.416      18.466      20.751      24.393      29.371      35.909    
  43.861      52.307      59.855      65.084      66.953      65.084      59.855      52.307      43.861      35.909    
  29.371      24.393      20.751      18.466      17.416      17.406      18.252      19.764      21.706      23.773    
  25.621      26.925      42.228      41.205      38.383      34.413      30.102      26.102      22.689      20.078    
  18.466      17.925      18.466      20.078      22.689      26.102      30.102      34.413      38.383      41.205    
  42.228      41.205      38.383      34.413      30.102      26.102      22.689      20.078      18.466      17.925    
  18.466      20.078      22.689      26.102      30.102      34.413      38.383      41.205      66.953      65.084    
  59.855      52.307      43.861      35.909      29.371      24.393      20.751      18.466      17.416      17.406    
  18.252      19.764      21.706      23.773      25.621      26.925      27.399      26.925      25.621      23.773    
  21.706      19.764      18.252      17.406      17.416      18.466      20.751      24.393      29.371      35.909    
  43.861      52.307      59.855      65.084      101.49      98.673      90.682      78.812      64.958      51.237    
  39.467      30.604      24.393      20.078      17.406      16.021      15.563      15.750      16.355      17.166    
  17.972      18.567      18.787      18.567      17.972      17.166      16.355      15.750      15.563      16.021    
  17.406      20.078      24.393      30.604      39.467      51.237      64.958      78.812      90.682      98.673    
  141.76      138.10      127.64      111.75      92.488      72.369      54.015      39.467      29.371      22.689    
  18.252      15.563      14.081      13.371      13.131      13.159      13.318      13.486      13.557      13.486    
  13.318      13.159      13.131      13.371      14.081      15.563      18.252      22.689      29.371      39.467    
  54.015      72.369      92.488      111.75      127.64      138.10      183.21      178.79      166.18      146.98    
  123.24      97.387      72.369      51.237      35.909      26.102      19.764      15.750      13.371      12.011    
  11.241      10.813      10.604      10.534      10.524      10.534      10.604      10.813      11.241      12.011    
  13.371      15.750      19.764      26.102      35.909      51.237      72.369      97.387      123.24      146.98    
  166.18      178.79      224.55      219.07      203.77      181.17      153.66      123.24      92.488      64.958    
  43.861      30.102      21.706      16.355      13.131      11.241      10.108      9.4004      8.9802      8.7798    
  8.7261      8.7798      8.9802      9.4004      10.108      11.241      13.131      16.355      21.706      30.102    
  43.861      64.958      92.488      123.24      153.66      181.17      203.77      219.07      266.94      259.70    
  240.12      212.75      181.17      146.98      111.75      78.812      52.307      34.413      23.773      17.166    
  13.159      10.813      9.4004      8.5004      7.9455      7.6666      7.5879      7.6666      7.9455      8.5004    
  9.4004      10.813      13.159      17.166      23.773      34.413      52.307      78.812      111.75      146.98    
  181.17      212.75      240.12      259.70      308.59      299.00      273.72      240.12      203.77      166.18    
  127.64      90.682      59.855      38.383      25.621      17.972      13.318      10.604      8.9802      7.9455    
  7.3016      6.9730      6.8790      6.9730      7.3016      7.9455      8.9802      10.604      13.318      17.972    
  25.621      38.383      59.855      90.682      127.64      166.18      203.77      240.12      273.72      299.00    
  341.22      329.49      299.00      259.70      219.07      178.79      138.10      98.673      65.084      41.205    
  26.925      18.567      13.486      10.534      8.7798      7.6666      6.9730      6.6177      6.5157      6.6177    
  6.9730      7.6666      8.7798      10.534      13.486      18.567      26.925      41.205      65.084      98.673    
  138.10      178.79      219.07      259.70      299.00      329.49      341.22      329.49      299.00      259.70    
  219.07      178.79      138.10      98.673      65.084      41.205      26.925      18.567      13.486      10.534    
  8.7798      7.6666      6.9730      6.6177      6.5157      6.6177      6.9730      7.6666      8.7798      10.534    
  13.486      18.567      26.925      41.205      65.084      98.673      138.10      178.79      219.07      259.70    
  299.00      329.49      329.49      318.56      289.99      252.81      213.77      174.47      134.52      95.927    
  63.273      40.219      26.466      18.352      13.415      10.543      8.8313      7.7429      7.0646      6.7173    
  6.6177      6.7173      7.0646      7.7429      8.8313      10.543      13.415      18.352      26.466      40.219    
  63.273      95.927      134.52      174.47      213.77      252.81      289.99      318.56      299.00      289.99    
  266.13      234.09      198.92      162.12      124.28      88.142      58.212      37.500      25.200      17.770    
  13.249      10.609      9.0246      8.0139      7.3851      7.0646      6.9730      7.0646      7.3851      8.0139    
  9.0246      10.609      13.249      17.770      25.200      37.500      58.212      88.142      124.28      162.12    
  198.92      234.09      266.13      289.99      259.70      252.81      234.09      207.66      176.85      143.29    
  108.73      76.596      50.916      33.675      23.399      16.981      13.091      10.809      9.4318      8.5542    
  8.0139      7.7429      7.6666      7.7429      8.0139      8.5542      9.4318      10.809      13.091      16.981    
  23.399      33.675      50.916      76.596      108.73      143.29      176.85      207.66      234.09      252.81    
  219.07      213.77      198.92      176.85      149.87      120.00      89.921      63.153      42.768      29.518    
  21.383      16.189      13.059      11.223      10.120      9.4318      9.0246      8.8313      8.7798      8.8313    
  9.0246      9.4318      10.120      11.223      13.059      16.189      21.383      29.518      42.768      63.153    
  89.921      120.00      149.87      176.85      198.92      213.77      178.79      174.47      162.12      143.29    
  120.00      94.707      70.344      49.881      35.108      25.647      19.492      15.599      13.290      11.970    
  11.223      10.809      10.609      10.543      10.534      10.543      10.609      10.809      11.223      11.970    
  13.290      15.599      19.492      25.647      35.108      49.881      70.344      94.707      120.00      143.29    
  162.12      174.47      138.10      134.52      124.28      108.73      89.921      70.344      52.564      38.532    
  28.807      22.326      18.022      15.415      13.978      13.290      13.059      13.091      13.249      13.415    
  13.486      13.415      13.249      13.091      13.059      13.290      13.978      15.415      18.022      22.326    
  28.807      38.532      52.564      70.344      89.921      108.73      124.28      134.52      98.673      95.927    
  88.142      76.596      63.153      49.881      38.532      29.995      23.978      19.790      17.201      15.858    
  15.415      15.599      16.189      16.981      17.770      18.352      18.567      18.352      17.770      16.981    
  16.189      15.599      15.415      15.858      17.201      19.790      23.978      29.995      38.532      49.881    
  63.153      76.596      88.142      95.927      65.084      63.273      58.212      50.916      42.768      35.108    
  28.807      23.978      20.442      18.228      17.210      17.201      18.022      19.492      21.383      23.399    
  25.200      26.466      26.925      26.466      25.200      23.399      21.383      19.492      18.022      17.201    
  17.210      18.228      20.442      23.978      28.807      35.108      42.768      50.916      58.212      63.273    
  41.205      40.219      37.500      33.675      29.518      25.647      22.326      19.790      18.228      17.703    
  18.228      19.790      22.326      25.647      29.518      33.675      37.500      40.219      41.205      40.219    
  37.500      33.675      29.518      25.647      22.326      19.790      18.228      17.703      18.228      19.790    
  22.326      25.647      29.518      33.675      37.500      40.219      26.925      26.466      25.200      23.399    
  21.383      19.492      18.022      17.201      17.210      18.228      20.442      23.978      28.807      35.108    
  42.768      50.916      58.212      63.273      65.084      63.273      58.212      50.916      42.768      35.108    
  28.807      23.978      20.442      18.228      17.210      17.201      18.022      19.492      21.383      23.399    
  25.200      26.466      18.567      18.352      17.770      16.981      16.189      15.599      15.415      15.858    
  17.201      19.790      23.978      29.995      38.532      49.881      63.153      76.596      88.142      95.927    
  98.673      95.927      88.142      76.596      63.153      49.881      38.532      29.995      23.978      19.790    
  17.201      15.858      15.415      15.599      16.189      16.981      17.770      18.352      13.486      13.415    
  13.249      13.091      13.059      13.290      13.978      15.415      18.022      22.326      28.807      38.532    
  52.564      70.344      89.921      108.73      124.28      134.52      138.10      134.52      124.28      108.73    
  89.921      70.344      52.564      38.532      28.807      22.326      18.022      15.415      13.978      13.290    
  13.059      13.091      13.249      13.415      10.534      10.543      10.609      10.809      11.223      11.970    
  13.290      15.599      19.492      25.647      35.108      49.881      70.344      94.707      120.00      143.29    
  162.12      174.47      178.79      174.47      162.12      143.29      120.00      94.707      70.344      49.881    
  35.108      25.647      19.492      15.599      13.290      11.970      11.223      10.809      10.609      10.543    
  8.7798      8.8313      9.0246      9.4318      10.120      11.223      13.059      16.189      21.383      29.518    
  42.768      63.153      89.921      120.00      149.87      176.85      198.92      213.77      219.07      213.77    
  198.92      176.85      149.87      120.00      89.921      63.153      42.768      29.518      21.383      16.189    
  13.059      11.223      10.120      9.4318      9.0246      8.8313      7.6666      7.7429      8.0139      8.5542    
  9.4318      10.809      13.091      16.981      23.399      33.675      50.916      76.596      108.73      143.29    
  176.85      207.66      234.09      252.81      259.70      252.81      234.09      207.66      176.85      143.29    
  108.73      76.596      50.916      33.675      23.399      16.981      13.091      10.809      9.4318      8.5542    
  8.0139      7.7429      6.9730      7.0646      7.3851      8.0139      9.0246      10.609      13.249      17.770    
  25.200      37.500      58.212      88.142      124.28      162.12      198.92      234.09      266.13      289.99    
  299.00      289.99      266.13      234.09      198.92      162.12      124.28      88.142      58.212      37.500    
  25.200      17.770      13.249      10.609      9.0246      8.0139      7.3851      7.0646      6.6177      6.7173    
  7.0646      7.7429      8.8313      10.543      13.415      18.352      26.466      40.219      63.273      95.927    
  134.52      174.47      213.77      252.81      289.99      318.56      329.49      318.56      289.99      252.81    
  213.77      174.47      134.52      95.927      63.273      40.219      26.466      18.352      13.415      10.543    
  8.8313      7.7429      7.0646      6.7173      6.5157      6.6177      6.9730      7.6666      8.7798      10.534    
  13.486      18.567      26.925      41.205      65.084      98.673      138.10      178.79      219.07      259.70    
  299.00      329.49      341.22      329.49      299.00      259.70      219.07      178.79      138.10      98.673    
  65.084      41.205      26.925      18.567      13.486      10.534      8.7798      7.6666      6.9730      6.6177    
  6.6177      6.7173      7.0646      7.7429      8.8313      10.543      13.415      18.352      26.466      40.219    
  63.273      95.927      134.52      174.47      213.77      252.81      289.99      318.56      329.49      318.56    
  289.99      252.81      213.77      174.47      134.52      95.927      63.273      40.219      26.466      18.352    
  13.415      10.543      8.8313      7.7429      7.0646      6.7173      6.9730      7.0646      7.3851      8.0139    
  9.0246      10.609      13.249      17.770      25.200      37.500      58.212      88.142      124.28      162.12    
  198.92      234.09      266.13      289.99      299.00      289.99      266.13      234.09      198.92      162.12    
  124.28      88.142      58.212      37.500      25.200      17.770      13.249      10.609      9.0246      8.0139    
  7.3851      7.0646      7.6666      7.7429      8.0139      8.5542      9.4318      10.809      13.091      16.981    
  23.399      33.675      50.916      76.596      108.73      143.29      176.85      207.66      234.09      252.81    
  259.70      252.81      234.09      207.66      176.85      143.29      108.73      76.596      50.916      33.675    
  23.399      16.981      13.091      10.809      9.4318      8.5542      8.0139      7.7429      8.7798      8.8313    
  9.0246      9.4318      10.120      11.223      13.059      16.189      21.383      29.518      42.768      63.153    
  89.921      120.00      149.87      176.85      198.92      213.77      219.07      213.77      198.92      176.85    
  149.87      120.00      89.921      63.153      42.768      29.518      21.383      16.189      13.059      11.223    
  10.120      9.4318      9.0246      8.8313      10.534      10.543      10.609      10.809      11.223      11.970    
  13.290      15.599      19.492      25.647      35.108      49.881      70.344      94.707      120.00      143.29    
  162.12      174.47      178.79      174.47      162.12      143.29      120.00      94.707      70.344      49.881    
  35.108      25.647      19.492      15.599      13.290      11.970      11.223      10.809      10.609      10.543    
  13.486      13.415      13.249      13.091      13.059      13.290      13.978      15.415      18.022      22.326    
  28.807      38.532      52.564      70.344      89.921      108.73      124.28      134.52      138.10      134.52    
  124.28      108.73      89.921      70.344      52.564      38.532      28.807      22.326      18.022      15.415    
  13.978      13.290      13.059      13.091      13.249      13.415      18.567      18.352      17.770      16.981    
  16.189      15.599      15.415      15.858      17.201      19.790      23.978      29.995      38.532      49.881    
  63.153      76.596      88.142      95.927      98.673      95.927      88.142      76.596      63.153      49.881    
  38.532      29.995      23.978      19.790      17.201      15.858      15.415      15.599      16.189      16.981    
  17.770      18.352      26.925      26.466      25.200      23.399      21.383      19.492      18.022      17.201    
  17.210      18.228      20.442      23.978      28.807      35.108      42.768      50.916      58.212      63.273    
  65.084      63.273      58.212      50.916      42.768      35.108      28.807      23.978      20.442      18.228    
  17.210      17.201      18.022      19.492      21.383      23.399      25.200      26.466      41.205      40.219    
  37.500      33.675      29.518      25.647      22.326      19.790      18.228      17.703      18.228      19.790    
  22.326      25.647      29.518      33.675      37.500      40.219      41.205      40.219      37.500      33.675    
  29.518      25.647      22.326      19.790      18.228      17.703      18.228      19.790      22.326      25.647    
  29.518      33.675      37.500      40.219      65.084      63.273      58.212      50.916      42.768      35.108    
  28.807      23.978      20.442      18.228      17.210      17.201      18.022      19.492      21.383      23.399    
  25.200      26.466      26.925      26.466      25.200      23.399      21.383      19.492      18.022      17.201    
  17.210      18.228      20.442      23.978      28.807      35.108      42.768      50.916      58.212      63.273    
  98.673      95.927      88.142      76.596      63.153      49.881      38.532      29.995      23.978      19.790    
  17.201      15.858      15.415      15.599      16.189      16.981      17.770      18.352      18.567      18.352    
  17.770      16.981      16.189      15.599      15.415      15.858      17.201      19.790      23.978      29.995    
  38.532      49.881      63.153      76.596      88.142      95.927      138.10      134.52      124.28      108.73    
  89.921      70.344      52.564      38.532      28.807      22.326      18.022      15.415      13.978      13.290    
  13.059      13.091      13.249      13.415      13.486      13.415      13.249      13.091      13.059      13.290    
  13.978      15.415      18.022      22.326      28.807      38.532      52.564      70.344      89.921      108.73    
  124.28      134.52      178.79      174.47      162.12      143.29      120.00      94.707      70.344      49.881    
  35.108      25.647      19.492      15.599      13.290      11.970      11.223      10.809      10.609      10.543    
  10.534      10.543      10.609      10.809      11.223      11.970      13.290      15.599      19.492      25.647    
  35.108      49.881      70.344      94.707      120.00      143.29      162.12      174.47      219.07      213.77    