Au                                      
   1.00000000000000     
     4.174100    0.000000    0.000000
     0.000000    4.174100    0.000000
     0.000000    0.000000    4.174100
   Au
     4
Direct
  0.000000  0.000000  0.000000
  0.000000  0.500000  0.500000
  0.500000  0.000000  0.500000
  0.500000  0.500000  0.000000
 
   36   36   36
 0.35381545212E+03 0.34121923199E+03 0.30859313085E+03 0.26694109033E+03 0.22455274585E+03
 0.18320703805E+03 0.14175751116E+03 0.10148944912E+03 0.66953245693E+02 0.42227809635E+02
 0.27399040783E+02 0.18786946176E+02 0.13556701498E+02 0.10523774485E+02 0.87260530927E+01
 0.75878664541E+01 0.68790352418E+01 0.65156775087E+01 0.64112890899E+01 0.65156775087E+01
 0.68790352418E+01 0.75878664541E+01 0.87260530927E+01 0.10523774485E+02 0.13556701498E+02
 0.18786946176E+02 0.27399040783E+02 0.42227809635E+02 0.66953245693E+02 0.10148944912E+03
 0.14175751116E+03 0.18320703805E+03 0.22455274585E+03 0.26694109033E+03 0.30859313085E+03
 0.34121923199E+03 0.34121923199E+03 0.32949451448E+03 0.29900214756E+03 0.25970069562E+03
 0.21907205077E+03 0.17878965973E+03 0.13810381186E+03 0.98672662142E+02 0.65083675463E+02
 0.41204847415E+02 0.26925041879E+02 0.18567127398E+02 0.13485578762E+02 0.10534224089E+02
 0.87797724585E+01 0.76665672241E+01 0.69730195703E+01 0.66176994729E+01 0.65156775087E+01
 0.66176996561E+01 0.69730197988E+01 0.76665673381E+01 0.87797724060E+01 0.10534223972E+02
 0.13485578775E+02 0.18567127693E+02 0.26925042418E+02 0.41204847950E+02 0.65083675715E+02
 0.98672662033E+02 0.13810381159E+03 0.17878965956E+03 0.21907205080E+03 0.25970069572E+03
 0.29900214759E+03 0.32949451444E+03 0.30859313085E+03 0.29900214756E+03 0.27371638353E+03
 0.24012095762E+03 0.20376965432E+03 0.16617971785E+03 0.12764004364E+03 0.90681590809E+02
 0.59854559279E+02 0.38383271322E+02 0.25620614096E+02 0.17971981559E+02 0.13317824842E+02
 0.10604270594E+02 0.89801971190E+01 0.79454984116E+01 0.73015801822E+01 0.69730195696E+01
 0.68790352418E+01 0.69730197994E+01 0.73015804348E+01 0.79454984548E+01 0.89801968943E+01
 0.10604270283E+02 0.13317824770E+02 0.17971981976E+02 0.25620614940E+02 0.38383272169E+02
 0.59854559641E+02 0.90681590536E+02 0.12764004306E+03 0.16617971747E+03 0.20376965433E+03
 0.24012095784E+03 0.27371638368E+03 0.29900214759E+03 0.26694109033E+03 0.25970069561E+03
 0.24012095761E+03 0.21274993261E+03 0.18116974978E+03 0.14698126631E+03 0.11174996530E+03
 0.78811546749E+02 0.52306569625E+02 0.34413179233E+02 0.23772865111E+02 0.17165693957E+02
 0.13159395668E+02 0.10813351157E+02 0.94003832812E+01 0.85003792451E+01 0.79454984098E+01
 0.76665672223E+01 0.75878664541E+01 0.76665673395E+01 0.79454984558E+01 0.85003790212E+01
 0.94003827678E+01 0.10813350571E+02 0.13159395365E+02 0.17165694219E+02 0.23772865888E+02
 0.34413180050E+02 0.52306569904E+02 0.78811546272E+02 0.11174996441E+03 0.14698126561E+03
 0.18116974960E+03 0.21274993280E+03 0.24012095785E+03 0.25970069573E+03 0.22455274585E+03
 0.21907205076E+03 0.20376965431E+03 0.18116974977E+03 0.15366328127E+03 0.12324308013E+03
 0.92488185304E+02 0.64958066505E+02 0.43861213118E+02 0.30102137856E+02 0.21706352836E+02
 0.16354903361E+02 0.13130822173E+02 0.11241445287E+02 0.10108072188E+02 0.94003832799E+01
 0.89801971163E+01 0.87797724564E+01 0.87260530927E+01 0.87797724072E+01 0.89801968945E+01
 0.94003827664E+01 0.10108071399E+02 0.11241444416E+02 0.13130821523E+02 0.16354903200E+02
 0.21706353179E+02 0.30102138329E+02 0.43861213173E+02 0.64958065865E+02 0.92488184189E+02
 0.12324307907E+03 0.15366328066E+03 0.18116974961E+03 0.20376965435E+03 0.21907205082E+03
 0.18320703805E+03 0.17878965972E+03 0.16617971784E+03 0.14698126630E+03 0.12324308013E+03
 0.97387462684E+02 0.72369363351E+02 0.51237239849E+02 0.35909170335E+02 0.26101938418E+02
 0.19763970955E+02 0.15750486639E+02 0.13371108062E+02 0.12010909761E+02 0.11241445290E+02
 0.10813351159E+02 0.10604270593E+02 0.10534224089E+02 0.10523774485E+02 0.10534223971E+02
 0.10604270278E+02 0.10813350564E+02 0.11241444409E+02 0.12010908702E+02 0.13371107040E+02
 0.15750485902E+02 0.19763970630E+02 0.26101938342E+02 0.35909170104E+02 0.51237239149E+02
 0.72369362203E+02 0.97387461411E+02 0.12324307908E+03 0.14698126563E+03 0.16617971749E+03
 0.17878965958E+03 0.14175751116E+03 0.13810381186E+03 0.12764004363E+03 0.11174996530E+03
 0.92488185310E+02 0.72369363359E+02 0.54015384301E+02 0.39466984471E+02 0.29371196572E+02
 0.22688981393E+02 0.18251950285E+02 0.15562799688E+02 0.14080812050E+02 0.13371108070E+02
 0.13130822184E+02 0.13159395677E+02 0.13317824849E+02 0.13485578766E+02 0.13556701498E+02
 0.13485578770E+02 0.13317824757E+02 0.13159395347E+02 0.13130821505E+02 0.13371107028E+02
 0.14080810770E+02 0.15562798413E+02 0.18251949260E+02 0.22688980695E+02 0.29371196020E+02
 0.39466983780E+02 0.54015383332E+02 0.72369362203E+02 0.92488184195E+02 0.11174996443E+03
 0.12764004307E+03 0.13810381160E+03 0.10148944912E+03 0.98672662145E+02 0.90681590820E+02
 0.78811546767E+02 0.64958066528E+02 0.51237239870E+02 0.39466984483E+02 0.30603783044E+02
 0.24392833275E+02 0.20078081448E+02 0.17406354754E+02 0.16020518520E+02 0.15562799700E+02
 0.15750486659E+02 0.16354903384E+02 0.17165693980E+02 0.17971981576E+02 0.18567127408E+02
 0.18786946176E+02 0.18567127682E+02 0.17971981953E+02 0.17165694189E+02 0.16354903168E+02
 0.15750485878E+02 0.15562798400E+02 0.16020516932E+02 0.17406353198E+02 0.20078080178E+02
 0.24392832345E+02 0.30603782309E+02 0.39466983772E+02 0.51237239138E+02 0.64958065856E+02
 0.78811546267E+02 0.90681590534E+02 0.98672662032E+02 0.66953245693E+02 0.65083675476E+02
 0.59854559304E+02 0.52306569660E+02 0.43861213155E+02 0.35909170368E+02 0.29371196595E+02
 0.24392833285E+02 0.20750662959E+02 0.18466313996E+02 0.17415806533E+02 0.17406354764E+02
 0.18251950307E+02 0.19763970988E+02 0.21706352873E+02 0.23772865146E+02 0.25620614123E+02
 0.26925041894E+02 0.27399040783E+02 0.26925042402E+02 0.25620614910E+02 0.23772865850E+02
 0.21706353140E+02 0.19763970597E+02 0.18251949238E+02 0.17406353189E+02 0.17415804751E+02
 0.18466312322E+02 0.20750661611E+02 0.24392832337E+02 0.29371196003E+02 0.35909170080E+02
 0.43861213147E+02 0.52306569879E+02 0.59854559621E+02 0.65083675704E+02 0.42227809635E+02
 0.41204847431E+02 0.38383271353E+02 0.34413179273E+02 0.30102137899E+02 0.26101938456E+02
 0.22688981420E+02 0.20078081463E+02 0.18466314000E+02 0.17924817000E+02 0.18466314000E+02
 0.20078081463E+02 0.22688981420E+02 0.26101938456E+02 0.30102137899E+02 0.34413179273E+02
 0.38383271353E+02 0.41204847431E+02 0.42227809635E+02 0.41204847934E+02 0.38383272139E+02
 0.34413180013E+02 0.30102138291E+02 0.26101938310E+02 0.22688980672E+02 0.20078080166E+02
 0.18466312319E+02 0.17924815179E+02 0.18466312319E+02 0.20078080166E+02 0.22688980672E+02
 0.26101938310E+02 0.30102138291E+02 0.34413180013E+02 0.38383272139E+02 0.41204847934E+02
 0.27399040783E+02 0.26925041894E+02 0.25620614123E+02 0.23772865146E+02 0.21706352873E+02
 0.19763970988E+02 0.18251950307E+02 0.17406354764E+02 0.17415806533E+02 0.18466313996E+02
 0.20750662959E+02 0.24392833285E+02 0.29371196595E+02 0.35909170368E+02 0.43861213155E+02
 0.52306569660E+02 0.59854559304E+02 0.65083675476E+02 0.66953245693E+02 0.65083675704E+02
 0.59854559621E+02 0.52306569879E+02 0.43861213147E+02 0.35909170080E+02 0.29371196003E+02
 0.24392832337E+02 0.20750661611E+02 0.18466312322E+02 0.17415804751E+02 0.17406353189E+02
 0.18251949238E+02 0.19763970597E+02 0.21706353140E+02 0.23772865850E+02 0.25620614910E+02
 0.26925042402E+02 0.18786946176E+02 0.18567127408E+02 0.17971981576E+02 0.17165693980E+02
 0.16354903384E+02 0.15750486659E+02 0.15562799700E+02 0.16020518520E+02 0.17406354754E+02
 0.20078081448E+02 0.24392833275E+02 0.30603783044E+02 0.39466984483E+02 0.51237239870E+02
 0.64958066528E+02 0.78811546767E+02 0.90681590820E+02 0.98672662145E+02 0.10148944912E+03
 0.98672662032E+02 0.90681590534E+02 0.78811546267E+02 0.64958065856E+02 0.51237239138E+02
 0.39466983772E+02 0.30603782309E+02 0.24392832345E+02 0.20078080178E+02 0.17406353198E+02
 0.16020516932E+02 0.15562798400E+02 0.15750485878E+02 0.16354903168E+02 0.17165694189E+02
 0.17971981953E+02 0.18567127682E+02 0.13556701498E+02 0.13485578766E+02 0.13317824849E+02
 0.13159395677E+02 0.13130822184E+02 0.13371108070E+02 0.14080812050E+02 0.15562799688E+02
 0.18251950285E+02 0.22688981393E+02 0.29371196572E+02 0.39466984471E+02 0.54015384301E+02
 0.72369363359E+02 0.92488185310E+02 0.11174996530E+03 0.12764004363E+03 0.13810381186E+03
 0.14175751116E+03 0.13810381160E+03 0.12764004307E+03 0.11174996443E+03 0.92488184195E+02
 0.72369362203E+02 0.54015383332E+02 0.39466983780E+02 0.29371196020E+02 0.22688980695E+02
 0.18251949260E+02 0.15562798413E+02 0.14080810770E+02 0.13371107028E+02 0.13130821505E+02
 0.13159395347E+02 0.13317824757E+02 0.13485578770E+02 0.10523774485E+02 0.10534224089E+02
 0.10604270593E+02 0.10813351159E+02 0.11241445290E+02 0.12010909761E+02 0.13371108062E+02
 0.15750486639E+02 0.19763970955E+02 0.26101938418E+02 0.35909170335E+02 0.51237239849E+02
 0.72369363351E+02 0.97387462684E+02 0.12324308013E+03 0.14698126630E+03 0.16617971784E+03
 0.17878965972E+03 0.18320703805E+03 0.17878965958E+03 0.16617971749E+03 0.14698126563E+03
 0.12324307908E+03 0.97387461411E+02 0.72369362203E+02 0.51237239149E+02 0.35909170104E+02
 0.26101938342E+02 0.19763970630E+02 0.15750485902E+02 0.13371107040E+02 0.12010908702E+02
 0.11241444409E+02 0.10813350564E+02 0.10604270278E+02 0.10534223971E+02 0.87260530927E+01
 0.87797724564E+01 0.89801971163E+01 0.94003832799E+01 0.10108072188E+02 0.11241445287E+02
 0.13130822173E+02 0.16354903361E+02 0.21706352836E+02 0.30102137856E+02 0.43861213118E+02
 0.64958066505E+02 0.92488185304E+02 0.12324308013E+03 0.15366328127E+03 0.18116974977E+03
 0.20376965431E+03 0.21907205076E+03 0.22455274585E+03 0.21907205082E+03 0.20376965435E+03
 0.18116974961E+03 0.15366328066E+03 0.12324307907E+03 0.92488184189E+02 0.64958065865E+02
 0.43861213173E+02 0.30102138329E+02 0.21706353179E+02 0.16354903200E+02 0.13130821523E+02
 0.11241444416E+02 0.10108071399E+02 0.94003827664E+01 0.89801968945E+01 0.87797724072E+01
 0.75878664541E+01 0.76665672223E+01 0.79454984098E+01 0.85003792451E+01 0.94003832812E+01
 0.10813351157E+02 0.13159395668E+02 0.17165693957E+02 0.23772865111E+02 0.34413179233E+02
 0.52306569625E+02 0.78811546749E+02 0.11174996530E+03 0.14698126631E+03 0.18116974978E+03
 0.21274993261E+03 0.24012095761E+03 0.25970069561E+03 0.26694109033E+03 0.25970069573E+03
 0.24012095785E+03 0.21274993280E+03 0.18116974960E+03 0.14698126561E+03 0.11174996441E+03
 0.78811546272E+02 0.52306569904E+02 0.34413180050E+02 0.23772865888E+02 0.17165694219E+02
 0.13159395365E+02 0.10813350571E+02 0.94003827678E+01 0.85003790212E+01 0.79454984558E+01
 0.76665673395E+01 0.68790352418E+01 0.69730195696E+01 0.73015801822E+01 0.79454984116E+01
 0.89801971190E+01 0.10604270594E+02 0.13317824842E+02 0.17971981559E+02 0.25620614096E+02
 0.38383271322E+02 0.59854559279E+02 0.90681590809E+02 0.12764004364E+03 0.16617971785E+03
 0.20376965432E+03 0.24012095762E+03 0.27371638353E+03 0.29900214756E+03 0.30859313085E+03
 0.29900214759E+03 0.27371638368E+03 0.24012095784E+03 0.20376965433E+03 0.16617971747E+03
 0.12764004306E+03 0.90681590536E+02 0.59854559641E+02 0.38383272169E+02 0.25620614940E+02
 0.17971981976E+02 0.13317824770E+02 0.10604270283E+02 0.89801968943E+01 0.79454984548E+01
 0.73015804348E+01 0.69730197994E+01 0.65156775087E+01 0.66176994729E+01 0.69730195703E+01
 0.76665672241E+01 0.87797724585E+01 0.10534224089E+02 0.13485578762E+02 0.18567127398E+02
 0.26925041879E+02 0.41204847415E+02 0.65083675463E+02 0.98672662142E+02 0.13810381186E+03
 0.17878965973E+03 0.21907205077E+03 0.25970069562E+03 0.29900214756E+03 0.32949451448E+03
 0.34121923199E+03 0.32949451444E+03 0.29900214759E+03 0.25970069572E+03 0.21907205080E+03
 0.17878965956E+03 0.13810381159E+03 0.98672662033E+02 0.65083675715E+02 0.41204847950E+02
 0.26925042418E+02 0.18567127693E+02 0.13485578775E+02 0.10534223972E+02 0.87797724060E+01
 0.76665673381E+01 0.69730197988E+01 0.66176996561E+01 0.64112890899E+01 0.65156775087E+01
 0.68790352418E+01 0.75878664541E+01 0.87260530927E+01 0.10523774485E+02 0.13556701498E+02
 0.18786946176E+02 0.27399040783E+02 0.42227809635E+02 0.66953245693E+02 0.10148944912E+03
 0.14175751116E+03 0.18320703805E+03 0.22455274585E+03 0.26694109033E+03 0.30859313085E+03
 0.34121923199E+03 0.35381545212E+03 0.34121923199E+03 0.30859313085E+03 0.26694109033E+03
 0.22455274585E+03 0.18320703805E+03 0.14175751116E+03 0.10148944912E+03 0.66953245693E+02
 0.42227809635E+02 0.27399040783E+02 0.18786946176E+02 0.13556701498E+02 0.10523774485E+02
 0.87260530927E+01 0.75878664541E+01 0.68790352418E+01 0.65156775087E+01 0.65156775087E+01
 0.66176996561E+01 0.69730197988E+01 0.76665673381E+01 0.87797724060E+01 0.10534223972E+02
 0.13485578775E+02 0.18567127693E+02 0.26925042418E+02 0.41204847950E+02 0.65083675715E+02
 0.98672662033E+02 0.13810381159E+03 0.17878965956E+03 0.21907205080E+03 0.25970069572E+03
 0.29900214759E+03 0.32949451444E+03 0.34121923199E+03 0.32949451448E+03 0.29900214756E+03
 0.25970069562E+03 0.21907205077E+03 0.17878965973E+03 0.13810381186E+03 0.98672662142E+02
 0.65083675463E+02 0.41204847415E+02 0.26925041879E+02 0.18567127398E+02 0.13485578762E+02
 0.10534224089E+02 0.87797724585E+01 0.76665672241E+01 0.69730195703E+01 0.66176994729E+01
 0.68790352418E+01 0.69730197994E+01 0.73015804348E+01 0.79454984548E+01 0.89801968943E+01
 0.10604270283E+02 0.13317824770E+02 0.17971981976E+02 0.25620614940E+02 0.38383272169E+02
 0.59854559641E+02 0.90681590536E+02 0.12764004306E+03 0.16617971747E+03 0.20376965433E+03
 0.24012095784E+03 0.27371638368E+03 0.29900214759E+03 0.30859313085E+03 0.29900214756E+03
 0.27371638353E+03 0.24012095762E+03 0.20376965432E+03 0.16617971785E+03 0.12764004364E+03
 0.90681590809E+02 0.59854559279E+02 0.38383271322E+02 0.25620614096E+02 0.17971981559E+02
 0.13317824842E+02 0.10604270594E+02 0.89801971190E+01 0.79454984116E+01 0.73015801822E+01
 0.69730195696E+01 0.75878664541E+01 0.76665673395E+01 0.79454984558E+01 0.85003790212E+01
 0.94003827678E+01 0.10813350571E+02 0.13159395365E+02 0.17165694219E+02 0.23772865888E+02
 0.34413180050E+02 0.52306569904E+02 0.78811546272E+02 0.11174996441E+03 0.14698126561E+03
 0.18116974960E+03 0.21274993280E+03 0.24012095785E+03 0.25970069573E+03 0.26694109033E+03
 0.25970069561E+03 0.24012095761E+03 0.21274993261E+03 0.18116974978E+03 0.14698126631E+03
 0.11174996530E+03 0.78811546749E+02 0.52306569625E+02 0.34413179233E+02 0.23772865111E+02
 0.17165693957E+02 0.13159395668E+02 0.10813351157E+02 0.94003832812E+01 0.85003792451E+01
 0.79454984098E+01 0.76665672223E+01 0.87260530927E+01 0.87797724072E+01 0.89801968945E+01
 0.94003827664E+01 0.10108071399E+02 0.11241444416E+02 0.13130821523E+02 0.16354903200E+02
 0.21706353179E+02 0.30102138329E+02 0.43861213173E+02 0.64958065865E+02 0.92488184189E+02
 0.12324307907E+03 0.15366328066E+03 0.18116974961E+03 0.20376965435E+03 0.21907205082E+03
 0.22455274585E+03 0.21907205076E+03 0.20376965431E+03 0.18116974977E+03 0.15366328127E+03
 0.12324308013E+03 0.92488185304E+02 0.64958066505E+02 0.43861213118E+02 0.30102137856E+02
 0.21706352836E+02 0.16354903361E+02 0.13130822173E+02 0.11241445287E+02 0.10108072188E+02
 0.94003832799E+01 0.89801971163E+01 0.87797724564E+01 0.10523774485E+02 0.10534223971E+02
 0.10604270278E+02 0.10813350564E+02 0.11241444409E+02 0.12010908702E+02 0.13371107040E+02
 0.15750485902E+02 0.19763970630E+02 0.26101938342E+02 0.35909170104E+02 0.51237239149E+02
 0.72369362203E+02 0.97387461411E+02 0.12324307908E+03 0.14698126563E+03 0.16617971749E+03
 0.17878965958E+03 0.18320703805E+03 0.17878965972E+03 0.16617971784E+03 0.14698126630E+03
 0.12324308013E+03 0.97387462684E+02 0.72369363351E+02 0.51237239849E+02 0.35909170335E+02
 0.26101938418E+02 0.19763970955E+02 0.15750486639E+02 0.13371108062E+02 0.12010909761E+02
 0.11241445290E+02 0.10813351159E+02 0.10604270593E+02 0.10534224089E+02 0.13556701498E+02
 0.13485578770E+02 0.13317824757E+02 0.13159395347E+02 0.13130821505E+02 0.13371107028E+02
 0.14080810770E+02 0.15562798413E+02 0.18251949260E+02 0.22688980695E+02 0.29371196020E+02
 0.39466983780E+02 0.54015383332E+02 0.72369362203E+02 0.92488184195E+02 0.11174996443E+03
 0.12764004307E+03 0.13810381160E+03 0.14175751116E+03 0.13810381186E+03 0.12764004363E+03
 0.11174996530E+03 0.92488185310E+02 0.72369363359E+02 0.54015384301E+02 0.39466984471E+02
 0.29371196572E+02 0.22688981393E+02 0.18251950285E+02 0.15562799688E+02 0.14080812050E+02
 0.13371108070E+02 0.13130822184E+02 0.13159395677E+02 0.13317824849E+02 0.13485578766E+02
 0.18786946176E+02 0.18567127682E+02 0.17971981953E+02 0.17165694189E+02 0.16354903168E+02
 0.15750485878E+02 0.15562798400E+02 0.16020516932E+02 0.17406353198E+02 0.20078080178E+02
 0.24392832345E+02 0.30603782309E+02 0.39466983772E+02 0.51237239138E+02 0.64958065856E+02
 0.78811546267E+02 0.90681590534E+02 0.98672662032E+02 0.10148944912E+03 0.98672662145E+02
 0.90681590820E+02 0.78811546767E+02 0.64958066528E+02 0.51237239870E+02 0.39466984483E+02
 0.30603783044E+02 0.24392833275E+02 0.20078081448E+02 0.17406354754E+02 0.16020518520E+02
 0.15562799700E+02 0.15750486659E+02 0.16354903384E+02 0.17165693980E+02 0.17971981576E+02
 0.18567127408E+02 0.27399040783E+02 0.26925042402E+02 0.25620614910E+02 0.23772865850E+02
 0.21706353140E+02 0.19763970597E+02 0.18251949238E+02 0.17406353189E+02 0.17415804751E+02
 0.18466312322E+02 0.20750661611E+02 0.24392832337E+02 0.29371196003E+02 0.35909170080E+02
 0.43861213147E+02 0.52306569879E+02 0.59854559621E+02 0.65083675704E+02 0.66953245693E+02
 0.65083675476E+02 0.59854559304E+02 0.52306569660E+02 0.43861213155E+02 0.35909170368E+02
 0.29371196595E+02 0.24392833285E+02 0.20750662959E+02 0.18466313996E+02 0.17415806533E+02
 0.17406354764E+02 0.18251950307E+02 0.19763970988E+02 0.21706352873E+02 0.23772865146E+02
 0.25620614123E+02 0.26925041894E+02 0.42227809635E+02 0.41204847934E+02 0.38383272139E+02
 0.34413180013E+02 0.30102138291E+02 0.26101938310E+02 0.22688980672E+02 0.20078080166E+02
 0.18466312319E+02 0.17924815179E+02 0.18466312319E+02 0.20078080166E+02 0.22688980672E+02
 0.26101938310E+02 0.30102138291E+02 0.34413180013E+02 0.38383272139E+02 0.41204847934E+02
 0.42227809635E+02 0.41204847431E+02 0.38383271353E+02 0.34413179273E+02 0.30102137899E+02
 0.26101938456E+02 0.22688981420E+02 0.20078081463E+02 0.18466314000E+02 0.17924817000E+02
 0.18466314000E+02 0.20078081463E+02 0.22688981420E+02 0.26101938456E+02 0.30102137899E+02
 0.34413179273E+02 0.38383271353E+02 0.41204847431E+02 0.66953245693E+02 0.65083675704E+02
 0.59854559621E+02 0.52306569879E+02 0.43861213147E+02 0.35909170080E+02 0.29371196003E+02
 0.24392832337E+02 0.20750661611E+02 0.18466312322E+02 0.17415804751E+02 0.17406353189E+02
 0.18251949238E+02 0.19763970597E+02 0.21706353140E+02 0.23772865850E+02 0.25620614910E+02
 0.26925042402E+02 0.27399040783E+02 0.26925041894E+02 0.25620614123E+02 0.23772865146E+02
 0.21706352873E+02 0.19763970988E+02 0.18251950307E+02 0.17406354764E+02 0.17415806533E+02
 0.18466313996E+02 0.20750662959E+02 0.24392833285E+02 0.29371196595E+02 0.35909170368E+02
 0.43861213155E+02 0.52306569660E+02 0.59854559304E+02 0.65083675476E+02 0.10148944912E+03
 0.98672662032E+02 0.90681590534E+02 0.78811546267E+02 0.64958065856E+02 0.51237239138E+02
 0.39466983772E+02 0.30603782309E+02 0.24392832345E+02 0.20078080178E+02 0.17406353198E+02
 0.16020516932E+02 0.15562798400E+02 0.15750485878E+02 0.16354903168E+02 0.17165694189E+02
 0.17971981953E+02 0.18567127682E+02 0.18786946176E+02 0.18567127408E+02 0.17971981576E+02
 0.17165693980E+02 0.16354903384E+02 0.15750486659E+02 0.15562799700E+02 0.16020518520E+02
 0.17406354754E+02 0.20078081448E+02 0.24392833275E+02 0.30603783044E+02 0.39466984483E+02
 0.51237239870E+02 0.64958066528E+02 0.78811546767E+02 0.90681590820E+02 0.98672662145E+02
 0.14175751116E+03 0.13810381160E+03 0.12764004307E+03 0.11174996443E+03 0.92488184195E+02
 0.72369362203E+02 0.54015383332E+02 0.39466983780E+02 0.29371196020E+02 0.22688980695E+02
 0.18251949260E+02 0.15562798413E+02 0.14080810770E+02 0.13371107028E+02 0.13130821505E+02
 0.13159395347E+02 0.13317824757E+02 0.13485578770E+02 0.13556701498E+02 0.13485578766E+02
 0.13317824849E+02 0.13159395677E+02 0.13130822184E+02 0.13371108070E+02 0.14080812050E+02
 0.15562799688E+02 0.18251950285E+02 0.22688981393E+02 0.29371196572E+02 0.39466984471E+02
 0.54015384301E+02 0.72369363359E+02 0.92488185310E+02 0.11174996530E+03 0.12764004363E+03
 0.13810381186E+03 0.18320703805E+03 0.17878965958E+03 0.16617971749E+03 0.14698126563E+03
 0.12324307908E+03 0.97387461411E+02 0.72369362203E+02 0.51237239149E+02 0.35909170104E+02
 0.26101938342E+02 0.19763970630E+02 0.15750485902E+02 0.13371107040E+02 0.12010908702E+02
 0.11241444409E+02 0.10813350564E+02 0.10604270278E+02 0.10534223971E+02 0.10523774485E+02
 0.10534224089E+02 0.10604270593E+02 0.10813351159E+02 0.11241445290E+02 0.12010909761E+02
 0.13371108062E+02 0.15750486639E+02 0.19763970955E+02 0.26101938418E+02 0.35909170335E+02
 0.51237239849E+02 0.72369363351E+02 0.97387462684E+02 0.12324308013E+03 0.14698126630E+03
 0.16617971784E+03 0.17878965972E+03 0.22455274585E+03 0.21907205082E+03 0.20376965435E+03
 0.18116974961E+03 0.15366328066E+03 0.12324307907E+03 0.92488184189E+02 0.64958065865E+02
 0.43861213173E+02 0.30102138329E+02 0.21706353179E+02 0.16354903200E+02 0.13130821523E+02
 0.11241444416E+02 0.10108071399E+02 0.94003827664E+01 0.89801968945E+01 0.87797724072E+01
 0.87260530927E+01 0.87797724564E+01 0.89801971163E+01 0.94003832799E+01 0.10108072188E+02
 0.11241445287E+02 0.13130822173E+02 0.16354903361E+02 0.21706352836E+02 0.30102137856E+02
 0.43861213118E+02 0.64958066505E+02 0.92488185304E+02 0.12324308013E+03 0.15366328127E+03
 0.18116974977E+03 0.20376965431E+03 0.21907205076E+03 0.26694109033E+03 0.25970069573E+03
 0.24012095785E+03 0.21274993280E+03 0.18116974960E+03 0.14698126561E+03 0.11174996441E+03
 0.78811546272E+02 0.52306569904E+02 0.34413180050E+02 0.23772865888E+02 0.17165694219E+02
 0.13159395365E+02 0.10813350571E+02 0.94003827678E+01 0.85003790212E+01 0.79454984558E+01
 0.76665673395E+01 0.75878664541E+01 0.76665672223E+01 0.79454984098E+01 0.85003792451E+01
 0.94003832812E+01 0.10813351157E+02 0.13159395668E+02 0.17165693957E+02 0.23772865111E+02
 0.34413179233E+02 0.52306569625E+02 0.78811546749E+02 0.11174996530E+03 0.14698126631E+03
 0.18116974978E+03 0.21274993261E+03 0.24012095761E+03 0.25970069561E+03 0.30859313085E+03
 0.29900214759E+03 0.27371638368E+03 0.24012095784E+03 0.20376965433E+03 0.16617971747E+03
 0.12764004306E+03 0.90681590536E+02 0.59854559641E+02 0.38383272169E+02 0.25620614940E+02
 0.17971981976E+02 0.13317824770E+02 0.10604270283E+02 0.89801968943E+01 0.79454984548E+01
 0.73015804348E+01 0.69730197994E+01 0.68790352418E+01 0.69730195696E+01 0.73015801822E+01
 0.79454984116E+01 0.89801971190E+01 0.10604270594E+02 0.13317824842E+02 0.17971981559E+02
 0.25620614096E+02 0.38383271322E+02 0.59854559279E+02 0.90681590809E+02 0.12764004364E+03
 0.16617971785E+03 0.20376965432E+03 0.24012095762E+03 0.27371638353E+03 0.29900214756E+03
 0.34121923199E+03 0.32949451444E+03 0.29900214759E+03 0.25970069572E+03 0.21907205080E+03
 0.17878965956E+03 0.13810381159E+03 0.98672662033E+02 0.65083675715E+02 0.41204847950E+02
 0.26925042418E+02 0.18567127693E+02 0.13485578775E+02 0.10534223972E+02 0.87797724060E+01
 0.76665673381E+01 0.69730197988E+01 0.66176996561E+01 0.65156775087E+01 0.66176994729E+01
 0.69730195703E+01 0.76665672241E+01 0.87797724585E+01 0.10534224089E+02 0.13485578762E+02
 0.18567127398E+02 0.26925041879E+02 0.41204847415E+02 0.65083675463E+02 0.98672662142E+02
 0.13810381186E+03 0.17878965973E+03 0.21907205077E+03 0.25970069562E+03 0.29900214756E+03
 0.32949451448E+03 0.34121923199E+03 0.32949451448E+03 0.29900214756E+03 0.25970069561E+03
 0.21907205076E+03 0.17878965972E+03 0.13810381186E+03 0.98672662145E+02 0.65083675476E+02
 0.41204847431E+02 0.26925041894E+02 0.18567127408E+02 0.13485578766E+02 0.10534224089E+02
 0.87797724564E+01 0.76665672223E+01 0.69730195696E+01 0.66176994729E+01 0.65156775087E+01
 0.66176996561E+01 0.69730197994E+01 0.76665673395E+01 0.87797724072E+01 0.10534223971E+02
 0.13485578770E+02 0.18567127682E+02 0.26925042402E+02 0.41204847934E+02 0.65083675704E+02
 0.98672662032E+02 0.13810381160E+03 0.17878965958E+03 0.21907205082E+03 0.25970069573E+03
 0.29900214759E+03 0.32949451444E+03 0.32949451448E+03 0.31855828513E+03 0.28999361124E+03
 0.25281131102E+03 0.21377131869E+03 0.17446908615E+03 0.13452489507E+03 0.95926688118E+02
 0.63272954372E+02 0.40218806611E+02 0.26465713896E+02 0.18352036655E+02 0.13415236778E+02
 0.10543362363E+02 0.88313394740E+01 0.77428762191E+01 0.70645917728E+01 0.67173392123E+01
 0.66176996561E+01 0.67173395710E+01 0.70645922260E+01 0.77428764584E+01 0.88313393929E+01
 0.10543362147E+02 0.13415236792E+02 0.18352037192E+02 0.26465714894E+02 0.40218807612E+02
 0.63272954854E+02 0.95926687927E+02 0.13452489455E+03 0.17446908580E+03 0.21377131864E+03
 0.25281131106E+03 0.28999361114E+03 0.31855828496E+03 0.29900214756E+03 0.28999361124E+03
 0.26612684690E+03 0.23408619399E+03 0.19891650567E+03 0.16211885077E+03 0.12427737176E+03
 0.88141992675E+02 0.58211929652E+02 0.37499703950E+02 0.25199689528E+02 0.17769726517E+02
 0.13248892377E+02 0.10608770257E+02 0.90246210211E+01 0.80138632158E+01 0.73850537089E+01
 0.70645918328E+01 0.69730197988E+01 0.70645922260E+01 0.73850541796E+01 0.80138634002E+01
 0.90246208047E+01 0.10608769881E+02 0.13248892304E+02 0.17769727121E+02 0.25199690747E+02
 0.37499705203E+02 0.58211930253E+02 0.88141992393E+02 0.12427737100E+03 0.16211885016E+03
 0.19891650544E+03 0.23408619390E+03 0.26612684669E+03 0.28999361101E+03 0.25970069562E+03
 0.25281131102E+03 0.23408619399E+03 0.20766176813E+03 0.17685003623E+03 0.14328753648E+03
 0.10872919883E+03 0.76596031165E+02 0.50916331390E+02 0.33674526587E+02 0.23399445553E+02
 0.16981122492E+02 0.13090658133E+02 0.10808830989E+02 0.94317804052E+01 0.85541805648E+01
 0.80138631534E+01 0.77428761969E+01 0.76665673381E+01 0.77428764584E+01 0.80138634003E+01
 0.85541804880E+01 0.94317799295E+01 0.10808830365E+02 0.13090657820E+02 0.16981122874E+02
 0.23399446604E+02 0.33674527739E+02 0.50916331922E+02 0.76596030780E+02 0.10872919788E+03
 0.14328753560E+03 0.17685003573E+03 0.20766176786E+03 0.23408619370E+03 0.25281131078E+03
 0.21907205077E+03 0.21377131869E+03 0.19891650566E+03 0.17685003623E+03 0.14986626344E+03
 0.12000394292E+03 0.89921127725E+02 0.63153232146E+02 0.42768001413E+02 0.29517977483E+02
 0.21383396250E+02 0.16188835347E+02 0.13059235179E+02 0.11222715455E+02 0.10119802830E+02
 0.94317803171E+01 0.90246208635E+01 0.88313393278E+01 0.87797724060E+01 0.88313393929E+01
 0.90246208040E+01 0.94317799279E+01 0.10119802078E+02 0.11222714548E+02 0.13059234492E+02
 0.16188835233E+02 0.21383396763E+02 0.29517978210E+02 0.42768001723E+02 0.63153231687E+02
 0.89921126685E+02 0.12000394179E+03 0.14986626259E+03 0.17685003564E+03 0.19891650522E+03
 0.21377131840E+03 0.17878965973E+03 0.17446908615E+03 0.16211885076E+03 0.14328753647E+03
 0.12000394292E+03 0.94707398166E+02 0.70344365580E+02 0.49881078000E+02 0.35107904150E+02
 0.25646964130E+02 0.19491765708E+02 0.15598893136E+02 0.13290492822E+02 0.11969679944E+02
 0.11222715420E+02 0.10808830881E+02 0.10608770089E+02 0.10543362191E+02 0.10534223972E+02
 0.10543362147E+02 0.10608769878E+02 0.10808830359E+02 0.11222714543E+02 0.11969678826E+02
 0.13290491728E+02 0.15598892378E+02 0.19491765457E+02 0.25646964225E+02 0.35107904140E+02
 0.49881077518E+02 0.70344364600E+02 0.94707396958E+02 0.12000394178E+03 0.14328753555E+03
 0.16211885009E+03 0.17446908579E+03 0.13810381186E+03 0.13452489507E+03 0.12427737176E+03
 0.10872919883E+03 0.89921127731E+02 0.70344365586E+02 0.52564440336E+02 0.38532055080E+02
 0.28806627480E+02 0.22326106842E+02 0.18021870889E+02 0.15415256168E+02 0.13978435954E+02
 0.13290492848E+02 0.13059235198E+02 0.13090658126E+02 0.13248892348E+02 0.13415236755E+02
 0.13485578775E+02 0.13415236792E+02 0.13248892297E+02 0.13090657808E+02 0.13059234479E+02
 0.13290491719E+02 0.13978434572E+02 0.15415254824E+02 0.18021869866E+02 0.22326106231E+02
 0.28806627084E+02 0.38532054577E+02 0.52564439548E+02 0.70344364557E+02 0.89921126647E+02
 0.10872919788E+03 0.12427737106E+03 0.13452489470E+03 0.98672662142E+02 0.95926688118E+02
 0.88141992681E+02 0.76596031178E+02 0.63153232163E+02 0.49881078017E+02 0.38532055090E+02
 0.29995370679E+02 0.23977870102E+02 0.19790361104E+02 0.17201020372E+02 0.15858385673E+02
 0.15415256223E+02 0.15598893239E+02 0.16188835491E+02 0.16981122674E+02 0.17769726738E+02
 0.18352036915E+02 0.18567127693E+02 0.18352037192E+02 0.17769727110E+02 0.16981122855E+02
 0.16188835211E+02 0.15598892362E+02 0.15415254816E+02 0.15858383998E+02 0.17201018777E+02
 0.19790359856E+02 0.23977869251E+02 0.29995370060E+02 0.38532054504E+02 0.49881077387E+02
 0.63153231546E+02 0.76596030679E+02 0.88141992362E+02 0.95926687972E+02 0.65083675463E+02
 0.63272954372E+02 0.58211929665E+02 0.50916331412E+02 0.42768001441E+02 0.35107904177E+02
 0.28806627500E+02 0.23977870111E+02 0.20441768795E+02 0.18227534060E+02 0.17209915092E+02
 0.17201020428E+02 0.18021871008E+02 0.19491765898E+02 0.21383396521E+02 0.23399445908E+02
 0.25199689965E+02 0.26465714395E+02 0.26925042418E+02 0.26465714894E+02 0.25199690732E+02
 0.23399446580E+02 0.21383396738E+02 0.19491765437E+02 0.18021869854E+02 0.17201018773E+02
 0.17209913257E+02 0.18227532373E+02 0.20441767474E+02 0.23977869215E+02 0.28806626965E+02
 0.35107903930E+02 0.42768001445E+02 0.50916331618E+02 0.58211929955E+02 0.63272954581E+02
 0.41204847415E+02 0.40218806611E+02 0.37499703965E+02 0.33674526613E+02 0.29517977515E+02