   4   4   0   0
  0.1818145E+02  0.4174100E-09  0.4174100E-09  0.4174100E-09  0.5000000E-15
  1.000000000000000E-004
  CAR 
 Au                                      
     37.25250131     -2.57467068  301      8.48436412      1.00000000
     -2.575  0.0000E+00  0.0000E+00
     -2.442  0.0000E+00  0.0000E+00
     -2.309  0.0000E+00  0.0000E+00
     -2.176  0.0000E+00  0.0000E+00
     -2.044  0.0000E+00  0.0000E+00
     -1.911  0.0000E+00  0.0000E+00
     -1.778  0.0000E+00  0.0000E+00
     -1.645  0.0000E+00  0.0000E+00
     -1.513  0.0000E+00  0.0000E+00
     -1.380  0.0000E+00  0.0000E+00
     -1.247  0.0000E+00  0.0000E+00
     -1.114  0.0000E+00  0.0000E+00
     -0.982  0.1180E-10  0.1567E-11
     -0.849  0.2482E-03  0.3295E-04
     -0.716  0.2669E-01  0.3576E-02
     -0.583  0.1108E+00  0.1829E-01
     -0.451  0.1566E+00  0.3907E-01
     -0.318  0.2807E+00  0.7634E-01
     -0.185  0.2177E+00  0.1052E+00
     -0.052  0.1591E+00  0.1264E+00
      0.080  0.5329E+00  0.1971E+00
      0.213  0.6259E+00  0.2802E+00
      0.346  0.2726E+00  0.3164E+00
      0.479  0.7583E-01  0.3265E+00
      0.612  0.6005E+00  0.4062E+00
      0.744  0.5861E+00  0.4840E+00
      0.877  0.7724E+00  0.5865E+00
      1.010  0.8436E+00  0.6985E+00
      1.143  0.7926E-01  0.7091E+00
      1.275  0.1882E+01  0.9589E+00
      1.408  0.8058E+00  0.1066E+01
      1.541  0.5009E+00  0.1132E+01
      1.674  0.2679E+01  0.1488E+01
      1.806  0.2758E+01  0.1854E+01
      1.939  0.5088E+01  0.2530E+01
      2.072  0.3598E+01  0.3007E+01
      2.205  0.8644E+01  0.4155E+01
      2.337  0.8977E+01  0.5347E+01
      2.470  0.8245E+01  0.6441E+01
      2.603  0.1076E+02  0.7870E+01
      2.736  0.5454E+01  0.8594E+01
      2.868  0.8359E+01  0.9704E+01
      3.001  0.6207E+01  0.1053E+02
      3.134  0.8850E+01  0.1170E+02
      3.267  0.1325E+02  0.1346E+02
      3.399  0.1477E+02  0.1542E+02
      3.532  0.5192E+01  0.1611E+02
      3.665  0.5442E+01  0.1683E+02
      3.798  0.6735E+01  0.1773E+02
      3.930  0.1028E+02  0.1909E+02
      4.063  0.4133E+01  0.1964E+02
      4.196  0.3281E+01  0.2008E+02
      4.329  0.9084E+01  0.2128E+02
      4.461  0.6203E+01  0.2211E+02
      4.594  0.5659E+01  0.2286E+02
      4.727  0.1842E+01  0.2310E+02
      4.860  0.5470E+01  0.2383E+02
      4.992  0.9618E+01  0.2511E+02
      5.125  0.1144E+02  0.2662E+02
      5.258  0.8025E+01  0.2769E+02
      5.391  0.8941E+01  0.2888E+02
      5.524  0.1305E+02  0.3061E+02
      5.656  0.6961E+01  0.3153E+02
      5.789  0.8883E+01  0.3271E+02
      5.922  0.9533E+01  0.3398E+02
      6.055  0.6172E+01  0.3480E+02
      6.187  0.6895E+01  0.3571E+02
      6.320  0.8881E+01  0.3689E+02
      6.453  0.9423E+01  0.3814E+02
      6.586  0.9912E+01  0.3946E+02
      6.718  0.7975E+01  0.4052E+02
      6.851  0.7528E+01  0.4152E+02
      6.984  0.2889E+01  0.4190E+02
      7.117  0.1349E+01  0.4208E+02
      7.249  0.7552E+00  0.4218E+02
      7.382  0.2737E+01  0.4254E+02
      7.515  0.2146E+01  0.4283E+02
      7.648  0.1700E+01  0.4305E+02
      7.780  0.4646E+00  0.4311E+02
      7.913  0.9061E+00  0.4323E+02
      8.046  0.1116E+01  0.4338E+02
      8.179  0.1520E+01  0.4358E+02
      8.311  0.1362E+01  0.4377E+02
      8.444  0.1308E+01  0.4394E+02
      8.577  0.1586E+01  0.4415E+02
      8.710  0.5010E+00  0.4422E+02
      8.842  0.1739E+01  0.4445E+02
      8.975  0.5385E+00  0.4452E+02
      9.108  0.1552E+01  0.4472E+02
      9.241  0.1703E+01  0.4495E+02
      9.373  0.1178E+01  0.4511E+02
      9.506  0.1638E+01  0.4532E+02
      9.639  0.9717E+00  0.4545E+02
      9.772  0.1322E+01  0.4563E+02
      9.905  0.2891E-01  0.4563E+02
     10.037  0.1990E+00  0.4566E+02
     10.170  0.1569E+01  0.4587E+02
     10.303  0.1838E+01  0.4611E+02
     10.436  0.1764E+01  0.4635E+02
     10.568  0.1871E+01  0.4659E+02
     10.701  0.8750E+00  0.4671E+02
     10.834  0.4758E-02  0.4671E+02
     10.967  0.3840E+00  0.4676E+02
     11.099  0.6371E+00  0.4685E+02
     11.232  0.3137E+01  0.4726E+02
     11.365  0.2832E+01  0.4764E+02
     11.498  0.1248E+01  0.4780E+02
     11.630  0.9283E-03  0.4780E+02
     11.763  0.1491E+01  0.4800E+02
     11.896  0.2033E+01  0.4827E+02
     12.029  0.9635E+00  0.4840E+02
     12.161  0.1029E+01  0.4854E+02
     12.294  0.1695E+01  0.4876E+02
     12.427  0.1606E+01  0.4898E+02
     12.560  0.9302E-02  0.4898E+02
     12.692  0.1654E+00  0.4900E+02
     12.825  0.1016E+01  0.4913E+02
     12.958  0.1849E+01  0.4938E+02
     13.091  0.2596E+01  0.4972E+02
     13.223  0.2513E+01  0.5006E+02
     13.356  0.2644E+01  0.5041E+02
     13.489  0.4131E+00  0.5046E+02
     13.622  0.9673E+00  0.5059E+02
     13.754  0.9807E-01  0.5060E+02
     13.887  0.1095E+01  0.5075E+02
     14.020  0.3089E+01  0.5116E+02
     14.153  0.9153E+00  0.5128E+02
     14.285  0.1974E+00  0.5131E+02
     14.418  0.1594E+01  0.5152E+02
     14.551  0.2258E+01  0.5182E+02
     14.684  0.8097E+00  0.5193E+02
     14.817  0.5277E+00  0.5200E+02
     14.949  0.9924E+00  0.5213E+02
     15.082  0.3648E+01  0.5261E+02
     15.215  0.1562E+01  0.5282E+02
     15.348  0.6930E+00  0.5291E+02
     15.480  0.1354E+01  0.5309E+02
     15.613  0.1043E+01  0.5323E+02
     15.746  0.6170E+00  0.5331E+02
     15.879  0.7950E+00  0.5342E+02
     16.011  0.1006E+01  0.5355E+02
     16.144  0.1444E+01  0.5374E+02
     16.277  0.2399E+01  0.5406E+02
     16.410  0.2417E+01  0.5438E+02
     16.542  0.9241E+00  0.5451E+02
     16.675  0.8198E+00  0.5461E+02
     16.808  0.1363E+01  0.5479E+02
     16.941  0.2213E+01  0.5509E+02
     17.073  0.2289E+01  0.5539E+02
     17.206  0.1375E+01  0.5558E+02
     17.339  0.1143E+01  0.5573E+02
     17.472  0.1425E+01  0.5592E+02
     17.604  0.1829E+01  0.5616E+02
     17.737  0.2162E+01  0.5645E+02
     17.870  0.3489E+01  0.5691E+02
     18.003  0.8410E+00  0.5702E+02
     18.135  0.3889E+00  0.5707E+02
     18.268  0.1082E+01  0.5722E+02
     18.401  0.1432E+01  0.5741E+02
     18.534  0.2482E+01  0.5774E+02
     18.666  0.1048E+01  0.5787E+02
     18.799  0.1012E+01  0.5801E+02
     18.932  0.2851E+01  0.5839E+02
     19.065  0.3804E+01  0.5889E+02
     19.198  0.1971E+01  0.5915E+02
     19.330  0.3269E+01  0.5959E+02
     19.463  0.1422E+01  0.5978E+02
     19.596  0.2826E+01  0.6015E+02
     19.729  0.2055E+01  0.6043E+02
     19.861  0.2355E+01  0.6074E+02
     19.994  0.9043E+00  0.6086E+02
     20.127  0.7915E+00  0.6096E+02
     20.260  0.1232E+01  0.6113E+02
     20.392  0.1408E+01  0.6131E+02
     20.525  0.2944E+01  0.6170E+02
     20.658  0.1769E+01  0.6194E+02
     20.791  0.3996E+01  0.6247E+02
     20.923  0.2200E+01  0.6276E+02
     21.056  0.4041E+01  0.6330E+02
     21.189  0.1004E+01  0.6343E+02
     21.322  0.1206E+01  0.6359E+02
     21.454  0.6508E+00  0.6368E+02
     21.587  0.1153E+01  0.6383E+02
     21.720  0.3351E+01  0.6428E+02
     21.853  0.1217E+01  0.6444E+02
     21.985  0.8234E+00  0.6455E+02
     22.118  0.1717E+01  0.6477E+02
     22.251  0.5579E+01  0.6551E+02
     22.384  0.2061E+01  0.6579E+02
     22.516  0.2248E+01  0.6609E+02
     22.649  0.2340E+01  0.6640E+02
     22.782  0.1681E+01  0.6662E+02
     22.915  0.2419E+01  0.6694E+02
     23.047  0.2565E+01  0.6728E+02
     23.180  0.1735E+01  0.6751E+02
     23.313  0.3480E+01  0.6798E+02
     23.446  0.3141E+01  0.6839E+02
     23.579  0.7633E+00  0.6849E+02
     23.711  0.1391E+01  0.6868E+02
     23.844  0.2408E+01  0.6900E+02
     23.977  0.2169E+01  0.6929E+02
     24.110  0.2639E+01  0.6964E+02
     24.242  0.3901E+01  0.7015E+02
     24.375  0.2698E+01  0.7051E+02
     24.508  0.1617E+01  0.7073E+02
     24.641  0.2212E+01  0.7102E+02
     24.773  0.1237E+01  0.7118E+02
     24.906  0.1928E+01  0.7144E+02
     25.039  0.1825E+01  0.7168E+02
     25.172  0.3783E+01  0.7219E+02
     25.304  0.3644E+01  0.7267E+02
     25.437  0.3170E+01  0.7309E+02
     25.570  0.2439E+01  0.7341E+02
     25.703  0.6054E+01  0.7422E+02
     25.835  0.4560E+01  0.7482E+02
     25.968  0.3489E+01  0.7529E+02
     26.101  0.2620E+01  0.7563E+02
     26.234  0.5829E+01  0.7641E+02
     26.366  0.1147E+01  0.7656E+02
     26.499  0.1563E+01  0.7677E+02
     26.632  0.1699E+01  0.7699E+02
     26.765  0.1412E+01  0.7718E+02
     26.897  0.3487E+01  0.7764E+02
     27.030  0.1924E+01  0.7790E+02
     27.163  0.1131E+01  0.7805E+02
     27.296  0.6592E+00  0.7814E+02
     27.428  0.4216E+01  0.7870E+02
     27.561  0.4262E+01  0.7926E+02
     27.694  0.2373E+01  0.7958E+02
     27.827  0.2418E+01  0.7990E+02
     27.959  0.1994E+01  0.8016E+02
     28.092  0.1459E+01  0.8036E+02
     28.225  0.2763E+01  0.8072E+02
     28.358  0.7064E+00  0.8082E+02
     28.491  0.1804E+01  0.8106E+02
     28.623  0.1952E+01  0.8132E+02
     28.756  0.8518E-01  0.8133E+02
     28.889  0.1483E+01  0.8152E+02
     29.022  0.6769E+00  0.8161E+02
     29.154  0.2071E+01  0.8189E+02
     29.287  0.1497E+01  0.8209E+02
     29.420  0.4472E+00  0.8215E+02
     29.553  0.6614E+00  0.8223E+02
     29.685  0.6092E+01  0.8304E+02
     29.818  0.3406E+01  0.8350E+02
     29.951  0.9206E+00  0.8362E+02
     30.084  0.8979E+00  0.8374E+02
     30.216  0.1492E+01  0.8393E+02
     30.349  0.2312E+01  0.8424E+02
     30.482  0.6312E+00  0.8433E+02
     30.615  0.1525E+01  0.8453E+02
     30.747  0.1844E+01  0.8477E+02
     30.880  0.2000E+01  0.8504E+02
     31.013  0.2394E+01  0.8536E+02
     31.146  0.3034E+01  0.8576E+02
     31.278  0.2713E+01  0.8612E+02
     31.411  0.1925E+01  0.8637E+02
     31.544  0.2620E+01  0.8672E+02
     31.677  0.2372E+01  0.8704E+02
     31.809  0.1649E+01  0.8726E+02
     31.942  0.3038E+01  0.8766E+02
     32.075  0.3884E+01  0.8818E+02
     32.208  0.3139E+01  0.8859E+02
     32.340  0.4701E+01  0.8922E+02
     32.473  0.3464E+01  0.8968E+02
     32.606  0.2811E+01  0.9005E+02
     32.739  0.3937E+01  0.9057E+02
     32.872  0.3562E+01  0.9104E+02
     33.004  0.2977E+01  0.9144E+02
     33.137  0.6946E+01  0.9236E+02
     33.270  0.9717E+00  0.9249E+02
     33.403  0.3875E+01  0.9301E+02
     33.535  0.6187E+01  0.9383E+02
     33.668  0.3228E+01  0.9426E+02
     33.801  0.3970E+01  0.9478E+02
     33.934  0.4180E+01  0.9534E+02
     34.066  0.2289E+01  0.9564E+02
     34.199  0.2899E+00  0.9568E+02
     34.332  0.7899E+00  0.9578E+02
     34.465  0.4685E-02  0.9579E+02
     34.597  0.8908E-09  0.9579E+02
     34.730  0.4734E-02  0.9579E+02
     34.863  0.2307E+00  0.9582E+02
     34.996  0.5154E+00  0.9588E+02
     35.128  0.6852E+00  0.9598E+02
     35.261  0.1528E+00  0.9600E+02
     35.394  0.2548E-02  0.9600E+02
     35.527  0.2664E-01  0.9600E+02
     35.659  0.2482E-03  0.9600E+02
     35.792  0.1180E-10  0.9600E+02
     35.925  0.0000E+00  0.9600E+02
     36.058  0.0000E+00  0.9600E+02
     36.190  0.0000E+00  0.9600E+02
     36.323  0.0000E+00  0.9600E+02
     36.456  0.0000E+00  0.9600E+02
     36.589  0.0000E+00  0.9600E+02
     36.721  0.0000E+00  0.9600E+02
     36.854  0.0000E+00  0.9600E+02
     36.987  0.0000E+00  0.9600E+02
     37.120  0.0000E+00  0.9600E+02
     37.253  0.0000E+00  0.9600E+02
