Au                                      
           1
     4.174100    0.000000    0.000000
     0.000000    4.174100    0.000000
     0.000000    0.000000    4.174100
   Au
     4
Direct configuration=     1
   0.00000000  0.00000000  0.00000000
   0.00000000  0.50000000  0.50000000
   0.50000000  0.00000000  0.50000000
   0.50000000  0.50000000  0.00000000
