 DBCSR| CPU Multiplication driver                                           BLAS (U)
 DBCSR| Multrec recursion limit                                              512 (U)
 DBCSR| Multiplication stack size                                           1000 (D)
 DBCSR| Maximum elements for images                                    UNLIMITED (U)
 DBCSR| Multiplicative factor virtual images                                   1 (U)
 DBCSR| Use multiplication densification                                       T (D)
 DBCSR| Multiplication size stacks                                             3 (U)
 DBCSR| Use memory pool for CPU allocation                                     F (U)
 DBCSR| Number of 3D layers                                               SINGLE (U)
 DBCSR| Use MPI memory allocation                                              F (U)
 DBCSR| Use RMA algorithm                                                      F (U)
 DBCSR| Use Communication thread                                               T (U)
 DBCSR| Communication thread load                                             45 (D)
 DBCSR| MPI: My process id                                                     0
 DBCSR| MPI: Number of processes                                              16
 DBCSR| OMP: Current number of threads                                        12
 DBCSR| OMP: Max number of threads                                            12
 DBCSR| Split modifier for TAS multiplication algorithm                  1.0E+00 (U)


  **** **** ******  **  PROGRAM STARTED AT               2025-08-05 16:40:28.192
 ***** ** ***  *** **   PROGRAM STARTED ON                          i01r08c01s02
 **    ****   ******    PROGRAM STARTED BY                               di38fab
 ***** **    ** ** **   PROGRAM PROCESS ID                                703210
  **** **  *******  **  PROGRAM STARTED IN /hppfs/scratch/04/di38fab/09_GTH/Delt
                                           a_Set/As/aug-TZVP-MOLOPT-GTH-tier-2/8
                                           x8x8

 CP2K| version string:                 CP2K version 2025.1 (Development Version)
 CP2K| source code revision number:                                  git:3130539
 CP2K| cp2kflags: omp libint fftw3 libxc parallel scalapack max_contr=4         
 CP2K| is freely available from                            https://www.cp2k.org/
 CP2K| Program compiled at                         Tue Jun  3 16:14:32 CEST 2025
 CP2K| Program compiled on                                               login01
 CP2K| Program compiled for                                        Supermuc-foss
 CP2K| Data directory path                  /hppfs/work/pn36zo/di38fab/cp2k/data
 CP2K| Input file name                                                    GW.inp

 GLOBAL| Force Environment number                                              1
 GLOBAL| Basis set file name            /hppfs/scratch/04/di38fab/09_GTH/BASIS_A
 GLOBAL| Potential file name            /hppfs/work/pn36zo/di38fab/cp2k/data/GTH
 GLOBAL| MM Potential file name                                     MM_POTENTIAL
 GLOBAL| Coordinate file name                                             As.cif
 GLOBAL| Method name                                                        CP2K
 GLOBAL| Project name                                                       WSe2
 GLOBAL| Run type                                                         ENERGY
 GLOBAL| FFT library                                                       FFTW3
 GLOBAL| Diagonalization library                                       ScaLAPACK
 GLOBAL| Cholesky decomposition library                                ScaLAPACK
 GLOBAL| DGEMM library                                                      BLAS
 GLOBAL| Orthonormality check for eigenvectors                          DISABLED
 GLOBAL| Matrix multiplication library                                 ScaLAPACK
 GLOBAL| All-to-all communication in single precision                          F
 GLOBAL| FFTs using library dependent lengths                                  F
 GLOBAL| Grid backend                                                       AUTO
 GLOBAL| Global print level                                               MEDIUM
 GLOBAL| MPI I/O enabled                                                       T
 GLOBAL| Total number of message passing processes                            16
 GLOBAL| Number of threads for this process                                   12
 GLOBAL| This output is from process                                           0
 GLOBAL| OpenMP stack size per thread (OMP_STACKSIZE)                    default
 GLOBAL| CPU model name             Intel(R) Xeon(R) Platinum 8174 CPU @ 3.10GHz

 MEMORY| system memory details [Kb]
 MEMORY|                        rank 0           min           max       average
 MEMORY| MemTotal             98436664      98436664      98436708      98436675
 MEMORY| MemFree              84780464      84427472      84780464      84586406
 MEMORY| Buffers                     0             0             0             0
 MEMORY| Cached                2457716       2376920       2578624       2450041
 MEMORY| Slab                  1277992       1277992       1298984       1290745
 MEMORY| SReclaimable           280204        276736        282956        280560
 MEMORY| MemLikelyFree        87518384      87126168      87518384      87317007


 *** Fundamental physical constants (SI units) ***

 *** Literature: B. J. Mohr and B. N. Taylor,
 ***             CODATA recommended values of the fundamental physical
 ***             constants: 2006, Web Version 5.1
 ***             http://physics.nist.gov/constants

 Speed of light in vacuum [m/s]                             2.99792458000000E+08
 Magnetic constant or permeability of vacuum [N/A**2]       1.25663706143592E-06
 Electric constant or permittivity of vacuum [F/m]          8.85418781762039E-12
 Planck constant (h) [J*s]                                  6.62606896000000E-34
 Planck constant (h-bar) [J*s]                              1.05457162825177E-34
 Elementary charge [C]                                      1.60217648700000E-19
 Electron mass [kg]                                         9.10938215000000E-31
 Electron g factor [ ]                                     -2.00231930436220E+00
 Proton mass [kg]                                           1.67262163700000E-27
 Fine-structure constant                                    7.29735253760000E-03
 Rydberg constant [1/m]                                     1.09737315685270E+07
 Avogadro constant [1/mol]                                  6.02214179000000E+23
 Boltzmann constant [J/K]                                   1.38065040000000E-23
 Atomic mass unit [kg]                                      1.66053878200000E-27
 Bohr radius [m]                                            5.29177208590000E-11

 *** Conversion factors ***

 [u] -> [a.u.]                                              1.82288848426455E+03
 [Angstrom] -> [Bohr] = [a.u.]                              1.88972613288564E+00
 [a.u.] = [Bohr] -> [Angstrom]                              5.29177208590000E-01
 [a.u.] -> [s]                                              2.41888432650478E-17
 [a.u.] -> [fs]                                             2.41888432650478E-02
 [a.u.] -> [J]                                              4.35974393937059E-18
 [a.u.] -> [N]                                              8.23872205491840E-08
 [a.u.] -> [K]                                              3.15774647902944E+05
 [a.u.] -> [kJ/mol]                                         2.62549961709828E+03
 [a.u.] -> [kcal/mol]                                       6.27509468713739E+02
 [a.u.] -> [Pa]                                             2.94210107994716E+13
 [a.u.] -> [bar]                                            2.94210107994716E+08
 [a.u.] -> [atm]                                            2.90362800883016E+08
 [a.u.] -> [eV]                                             2.72113838565563E+01
 [a.u.] -> [Hz]                                             6.57968392072181E+15
 [a.u.] -> [1/cm] (wave numbers)                            2.19474631370540E+05
 [a.u./Bohr**2] -> [1/cm]                                   5.14048714338585E+03
 

 CELL_TOP| Volume [angstrom^3]:                                       136.392019
 CELL_TOP| Vector a [angstrom     3.821     0.000     0.000   |a| =     3.820550
 CELL_TOP| Vector b [angstrom    -1.910     3.309     0.000   |b| =     3.820550
 CELL_TOP| Vector c [angstrom     0.000     0.000    10.790   |c| =    10.789630
 CELL_TOP| Angle (b,c), alpha [degree]:                                90.000000
 CELL_TOP| Angle (a,c), beta  [degree]:                                90.000000
 CELL_TOP| Angle (a,b), gamma [degree]:                               120.000000
 CELL_TOP| Numerically orthorhombic:                                          NO
 CELL_TOP| Periodicity                                                       XYZ

 CELL_CIF| Volume [angstrom^3]:                                       136.392019
 CELL_CIF| Vector a [angstrom     3.821     0.000     0.000   |a| =     3.820550
 CELL_CIF| Vector b [angstrom    -1.910     3.309     0.000   |b| =     3.820550
 CELL_CIF| Vector c [angstrom     0.000     0.000    10.790   |c| =    10.789630
 CELL_CIF| Angle (b,c), alpha [degree]:                                90.000000
 CELL_CIF| Angle (a,c), beta  [degree]:                                90.000000
 CELL_CIF| Angle (a,b), gamma [degree]:                               120.000000
 CELL_CIF| Numerically orthorhombic:                                          NO
 CELL_CIF| Periodicity                                                       XYZ

 GENERATE|  Preliminary Number of Bonds generated:                             0
 GENERATE|  Achieved consistency in connectivity generation.

 CELL| Volume [angstrom^3]:                                           136.392019
 CELL| Vector a [angstrom]:       3.821     0.000     0.000   |a| =     3.820550
 CELL| Vector b [angstrom]:      -1.910     3.309     0.000   |b| =     3.820550
 CELL| Vector c [angstrom]:       0.000     0.000    10.790   |c| =    10.789630
 CELL| Angle (b,c), alpha [degree]:                                    90.000000
 CELL| Angle (a,c), beta  [degree]:                                    90.000000
 CELL| Angle (a,b), gamma [degree]:                                   120.000000
 CELL| Numerically orthorhombic:                                              NO
 CELL| Periodicity                                                           XYZ

 CELL_REF| Volume [angstrom^3]:                                       136.392019
 CELL_REF| Vector a [angstrom     3.821     0.000     0.000   |a| =     3.820550
 CELL_REF| Vector b [angstrom    -1.910     3.309     0.000   |b| =     3.820550
 CELL_REF| Vector c [angstrom     0.000     0.000    10.790   |c| =    10.789630
 CELL_REF| Angle (b,c), alpha [degree]:                                90.000000
 CELL_REF| Angle (a,c), beta  [degree]:                                90.000000
 CELL_REF| Angle (a,b), gamma [degree]:                               120.000000
 CELL_REF| Numerically orthorhombic:                                          NO
 CELL_REF| Periodicity                                                       XYZ

 *** WARNING in cryssym.F:180 :: Symmetry library SPGLIB not available ***


 *******************************************************************************
                                    Kpoints
 *******************************************************************************
 BRILLOUIN| K-point scheme                                        Monkhorst-Pack
 BRILLOUIN| K-Point grid                                             8    8    8
 BRILLOUIN| Accuracy in Symmetry determination                      0.100000E-05
 BRILLOUIN| K-Point point group symmetrization                               OFF
 BRILLOUIN| Wavefunction type                                            COMPLEX
 BRILLOUIN| List of Kpoints [2 Pi/Bohr]                                      256
 BRILLOUIN| Number           Weight            X              Y              Z
 BRILLOUIN|     1           0.00391       -0.43750       -0.43750       -0.43750
 BRILLOUIN|     2           0.00391       -0.43750       -0.43750       -0.31250
 BRILLOUIN|     3           0.00391       -0.43750       -0.43750       -0.18750
 BRILLOUIN|     4           0.00391       -0.43750       -0.43750       -0.06250
 BRILLOUIN|     5           0.00391       -0.43750       -0.43750        0.06250
 BRILLOUIN|     6           0.00391       -0.43750       -0.43750        0.18750
 BRILLOUIN|     7           0.00391       -0.43750       -0.43750        0.31250
 BRILLOUIN|     8           0.00391       -0.43750       -0.43750        0.43750
 BRILLOUIN|     9           0.00391       -0.43750       -0.31250       -0.43750
 BRILLOUIN|    10           0.00391       -0.43750       -0.31250       -0.31250
 BRILLOUIN|    11           0.00391       -0.43750       -0.31250       -0.18750
 BRILLOUIN|    12           0.00391       -0.43750       -0.31250       -0.06250
 BRILLOUIN|    13           0.00391       -0.43750       -0.31250        0.06250
 BRILLOUIN|    14           0.00391       -0.43750       -0.31250        0.18750
 BRILLOUIN|    15           0.00391       -0.43750       -0.31250        0.31250
 BRILLOUIN|    16           0.00391       -0.43750       -0.31250        0.43750
 BRILLOUIN|    17           0.00391       -0.43750       -0.18750       -0.43750
 BRILLOUIN|    18           0.00391       -0.43750       -0.18750       -0.31250
 BRILLOUIN|    19           0.00391       -0.43750       -0.18750       -0.18750
 BRILLOUIN|    20           0.00391       -0.43750       -0.18750       -0.06250
 BRILLOUIN|    21           0.00391       -0.43750       -0.18750        0.06250
 BRILLOUIN|    22           0.00391       -0.43750       -0.18750        0.18750
 BRILLOUIN|    23           0.00391       -0.43750       -0.18750        0.31250
 BRILLOUIN|    24           0.00391       -0.43750       -0.18750        0.43750
 BRILLOUIN|    25           0.00391       -0.43750       -0.06250       -0.43750
 BRILLOUIN|    26           0.00391       -0.43750       -0.06250       -0.31250
 BRILLOUIN|    27           0.00391       -0.43750       -0.06250       -0.18750
 BRILLOUIN|    28           0.00391       -0.43750       -0.06250       -0.06250
 BRILLOUIN|    29           0.00391       -0.43750       -0.06250        0.06250
 BRILLOUIN|    30           0.00391       -0.43750       -0.06250        0.18750
 BRILLOUIN|    31           0.00391       -0.43750       -0.06250        0.31250
 BRILLOUIN|    32           0.00391       -0.43750       -0.06250        0.43750
 BRILLOUIN|    33           0.00391       -0.43750        0.06250       -0.43750
 BRILLOUIN|    34           0.00391       -0.43750        0.06250       -0.31250
 BRILLOUIN|    35           0.00391       -0.43750        0.06250       -0.18750
 BRILLOUIN|    36           0.00391       -0.43750        0.06250       -0.06250
 BRILLOUIN|    37           0.00391       -0.43750        0.06250        0.06250
 BRILLOUIN|    38           0.00391       -0.43750        0.06250        0.18750
 BRILLOUIN|    39           0.00391       -0.43750        0.06250        0.31250
 BRILLOUIN|    40           0.00391       -0.43750        0.06250        0.43750
 BRILLOUIN|    41           0.00391       -0.43750        0.18750       -0.43750
 BRILLOUIN|    42           0.00391       -0.43750        0.18750       -0.31250
 BRILLOUIN|    43           0.00391       -0.43750        0.18750       -0.18750
 BRILLOUIN|    44           0.00391       -0.43750        0.18750       -0.06250
 BRILLOUIN|    45           0.00391       -0.43750        0.18750        0.06250
 BRILLOUIN|    46           0.00391       -0.43750        0.18750        0.18750
 BRILLOUIN|    47           0.00391       -0.43750        0.18750        0.31250
 BRILLOUIN|    48           0.00391       -0.43750        0.18750        0.43750
 BRILLOUIN|    49           0.00391       -0.43750        0.31250       -0.43750
 BRILLOUIN|    50           0.00391       -0.43750        0.31250       -0.31250
 BRILLOUIN|    51           0.00391       -0.43750        0.31250       -0.18750
 BRILLOUIN|    52           0.00391       -0.43750        0.31250       -0.06250
 BRILLOUIN|    53           0.00391       -0.43750        0.31250        0.06250
 BRILLOUIN|    54           0.00391       -0.43750        0.31250        0.18750
 BRILLOUIN|    55           0.00391       -0.43750        0.31250        0.31250
 BRILLOUIN|    56           0.00391       -0.43750        0.31250        0.43750
 BRILLOUIN|    57           0.00391       -0.43750        0.43750       -0.43750
 BRILLOUIN|    58           0.00391       -0.43750        0.43750       -0.31250
 BRILLOUIN|    59           0.00391       -0.43750        0.43750       -0.18750
 BRILLOUIN|    60           0.00391       -0.43750        0.43750       -0.06250
 BRILLOUIN|    61           0.00391       -0.43750        0.43750        0.06250
 BRILLOUIN|    62           0.00391       -0.43750        0.43750        0.18750
 BRILLOUIN|    63           0.00391       -0.43750        0.43750        0.31250
 BRILLOUIN|    64           0.00391       -0.43750        0.43750        0.43750
 BRILLOUIN|    65           0.00391       -0.31250       -0.43750       -0.43750
 BRILLOUIN|    66           0.00391       -0.31250       -0.43750       -0.31250
 BRILLOUIN|    67           0.00391       -0.31250       -0.43750       -0.18750
 BRILLOUIN|    68           0.00391       -0.31250       -0.43750       -0.06250
 BRILLOUIN|    69           0.00391       -0.31250       -0.43750        0.06250
 BRILLOUIN|    70           0.00391       -0.31250       -0.43750        0.18750
 BRILLOUIN|    71           0.00391       -0.31250       -0.43750        0.31250
 BRILLOUIN|    72           0.00391       -0.31250       -0.43750        0.43750
 BRILLOUIN|    73           0.00391       -0.31250       -0.31250       -0.43750
 BRILLOUIN|    74           0.00391       -0.31250       -0.31250       -0.31250
 BRILLOUIN|    75           0.00391       -0.31250       -0.31250       -0.18750
 BRILLOUIN|    76           0.00391       -0.31250       -0.31250       -0.06250
 BRILLOUIN|    77           0.00391       -0.31250       -0.31250        0.06250
 BRILLOUIN|    78           0.00391       -0.31250       -0.31250        0.18750
 BRILLOUIN|    79           0.00391       -0.31250       -0.31250        0.31250
 BRILLOUIN|    80           0.00391       -0.31250       -0.31250        0.43750
 BRILLOUIN|    81           0.00391       -0.31250       -0.18750       -0.43750
 BRILLOUIN|    82           0.00391       -0.31250       -0.18750       -0.31250
 BRILLOUIN|    83           0.00391       -0.31250       -0.18750       -0.18750
 BRILLOUIN|    84           0.00391       -0.31250       -0.18750       -0.06250
 BRILLOUIN|    85           0.00391       -0.31250       -0.18750        0.06250
 BRILLOUIN|    86           0.00391       -0.31250       -0.18750        0.18750
 BRILLOUIN|    87           0.00391       -0.31250       -0.18750        0.31250
 BRILLOUIN|    88           0.00391       -0.31250       -0.18750        0.43750
 BRILLOUIN|    89           0.00391       -0.31250       -0.06250       -0.43750
 BRILLOUIN|    90           0.00391       -0.31250       -0.06250       -0.31250
 BRILLOUIN|    91           0.00391       -0.31250       -0.06250       -0.18750
 BRILLOUIN|    92           0.00391       -0.31250       -0.06250       -0.06250
 BRILLOUIN|    93           0.00391       -0.31250       -0.06250        0.06250
 BRILLOUIN|    94           0.00391       -0.31250       -0.06250        0.18750
 BRILLOUIN|    95           0.00391       -0.31250       -0.06250        0.31250
 BRILLOUIN|    96           0.00391       -0.31250       -0.06250        0.43750
 BRILLOUIN|    97           0.00391       -0.31250        0.06250       -0.43750
 BRILLOUIN|    98           0.00391       -0.31250        0.06250       -0.31250
 BRILLOUIN|    99           0.00391       -0.31250        0.06250       -0.18750
 BRILLOUIN|   100           0.00391       -0.31250        0.06250       -0.06250
 BRILLOUIN|   101           0.00391       -0.31250        0.06250        0.06250
 BRILLOUIN|   102           0.00391       -0.31250        0.06250        0.18750
 BRILLOUIN|   103           0.00391       -0.31250        0.06250        0.31250
 BRILLOUIN|   104           0.00391       -0.31250        0.06250        0.43750
 BRILLOUIN|   105           0.00391       -0.31250        0.18750       -0.43750
 BRILLOUIN|   106           0.00391       -0.31250        0.18750       -0.31250
 BRILLOUIN|   107           0.00391       -0.31250        0.18750       -0.18750
 BRILLOUIN|   108           0.00391       -0.31250        0.18750       -0.06250
 BRILLOUIN|   109           0.00391       -0.31250        0.18750        0.06250
 BRILLOUIN|   110           0.00391       -0.31250        0.18750        0.18750
 BRILLOUIN|   111           0.00391       -0.31250        0.18750        0.31250
 BRILLOUIN|   112           0.00391       -0.31250        0.18750        0.43750
 BRILLOUIN|   113           0.00391       -0.31250        0.31250       -0.43750
 BRILLOUIN|   114           0.00391       -0.31250        0.31250       -0.31250
 BRILLOUIN|   115           0.00391       -0.31250        0.31250       -0.18750
 BRILLOUIN|   116           0.00391       -0.31250        0.31250       -0.06250
 BRILLOUIN|   117           0.00391       -0.31250        0.31250        0.06250
 BRILLOUIN|   118           0.00391       -0.31250        0.31250        0.18750
 BRILLOUIN|   119           0.00391       -0.31250        0.31250        0.31250
 BRILLOUIN|   120           0.00391       -0.31250        0.31250        0.43750
 BRILLOUIN|   121           0.00391       -0.31250        0.43750       -0.43750
 BRILLOUIN|   122           0.00391       -0.31250        0.43750       -0.31250
 BRILLOUIN|   123           0.00391       -0.31250        0.43750       -0.18750
 BRILLOUIN|   124           0.00391       -0.31250        0.43750       -0.06250
 BRILLOUIN|   125           0.00391       -0.31250        0.43750        0.06250
 BRILLOUIN|   126           0.00391       -0.31250        0.43750        0.18750
 BRILLOUIN|   127           0.00391       -0.31250        0.43750        0.31250
 BRILLOUIN|   128           0.00391       -0.31250        0.43750        0.43750
 BRILLOUIN|   129           0.00391       -0.18750       -0.43750       -0.43750
 BRILLOUIN|   130           0.00391       -0.18750       -0.43750       -0.31250
 BRILLOUIN|   131           0.00391       -0.18750       -0.43750       -0.18750
 BRILLOUIN|   132           0.00391       -0.18750       -0.43750       -0.06250
 BRILLOUIN|   133           0.00391       -0.18750       -0.43750        0.06250
 BRILLOUIN|   134           0.00391       -0.18750       -0.43750        0.18750
 BRILLOUIN|   135           0.00391       -0.18750       -0.43750        0.31250
 BRILLOUIN|   136           0.00391       -0.18750       -0.43750        0.43750
 BRILLOUIN|   137           0.00391       -0.18750       -0.31250       -0.43750
 BRILLOUIN|   138           0.00391       -0.18750       -0.31250       -0.31250
 BRILLOUIN|   139           0.00391       -0.18750       -0.31250       -0.18750
 BRILLOUIN|   140           0.00391       -0.18750       -0.31250       -0.06250
 BRILLOUIN|   141           0.00391       -0.18750       -0.31250        0.06250
 BRILLOUIN|   142           0.00391       -0.18750       -0.31250        0.18750
 BRILLOUIN|   143           0.00391       -0.18750       -0.31250        0.31250
 BRILLOUIN|   144           0.00391       -0.18750       -0.31250        0.43750
 BRILLOUIN|   145           0.00391       -0.18750       -0.18750       -0.43750
 BRILLOUIN|   146           0.00391       -0.18750       -0.18750       -0.31250
 BRILLOUIN|   147           0.00391       -0.18750       -0.18750       -0.18750
 BRILLOUIN|   148           0.00391       -0.18750       -0.18750       -0.06250
 BRILLOUIN|   149           0.00391       -0.18750       -0.18750        0.06250
 BRILLOUIN|   150           0.00391       -0.18750       -0.18750        0.18750
 BRILLOUIN|   151           0.00391       -0.18750       -0.18750        0.31250
 BRILLOUIN|   152           0.00391       -0.18750       -0.18750        0.43750
 BRILLOUIN|   153           0.00391       -0.18750       -0.06250       -0.43750
 BRILLOUIN|   154           0.00391       -0.18750       -0.06250       -0.31250
 BRILLOUIN|   155           0.00391       -0.18750       -0.06250       -0.18750
 BRILLOUIN|   156           0.00391       -0.18750       -0.06250       -0.06250
 BRILLOUIN|   157           0.00391       -0.18750       -0.06250        0.06250
 BRILLOUIN|   158           0.00391       -0.18750       -0.06250        0.18750
 BRILLOUIN|   159           0.00391       -0.18750       -0.06250        0.31250
 BRILLOUIN|   160           0.00391       -0.18750       -0.06250        0.43750
 BRILLOUIN|   161           0.00391       -0.18750        0.06250       -0.43750
 BRILLOUIN|   162           0.00391       -0.18750        0.06250       -0.31250
 BRILLOUIN|   163           0.00391       -0.18750        0.06250       -0.18750
 BRILLOUIN|   164           0.00391       -0.18750        0.06250       -0.06250
 BRILLOUIN|   165           0.00391       -0.18750        0.06250        0.06250
 BRILLOUIN|   166           0.00391       -0.18750        0.06250        0.18750
 BRILLOUIN|   167           0.00391       -0.18750        0.06250        0.31250
 BRILLOUIN|   168           0.00391       -0.18750        0.06250        0.43750
 BRILLOUIN|   169           0.00391       -0.18750        0.18750       -0.43750
 BRILLOUIN|   170           0.00391       -0.18750        0.18750       -0.31250
 BRILLOUIN|   171           0.00391       -0.18750        0.18750       -0.18750
 BRILLOUIN|   172           0.00391       -0.18750        0.18750       -0.06250
 BRILLOUIN|   173           0.00391       -0.18750        0.18750        0.06250
 BRILLOUIN|   174           0.00391       -0.18750        0.18750        0.18750
 BRILLOUIN|   175           0.00391       -0.18750        0.18750        0.31250
 BRILLOUIN|   176           0.00391       -0.18750        0.18750        0.43750
 BRILLOUIN|   177           0.00391       -0.18750        0.31250       -0.43750
 BRILLOUIN|   178           0.00391       -0.18750        0.31250       -0.31250
 BRILLOUIN|   179           0.00391       -0.18750        0.31250       -0.18750
 BRILLOUIN|   180           0.00391       -0.18750        0.31250       -0.06250
 BRILLOUIN|   181           0.00391       -0.18750        0.31250        0.06250
 BRILLOUIN|   182           0.00391       -0.18750        0.31250        0.18750
 BRILLOUIN|   183           0.00391       -0.18750        0.31250        0.31250
 BRILLOUIN|   184           0.00391       -0.18750        0.31250        0.43750
 BRILLOUIN|   185           0.00391       -0.18750        0.43750       -0.43750
 BRILLOUIN|   186           0.00391       -0.18750        0.43750       -0.31250
 BRILLOUIN|   187           0.00391       -0.18750        0.43750       -0.18750
 BRILLOUIN|   188           0.00391       -0.18750        0.43750       -0.06250
 BRILLOUIN|   189           0.00391       -0.18750        0.43750        0.06250
 BRILLOUIN|   190           0.00391       -0.18750        0.43750        0.18750
 BRILLOUIN|   191           0.00391       -0.18750        0.43750        0.31250
 BRILLOUIN|   192           0.00391       -0.18750        0.43750        0.43750
 BRILLOUIN|   193           0.00391       -0.06250       -0.43750       -0.43750
 BRILLOUIN|   194           0.00391       -0.06250       -0.43750       -0.31250
 BRILLOUIN|   195           0.00391       -0.06250       -0.43750       -0.18750
 BRILLOUIN|   196           0.00391       -0.06250       -0.43750       -0.06250
 BRILLOUIN|   197           0.00391       -0.06250       -0.43750        0.06250
 BRILLOUIN|   198           0.00391       -0.06250       -0.43750        0.18750
 BRILLOUIN|   199           0.00391       -0.06250       -0.43750        0.31250
 BRILLOUIN|   200           0.00391       -0.06250       -0.43750        0.43750
 BRILLOUIN|   201           0.00391       -0.06250       -0.31250       -0.43750
 BRILLOUIN|   202           0.00391       -0.06250       -0.31250       -0.31250
 BRILLOUIN|   203           0.00391       -0.06250       -0.31250       -0.18750
 BRILLOUIN|   204           0.00391       -0.06250       -0.31250       -0.06250
 BRILLOUIN|   205           0.00391       -0.06250       -0.31250        0.06250
 BRILLOUIN|   206           0.00391       -0.06250       -0.31250        0.18750
 BRILLOUIN|   207           0.00391       -0.06250       -0.31250        0.31250
 BRILLOUIN|   208           0.00391       -0.06250       -0.31250        0.43750
 BRILLOUIN|   209           0.00391       -0.06250       -0.18750       -0.43750
 BRILLOUIN|   210           0.00391       -0.06250       -0.18750       -0.31250
 BRILLOUIN|   211           0.00391       -0.06250       -0.18750       -0.18750
 BRILLOUIN|   212           0.00391       -0.06250       -0.18750       -0.06250
 BRILLOUIN|   213           0.00391       -0.06250       -0.18750        0.06250
 BRILLOUIN|   214           0.00391       -0.06250       -0.18750        0.18750
 BRILLOUIN|   215           0.00391       -0.06250       -0.18750        0.31250
 BRILLOUIN|   216           0.00391       -0.06250       -0.18750        0.43750
 BRILLOUIN|   217           0.00391       -0.06250       -0.06250       -0.43750
 BRILLOUIN|   218           0.00391       -0.06250       -0.06250       -0.31250
 BRILLOUIN|   219           0.00391       -0.06250       -0.06250       -0.18750
 BRILLOUIN|   220           0.00391       -0.06250       -0.06250       -0.06250
 BRILLOUIN|   221           0.00391       -0.06250       -0.06250        0.06250
 BRILLOUIN|   222           0.00391       -0.06250       -0.06250        0.18750
 BRILLOUIN|   223           0.00391       -0.06250       -0.06250        0.31250
 BRILLOUIN|   224           0.00391       -0.06250       -0.06250        0.43750
 BRILLOUIN|   225           0.00391       -0.06250        0.06250       -0.43750
 BRILLOUIN|   226           0.00391       -0.06250        0.06250       -0.31250
 BRILLOUIN|   227           0.00391       -0.06250        0.06250       -0.18750
 BRILLOUIN|   228           0.00391       -0.06250        0.06250       -0.06250
 BRILLOUIN|   229           0.00391       -0.06250        0.06250        0.06250
 BRILLOUIN|   230           0.00391       -0.06250        0.06250        0.18750
 BRILLOUIN|   231           0.00391       -0.06250        0.06250        0.31250
 BRILLOUIN|   232           0.00391       -0.06250        0.06250        0.43750
 BRILLOUIN|   233           0.00391       -0.06250        0.18750       -0.43750
 BRILLOUIN|   234           0.00391       -0.06250        0.18750       -0.31250
 BRILLOUIN|   235           0.00391       -0.06250        0.18750       -0.18750
 BRILLOUIN|   236           0.00391       -0.06250        0.18750       -0.06250
 BRILLOUIN|   237           0.00391       -0.06250        0.18750        0.06250
 BRILLOUIN|   238           0.00391       -0.06250        0.18750        0.18750
 BRILLOUIN|   239           0.00391       -0.06250        0.18750        0.31250
 BRILLOUIN|   240           0.00391       -0.06250        0.18750        0.43750
 BRILLOUIN|   241           0.00391       -0.06250        0.31250       -0.43750
 BRILLOUIN|   242           0.00391       -0.06250        0.31250       -0.31250
 BRILLOUIN|   243           0.00391       -0.06250        0.31250       -0.18750
 BRILLOUIN|   244           0.00391       -0.06250        0.31250       -0.06250
 BRILLOUIN|   245           0.00391       -0.06250        0.31250        0.06250
 BRILLOUIN|   246           0.00391       -0.06250        0.31250        0.18750
 BRILLOUIN|   247           0.00391       -0.06250        0.31250        0.31250
 BRILLOUIN|   248           0.00391       -0.06250        0.31250        0.43750
 BRILLOUIN|   249           0.00391       -0.06250        0.43750       -0.43750
 BRILLOUIN|   250           0.00391       -0.06250        0.43750       -0.31250
 BRILLOUIN|   251           0.00391       -0.06250        0.43750       -0.18750
 BRILLOUIN|   252           0.00391       -0.06250        0.43750       -0.06250
 BRILLOUIN|   253           0.00391       -0.06250        0.43750        0.06250
 BRILLOUIN|   254           0.00391       -0.06250        0.43750        0.18750
 BRILLOUIN|   255           0.00391       -0.06250        0.43750        0.31250
 BRILLOUIN|   256           0.00391       -0.06250        0.43750        0.43750
 *******************************************************************************

 *******************************************************************************
 *******************************************************************************
 **                                                                           **
 **     #####                         ##              ##                      **
 **    ##   ##            ##          ##              ##                      **
 **   ##     ##                       ##            ######                    **
 **   ##     ##  ##   ##  ##   #####  ##  ##   ####   ##    #####    #####    **
 **   ##     ##  ##   ##  ##  ##      ## ##   ##      ##   ##   ##  ##   ##   **
 **   ##  ## ##  ##   ##  ##  ##      ####     ###    ##   ######   ######    **
 **    ##  ###   ##   ##  ##  ##      ## ##      ##   ##   ##       ##        **
 **     #######   #####   ##   #####  ##  ##  ####    ##    #####   ##        **
 **           ##                                                    ##        **
 **                                                                           **
 **                                                ... make the atoms dance   **
 **                                                                           **
 **            Copyright (C) by CP2K developers group (2000-2025)             **
 **                      J. Chem. Phys. 152, 194103 (2020)                    **
 **                                                                           **
 *******************************************************************************

 DFT| Spin restricted Kohn-Sham (RKS) calculation                            RKS
 DFT| Multiplicity                                                             1
 DFT| Number of spin states                                                    1
 DFT| Charge                                                                   0
 DFT| Self-interaction correction (SIC)                                       NO
 DFT| Cutoffs: density                                              1.000000E-10
 DFT|          gradient                                             1.000000E-10
 DFT|          tau                                                  1.000000E-10
 DFT|          cutoff_smoothing_range                               0.000000E+00
 DFT| XC density smoothing                                                  NONE
 DFT| XC derivatives                                                          PW

 FUNCTIONAL| PBE:
 FUNCTIONAL| J.P.Perdew, K.Burke, M.Ernzerhof, Phys. Rev. Letter, vol. 77, n 18,
 FUNCTIONAL|  pp. 3865-3868, (1996) {spin unpolarized}                          


 QS| Method:                                                                 GPW
 QS| Density plane wave grid type                        NON-SPHERICAL FULLSPACE
 QS| Number of grid levels:                                                    4
 QS| Density cutoff [a.u.]:                                                500.0
 QS| Multi grid cutoff [a.u.]: 1) grid level                               500.0
 QS|                           2) grid level                               166.7
 QS|                           3) grid level                                55.6
 QS|                           4) grid level                                18.5
 QS| Grid level progression factor:                                          3.0
 QS| Relative density cutoff [a.u.]:                                        50.0
 QS| Interaction thresholds: eps_pgf_orb:                                1.0E-16
 QS|                         eps_filter_matrix:                          0.0E+00
 QS|                         eps_core_charge:                            1.0E-18
 QS|                         eps_rho_gspace:                             1.0E-16
 QS|                         eps_rho_rspace:                             1.0E-16
 QS|                         eps_gvg_rspace:                             1.0E-08
 QS|                         eps_ppl:                                    1.0E-02
 QS|                         eps_ppnl:                                   1.0E-10


 ATOMIC KIND INFORMATION

  1. Atomic kind: As                                    Number of atoms:       6

     Orbital Basis Set                                aug-TZVP-MOLOPT-GTH-tier-2

       Number of orbital shell sets:                                           1
       Number of orbital shells:                                              14
       Number of primitive Cartesian functions:                                5
       Number of Cartesian basis functions:                                   69
       Number of spherical basis functions:                                   54
       Norm type:                                                              2

       Normalised Cartesian orbitals:

                        Set   Shell   Orbital            Exponent    Coefficient

                          1       1    2s                0.084741       0.180889
                                                         0.145812       0.000000
                                                         0.250894      -0.296213
                                                         0.939118      -0.832421
                                                         1.103336       1.355358

                          1       2    3s                0.084741      -0.084511
                                                         0.145812       0.000000
                                                         0.250894      -0.068447
                                                         0.939118      -0.204254
                                                         1.103336       0.232199

                          1       3    4s                0.084741       0.003365
                                                         0.145812       0.000000
                                                         0.250894       0.316962
                                                         0.939118      -0.891693
                                                         1.103336      -0.079680

                          1       4    5s                0.084741      -0.155961
                                                         0.145812       0.223874
                                                         0.250894      -0.309806
                                                         0.939118       0.329907
                                                         1.103336       0.409940

                          1       5    3px               0.084741      -0.036975
                                                         0.145812       0.000000
                                                         0.250894      -0.119007
                                                         0.939118      -0.580714
                                                         1.103336       0.641163
                          1       5    3py               0.084741      -0.036975
                                                         0.145812       0.000000
                                                         0.250894      -0.119007
                                                         0.939118      -0.580714
                                                         1.103336       0.641163
                          1       5    3pz               0.084741      -0.036975
                                                         0.145812       0.000000
                                                         0.250894      -0.119007
                                                         0.939118      -0.580714
                                                         1.103336       0.641163

                          1       6    4px               0.084741      -0.083213
                                                         0.145812       0.000000
                                                         0.250894       0.118511
                                                         0.939118       0.816529
                                                         1.103336      -0.936820
                          1       6    4py               0.084741      -0.083213
                                                         0.145812       0.000000
                                                         0.250894       0.118511
                                                         0.939118       0.816529
                                                         1.103336      -0.936820
                          1       6    4pz               0.084741      -0.083213
                                                         0.145812       0.000000
                                                         0.250894       0.118511
                                                         0.939118       0.816529
                                                         1.103336      -0.936820

                          1       7    5px               0.084741       0.002766
                                                         0.145812       0.000000
                                                         0.250894      -0.098748
                                                         0.939118      -0.218609
                                                         1.103336      -0.941979
                          1       7    5py               0.084741       0.002766
                                                         0.145812       0.000000
                                                         0.250894      -0.098748
                                                         0.939118      -0.218609
                                                         1.103336      -0.941979
                          1       7    5pz               0.084741       0.002766
                                                         0.145812       0.000000
                                                         0.250894      -0.098748
                                                         0.939118      -0.218609
                                                         1.103336      -0.941979

                          1       8    6px               0.084741      -0.027836
                                                         0.145812       0.095853
                                                         0.250894       0.065943
                                                         0.939118       0.330125
                                                         1.103336       0.403797
                          1       8    6py               0.084741      -0.027836
                                                         0.145812       0.095853
                                                         0.250894       0.065943
                                                         0.939118       0.330125
                                                         1.103336       0.403797
                          1       8    6pz               0.084741      -0.027836
                                                         0.145812       0.095853
                                                         0.250894       0.065943
                                                         0.939118       0.330125
                                                         1.103336       0.403797

                          1       9    4dx2              0.084741       0.003292
                                                         0.145812       0.000000
                                                         0.250894       0.122545
                                                         0.939118       0.373079
                                                         1.103336      -0.288006
                          1       9    4dxy              0.084741       0.005702
                                                         0.145812       0.000000
                                                         0.250894       0.212254
                                                         0.939118       0.646191
                                                         1.103336      -0.498840
                          1       9    4dxz              0.084741       0.005702
                                                         0.145812       0.000000
                                                         0.250894       0.212254
                                                         0.939118       0.646191
                                                         1.103336      -0.498840
                          1       9    4dy2              0.084741       0.003292
                                                         0.145812       0.000000
                                                         0.250894       0.122545
                                                         0.939118       0.373079
                                                         1.103336      -0.288006
                          1       9    4dyz              0.084741       0.005702
                                                         0.145812       0.000000
                                                         0.250894       0.212254
                                                         0.939118       0.646191
                                                         1.103336      -0.498840
                          1       9    4dz2              0.084741       0.003292
                                                         0.145812       0.000000
                                                         0.250894       0.122545
                                                         0.939118       0.373079
                                                         1.103336      -0.288006

                          1      10    5dx2              0.084741       0.018445
                                                         0.145812       0.000000
                                                         0.250894       0.041845
                                                         0.939118      -1.553900
                                                         1.103336       1.316370
                          1      10    5dxy              0.084741       0.031948
                                                         0.145812       0.000000
                                                         0.250894       0.072477
                                                         0.939118      -2.691433
                                                         1.103336       2.280020
                          1      10    5dxz              0.084741       0.031948
                                                         0.145812       0.000000
                                                         0.250894       0.072477
                                                         0.939118      -2.691433
                                                         1.103336       2.280020
                          1      10    5dy2              0.084741       0.018445
                                                         0.145812       0.000000
                                                         0.250894       0.041845
                                                         0.939118      -1.553900
                                                         1.103336       1.316370
                          1      10    5dyz              0.084741       0.031948
                                                         0.145812       0.000000
                                                         0.250894       0.072477
                                                         0.939118      -2.691433
                                                         1.103336       2.280020
                          1      10    5dz2              0.084741       0.018445
                                                         0.145812       0.000000
                                                         0.250894       0.041845
                                                         0.939118      -1.553900
                                                         1.103336       1.316370

                          1      11    6dx2              0.084741       0.047395
                                                         0.145812      -0.105416
                                                         0.250894       0.017727
                                                         0.939118      -0.165304
                                                         1.103336       0.207926
                          1      11    6dxy              0.084741       0.082091
                                                         0.145812      -0.182586
                                                         0.250894       0.030705
                                                         0.939118      -0.286315
                                                         1.103336       0.360139
                          1      11    6dxz              0.084741       0.082091
                                                         0.145812      -0.182586
                                                         0.250894       0.030705
                                                         0.939118      -0.286315
                                                         1.103336       0.360139
                          1      11    6dy2              0.084741       0.047395
                                                         0.145812      -0.105416
                                                         0.250894       0.017727
                                                         0.939118      -0.165304
                                                         1.103336       0.207926
                          1      11    6dyz              0.084741       0.082091
                                                         0.145812      -0.182586
                                                         0.250894       0.030705
                                                         0.939118      -0.286315
                                                         1.103336       0.360139
                          1      11    6dz2              0.084741       0.047395
                                                         0.145812      -0.105416
                                                         0.250894       0.017727
                                                         0.939118      -0.165304
                                                         1.103336       0.207926

                          1      12    5fx3              0.084741      -0.000050
                                                         0.145812       0.000000
                                                         0.250894       0.054548
                                                         0.939118       0.902702
                                                         1.103336      -0.805247
                          1      12    5fx2y             0.084741      -0.000112
                                                         0.145812       0.000000
                                                         0.250894       0.121973
                                                         0.939118       2.018503
                                                         1.103336      -1.800587
                          1      12    5fx2z             0.084741      -0.000112
                                                         0.145812       0.000000
                                                         0.250894       0.121973
                                                         0.939118       2.018503
                                                         1.103336      -1.800587
                          1      12    5fxy2             0.084741      -0.000112
                                                         0.145812       0.000000
                                                         0.250894       0.121973
                                                         0.939118       2.018503
                                                         1.103336      -1.800587
                          1      12    5fxyz             0.084741      -0.000193
                                                         0.145812       0.000000
                                                         0.250894       0.211263
                                                         0.939118       3.496149
                                                         1.103336      -3.118709
                          1      12    5fxz2             0.084741      -0.000112
                                                         0.145812       0.000000
                                                         0.250894       0.121973
                                                         0.939118       2.018503
                                                         1.103336      -1.800587
                          1      12    5fy3              0.084741      -0.000050
                                                         0.145812       0.000000
                                                         0.250894       0.054548
                                                         0.939118       0.902702
                                                         1.103336      -0.805247
                          1      12    5fy2z             0.084741      -0.000112
                                                         0.145812       0.000000
                                                         0.250894       0.121973
                                                         0.939118       2.018503
                                                         1.103336      -1.800587
                          1      12    5fyz2             0.084741      -0.000112
                                                         0.145812       0.000000
                                                         0.250894       0.121973
                                                         0.939118       2.018503
                                                         1.103336      -1.800587
                          1      12    5fz3              0.084741      -0.000050
                                                         0.145812       0.000000
                                                         0.250894       0.054548
                                                         0.939118       0.902702
                                                         1.103336      -0.805247

                          1      13    6fx3              0.084741       0.004046
                                                         0.145812       0.002480
                                                         0.250894       0.009975
                                                         0.939118       0.188120
                                                         1.103336       0.270338
                          1      13    6fx2y             0.084741       0.009047
                                                         0.145812       0.005545
                                                         0.250894       0.022304
                                                         0.939118       0.420649
                                                         1.103336       0.604493
                          1      13    6fx2z             0.084741       0.009047
                                                         0.145812       0.005545
                                                         0.250894       0.022304
                                                         0.939118       0.420649
                                                         1.103336       0.604493
                          1      13    6fxy2             0.084741       0.009047
                                                         0.145812       0.005545
                                                         0.250894       0.022304
                                                         0.939118       0.420649
                                                         1.103336       0.604493
                          1      13    6fxyz             0.084741       0.015671
                                                         0.145812       0.009605
                                                         0.250894       0.038632
                                                         0.939118       0.728585
                                                         1.103336       1.047013
                          1      13    6fxz2             0.084741       0.009047
                                                         0.145812       0.005545
                                                         0.250894       0.022304
                                                         0.939118       0.420649
                                                         1.103336       0.604493
                          1      13    6fy3              0.084741       0.004046
                                                         0.145812       0.002480
                                                         0.250894       0.009975
                                                         0.939118       0.188120
                                                         1.103336       0.270338
                          1      13    6fy2z             0.084741       0.009047
                                                         0.145812       0.005545
                                                         0.250894       0.022304
                                                         0.939118       0.420649
                                                         1.103336       0.604493
                          1      13    6fyz2             0.084741       0.009047
                                                         0.145812       0.005545
                                                         0.250894       0.022304
                                                         0.939118       0.420649
                                                         1.103336       0.604493
                          1      13    6fz3              0.084741       0.004046
                                                         0.145812       0.002480
                                                         0.250894       0.009975
                                                         0.939118       0.188120
                                                         1.103336       0.270338

                          1      14    6gx4              0.084741       0.000281
                                                         0.145812       0.003510
                                                         0.250894       0.004987
                                                         0.939118       0.046936
                                                         1.103336       0.073109
                          1      14    6gx3y             0.084741       0.000742
                                                         0.145812       0.009287
                                                         0.250894       0.013193
                                                         0.939118       0.124181
                                                         1.103336       0.193428
                          1      14    6gx3z             0.084741       0.000742
                                                         0.145812       0.009287
                                                         0.250894       0.013193
                                                         0.939118       0.124181
                                                         1.103336       0.193428
                          1      14    6gx2y2            0.084741       0.000958
                                                         0.145812       0.011990
                                                         0.250894       0.017033
                                                         0.939118       0.160316
                                                         1.103336       0.249714
                          1      14    6gx2yz            0.084741       0.001660
                                                         0.145812       0.020767
                                                         0.250894       0.029501
                                                         0.939118       0.277676
                                                         1.103336       0.432518
                          1      14    6gx2z2            0.084741       0.000958
                                                         0.145812       0.011990
                                                         0.250894       0.017033
                                                         0.939118       0.160316
                                                         1.103336       0.249714
                          1      14    6gxy3             0.084741       0.000742
                                                         0.145812       0.009287
                                                         0.250894       0.013193
                                                         0.939118       0.124181
                                                         1.103336       0.193428
                          1      14    6gxy2z            0.084741       0.001660
                                                         0.145812       0.020767
                                                         0.250894       0.029501
                                                         0.939118       0.277676
                                                         1.103336       0.432518
                          1      14    6gxyz2            0.084741       0.001660
                                                         0.145812       0.020767
                                                         0.250894       0.029501
                                                         0.939118       0.277676
                                                         1.103336       0.432518
                          1      14    6gxz3             0.084741       0.000742
                                                         0.145812       0.009287
                                                         0.250894       0.013193
                                                         0.939118       0.124181
                                                         1.103336       0.193428
                          1      14    6gy4              0.084741       0.000281
                                                         0.145812       0.003510
                                                         0.250894       0.004987
                                                         0.939118       0.046936
                                                         1.103336       0.073109
                          1      14    6gy3z             0.084741       0.000742
                                                         0.145812       0.009287
                                                         0.250894       0.013193
                                                         0.939118       0.124181
                                                         1.103336       0.193428
                          1      14    6gy2z2            0.084741       0.000958
                                                         0.145812       0.011990
                                                         0.250894       0.017033
                                                         0.939118       0.160316
                                                         1.103336       0.249714
                          1      14    6gyz3             0.084741       0.000742
                                                         0.145812       0.009287
                                                         0.250894       0.013193
                                                         0.939118       0.124181
                                                         1.103336       0.193428
                          1      14    6gz4              0.084741       0.000281
                                                         0.145812       0.003510
                                                         0.250894       0.004987
                                                         0.939118       0.046936
                                                         1.103336       0.073109

       Atomic covalent radius [Angstrom]:                                  1.200

       Atomic van der Waals radius [Angstrom]:                             1.850

     GTH Potential information for                                       GTH-PBE

       Description:                       Goedecker-Teter-Hutter pseudopotential
                                           Goedecker et al., PRB 54, 1703 (1996)
                                          Hartwigsen et al., PRB 58, 3641 (1998)
                                                      Krack, TCA 114, 145 (2005)

       Gaussian exponent of the core charge distribution:               1.849112
       Electronic configuration (s p d ...):                               2   3

       Parameters of the local part of the GTH pseudopotential:

                          rloc        C1          C2          C3          C4
                        0.520000

       Parameters of the non-local part of the GTH (SOC) pseudopotential:

                   l      r(l)      h(i,j,l)
                                    k(i,j,l)
                   0    0.455550    5.520673    0.035122   -1.061082
                                    0.035122   -1.771193    2.739703
                                   -1.061082    2.739703   -2.174572
                   1    0.554606    1.021792    0.629208
                                    0.629208   -0.744489
                                    0.078845   -0.033085
                                   -0.033085    0.039147
                   2    0.703689    0.314795
                                    0.003356


 MOLECULE KIND INFORMATION


 All atoms are their own molecule, skipping detailed information


 TOTAL NUMBERS AND MAXIMUM NUMBERS

  Total number of            - Atomic kinds:                                   1
                             - Atoms:                                          6
                             - Shell sets:                                     6
                             - Shells:                                        84
                             - Primitive Cartesian functions:                 30
                             - Cartesian basis functions:                    414
                             - Spherical basis functions:                    324

  Maximum angular momentum of the orbital basis functions:                     4


 MODULE QUICKSTEP: ATOMIC COORDINATES IN ANGSTROM

   Atom Kind Element         X             Y             Z       Z(eff)     Mass
      1    1 As   33      0.000000      0.000000      2.444606   5.0000  74.9216
      2    1 As   33      0.000000      0.000000      8.345024   5.0000  74.9216
      3    1 As   33      1.910294      1.102887      6.041114   5.0000  74.9216
      4    1 As   33      1.910294      1.102887      1.151901   5.0000  74.9216
      5    1 As   33     -0.000019      2.205807      9.637729   5.0000  74.9216
      6    1 As   33     -0.000019      2.205807      4.748516   5.0000  74.9216



 SCF PARAMETERS         Density guess:                                    ATOMIC
                        --------------------------------------------------------
                        max_scf:                                             500
                        max_scf_history:                                       0
                        max_diis:                                              4
                        --------------------------------------------------------
                        eps_scf:                                        1.00E-09
                        eps_scf_history:                                0.00E+00
                        eps_diis:                                       1.00E-01
                        eps_eigval:                                     1.00E-05
                        --------------------------------------------------------
                        level_shift [a.u.]:                             0.000000
                        added MOs                                       309    0
                        --------------------------------------------------------
                        Mixing method:                            BROYDEN_MIXING
                                                charge density mixing in g-space
                        --------------------------------------------------------
                        No outer SCF

 PW_GRID| Information for grid number                                          1
 PW_GRID| Grid distributed over                                    16 processors
 PW_GRID| Real space group dimensions                                    16    1
 PW_GRID| the grid is blocked:                                                NO
 PW_GRID| Cutoff [a.u.]                                                    500.0
 PW_GRID| spherical cutoff:                                                   NO
 PW_GRID|   Bounds   1            -37      37                Points:          75
 PW_GRID|   Bounds   2            -37      37                Points:          75
 PW_GRID|   Bounds   3           -108     107                Points:         216
 PW_GRID| Volume element (a.u.^3)  0.7575E-03     Volume (a.u.^3)       920.4190
 PW_GRID| Grid span                                                    FULLSPACE
 PW_GRID|   Distribution                         Average         Max         Min
 PW_GRID|   G-Vectors                            75937.5       75975       75900
 PW_GRID|   G-Rays                                1012.5        1013        1012
 PW_GRID|   Real Space Points                    75937.5       81000       64800

 PW_GRID| Information for grid number                                          2
 PW_GRID| Number of the reference grid                                         1
 PW_GRID| Grid distributed over                                    16 processors
 PW_GRID| Real space group dimensions                                    16    1
 PW_GRID| the grid is blocked:                                                NO
 PW_GRID| Cutoff [a.u.]                                                    166.7
 PW_GRID| spherical cutoff:                                                   NO
 PW_GRID|   Bounds   1            -22      22                Points:          45
 PW_GRID|   Bounds   2            -22      22                Points:          45
 PW_GRID|   Bounds   3            -60      59                Points:         120
 PW_GRID| Volume element (a.u.^3)  0.3788E-02     Volume (a.u.^3)       920.4190
 PW_GRID| Grid span                                                    FULLSPACE
 PW_GRID|   Distribution                         Average         Max         Min
 PW_GRID|   G-Vectors                            15187.5       15435       14985
 PW_GRID|   G-Rays                                 337.5         343         333
 PW_GRID|   Real Space Points                    15187.5       16200       10800

 PW_GRID| Information for grid number                                          3
 PW_GRID| Number of the reference grid                                         1
 PW_GRID| Grid distributed over                                    16 processors
 PW_GRID| Real space group dimensions                                    16    1
 PW_GRID| the grid is blocked:                                                NO
 PW_GRID| Cutoff [a.u.]                                                     55.6
 PW_GRID| spherical cutoff:                                                   NO
 PW_GRID|   Bounds   1            -12      12                Points:          25
 PW_GRID|   Bounds   2            -12      12                Points:          25
 PW_GRID|   Bounds   3            -36      35                Points:          72
 PW_GRID| Volume element (a.u.^3)  0.2045E-01     Volume (a.u.^3)       920.4190
 PW_GRID| Grid span                                                    FULLSPACE
 PW_GRID|   Distribution                         Average         Max         Min
 PW_GRID|   G-Vectors                             2812.5        2900        2750
 PW_GRID|   G-Rays                                 112.5         116         110
 PW_GRID|   Real Space Points                     2812.5        3600        1800

 PW_GRID| Information for grid number                                          4
 PW_GRID| Number of the reference grid                                         1
 PW_GRID| Grid distributed over                                    16 processors
 PW_GRID| Real space group dimensions                                     4    4
 PW_GRID| the grid is blocked:                                                NO
 PW_GRID| Cutoff [a.u.]                                                     18.5
 PW_GRID| spherical cutoff:                                                   NO
 PW_GRID|   Bounds   1             -7       7                Points:          15
 PW_GRID|   Bounds   2             -7       7                Points:          15
 PW_GRID|   Bounds   3            -20      19                Points:          40
 PW_GRID| Volume element (a.u.^3)  0.1023         Volume (a.u.^3)       920.4190
 PW_GRID| Grid span                                                    FULLSPACE
 PW_GRID|   Distribution                         Average         Max         Min
 PW_GRID|   G-Vectors                              562.5         615         525
 PW_GRID|   G-Rays                                  37.5          41          35
 PW_GRID|   Real Space Points                      562.5         640         360

 POISSON| Solver                                                        PERIODIC
 POISSON| Periodicity                                                        XYZ

 RS_GRID| Information for grid number                                          1
 RS_GRID|   Bounds   1            -37      37                Points:          75
 RS_GRID|   Bounds   2            -37      37                Points:          75
 RS_GRID|   Bounds   3           -108     107                Points:         216
 RS_GRID| Real space fully replicated
 RS_GRID| Group size                                                           1

 RS_GRID| Information for grid number                                          2
 RS_GRID|   Bounds   1            -22      22                Points:          45
 RS_GRID|   Bounds   2            -22      22                Points:          45
 RS_GRID|   Bounds   3            -60      59                Points:         120
 RS_GRID| Real space fully replicated
 RS_GRID| Group size                                                           1

 RS_GRID| Information for grid number                                          3
 RS_GRID|   Bounds   1            -12      12                Points:          25
 RS_GRID|   Bounds   2            -12      12                Points:          25
 RS_GRID|   Bounds   3            -36      35                Points:          72
 RS_GRID| Real space fully replicated
 RS_GRID| Group size                                                           1

 RS_GRID| Information for grid number                                          4
 RS_GRID|   Bounds   1             -7       7                Points:          15
 RS_GRID|   Bounds   2             -7       7                Points:          15
 RS_GRID|   Bounds   3            -20      19                Points:          40
 RS_GRID| Real space fully replicated
 RS_GRID| Group size                                                           1

 Number of electrons:                                                         30
 Number of occupied orbitals:                                                 15
 Number of molecular orbitals:                                               324

 Number of orbital functions:                                                324
 Number of independent orbital functions:                                    324

 Extrapolation method: initial_guess

 Atomic guess: The first density matrix is obtained in terms of atomic orbitals
               and electronic configurations assigned to each atomic kind

 Guess for atomic kind: As

 Electronic structure
    Total number of core electrons                                         28.00
    Total number of valence electrons                                       5.00
    Total number of electrons                                              33.00
    Multiplicity                                                   not specified
    S   [  2.00  2.00  2.00] 2.00
    P   [  6.00  6.00] 3.00
    D   [ 10.00]


 *******************************************************************************
                  Iteration          Convergence                     Energy [au]
 *******************************************************************************
                          1        0.295261                      -5.987576621787
                          2        0.154688                      -6.025767641781
                          3        0.430430E-02                  -6.041717148902
                          4        0.106344E-03                  -6.041734656249
                          5        0.389493E-05                  -6.041734668940
                          6        0.337542E-07                  -6.041734668951

 Energy components [Hartree]           Total Energy ::           -6.041734668951
                                        Band Energy ::           -1.503967023366
                                     Kinetic Energy ::            2.156881807811
                                   Potential Energy ::           -8.198616476762
                                      Virial (-V/T) ::            3.801143134997
                                        Core Energy ::           -9.610503244747
                                          XC Energy ::           -1.392477751680
                                     Coulomb Energy ::            4.961246327476
                       Total Pseudopotential Energy ::          -11.830625561267
                       Local Pseudopotential Energy ::          -12.651715851960
[...]
 -                                                                             -
 -                      DBCSR MESSAGE PASSING PERFORMANCE                      -
 -                                                                             -
 -------------------------------------------------------------------------------
 ROUTINE             CALLS      AVE VOLUME [Bytes]
 MP_Bcast                1                     12.
 MP_Allreduce           19                     21.
 MP_Alltoall       1295432                  23064.
 -------------------------------------------------------------------------------

 -------------------------------------------------------------------------------
 -                                                                             -
 -                                DBM STATISTICS                               -
 -                                                                             -
 -------------------------------------------------------------------------------
    M  x    N  x    K                                          COUNT     PERCENT
 -------------------------------------------------------------------------------

 -------------------------------------------------------------------------------
 -                                                                             -
 -                                GRID STATISTICS                              -
 -                                                                             -
 -------------------------------------------------------------------------------
 LP    KERNEL             BACKEND                              COUNT     PERCENT
 8     collocate general  CPU                                2150433      50.41%
 8     integrate general  CPU                                2115180      49.59%
 0     collocate general  CPU                                     12       0.00%
 0     integrate general  CPU                                      6       0.00%
 -------------------------------------------------------------------------------

 MEMORY| Estimated peak process memory [MiB]                                 953

 -------------------------------------------------------------------------------
 ----                             MULTIGRID INFO                            ----
 -------------------------------------------------------------------------------
 count for grid        1:              0          cutoff [a.u.]          500.00
 count for grid        2:         162042          cutoff [a.u.]          166.67
 count for grid        3:         105143          cutoff [a.u.]           55.56
 count for grid        4:         113343          cutoff [a.u.]           18.52
 total gridlevel count  :         380528

 -------------------------------------------------------------------------------
 -                                                                             -
 -                         MESSAGE PASSING PERFORMANCE                         -
 -                                                                             -
 -------------------------------------------------------------------------------

 ROUTINE             CALLS      AVE VOLUME [Bytes]
 MP_Group                6
 MP_Bcast           556733                    667.
 MP_Allreduce       130682                    321.
 MP_Sync                 4
 MP_Alltoall          1207                3135597.
 MP_SendRecv          3690                 206499.
 MP_ISendRecv         3615                 204727.
 MP_Wait            380531
 MP_comm_split           4
 MP_ISend           388732                  25083.
 MP_IRecv           649264                  11250.
 -------------------------------------------------------------------------------


 -------------------------------------------------------------------------------
 -                                                                             -
 -                           R E F E R E N C E S                               -
 -                                                                             -
 -------------------------------------------------------------------------------
 
 CP2K version 2025.1 (Development Version), the CP2K developers group (2025).
 CP2K is freely available from https://www.cp2k.org/ .
 
 T. D. Kuehne, M. Iannuzzi, M. Del Ben, V. V. Rybkin, P. Seewald, F. Stein, T. 
 Laino, R. Z. Khaliullin, O. Schuett, F. Schiffmann, D. Golze, J. Wilhelm, S. 
 Chulkov, M. H. Bani-Hashemian, V. Weber, U. Borstnik, M. Taillefumier, A. S. 
 Jakobovits, A. Lazzaro, H. Pabst, T. Mueller, R. Schade, M. Guidon, S. 
 Andermatt, N. Holmberg, G. K. Schenter, A. Hehn, A. Bussy, F. Belleflamme, G. 
 Tabacchi, A. Gloess, M. Lass, I. Bethune, C. J. Mundy, C. Plessl, M. Watkins, 
 J. VandeVondele, M. Krack, J. Hutter.
 J. Chem. Phys. 152, 194103 (2020).
 CP2K: An electronic structure and molecular dynamics software package - 
 Quickstep: Efficient and accurate electronic structure calculations.
 https://doi.org/10.1063/5.0007045

 O. Schuett, P. Messmer, J. Hutter, J. VandeVondele.
 Electronic Structure Calculations on Graphics Processing Units, 173-190 (2016).
 GPU-Accelerated Sparse Matrix-Matrix Multiplication for Linear Scaling Density 
 Functional Theory.
 https://doi.org/10.1002/9781118670712.ch8

 J. Hutter, M. Iannuzzi, F. Schiffmann, J. VandeVondele.
 WIREs Comput Mol Sci. 4, 15-25 (2014).
 CP2K: atomistic simulations of condensed matter systems.
 https://doi.org/10.1002/wcms.1159

 U. Borstnik, J. VandeVondele, V. Weber, J. Hutter.
 Parallel Comput. 40, 47-58 (2014).
 Sparse matrix multiplication: The distributed block-compressed sparse row 
 library.
 https://doi.org/10.1016/j.parco.2014.03.012

 J. VandeVondele, J. Hutter.
 J. Chem. Phys. 127, 114105 (2007).
 Gaussian basis sets for accurate calculations on molecular systems in gas and 
 condensed phases.
 https://doi.org/10.1063/1.2770708

 J. VandeVondele, M. Krack, F. Mohamed, M. Parrinello, T. Chassaing, J. Hutter.
 Comput. Phys. Commun. 167, 103-128 (2005).
 QUICKSTEP: Fast and accurate density functional calculations using a mixed 
 Gaussian and plane waves approach.
 https://doi.org/10.1016/j.cpc.2004.12.014

 M. Krack.
 Theor. Chem. Acc. 114, 145-152 (2005).
 Pseudopotentials for H to Kr optimized for gradient-corrected 
 exchange-correlation functionals.
 https://doi.org/10.1007/s00214-005-0655-y

 M. Frigo, S. G. Johnson.
 Proc. IEEE 93, 216-231 (2005).
 The design and implementation of FFTW3.
 https://doi.org/10.1109/JPROC.2004.840301

 C. Hartwigsen, S. Goedecker, J. Hutter.
 Phys. Rev. B 58, 3641-3662 (1998).
 Relativistic separable dual-space Gaussian pseudopotentials from H to Rn.
 https://doi.org/10.1103/PhysRevB.58.3641

 G. Lippert, J. Hutter, M. Parrinello.
 Mol. Phys. 92, 477-487 (1997).
 A hybrid Gaussian and plane wave density functional scheme.
 https://doi.org/10.1080/002689797170220

 S. Goedecker, M. Teter, J. Hutter.
 Phys. Rev. B 54, 1703-1710 (1996).
 Separable dual-space Gaussian pseudopotentials.
 https://doi.org/10.1103/PhysRevB.54.1703

 J. P. Perdew, K. Burke, M. Ernzerhof.
 Phys. Rev. Lett. 77, 3865-3868 (1996).
 Generalized gradient approximation made simple.
 https://doi.org/10.1103/PhysRevLett.77.3865


 -------------------------------------------------------------------------------
 -                                                                             -
 -                                T I M I N G                                  -
 -                                                                             -
 -------------------------------------------------------------------------------
 SUBROUTINE                       CALLS  ASD         SELF TIME        TOTAL TIME
                                MAXIMUM       AVERAGE  MAXIMUM  AVERAGE  MAXIMUM
 CP2K                                 1  1.0    0.011    0.015  953.408  953.408
 qs_energies                          1  2.0    0.010    0.115  953.052  953.136
 scf_env_do_scf                       1  3.0    0.000    0.000  944.437  944.438
 scf_env_do_scf_inner_loop           60  4.0    0.041    0.046  944.436  944.437
 do_general_diag_kp                  61  6.0    0.417    0.472  890.942  905.959
 qs_scf_new_mos_kp                   60  5.0    0.001    0.001  884.094  899.047
 mp_alltoall_i22                 221124  8.8  411.694  703.315  411.694  703.315
 dbcsr_desymmetrize_deep         126218  7.5    3.382    4.751  301.581  503.306
 rskp_transform                   31016  7.0  187.779  442.373  187.779  442.373
 kpoint_density_transform            60  7.0    0.165    0.191  264.085  264.530
 dbcsr_complete_redistribute      94906  8.3    6.528    8.883  169.002  258.394
 copy_fm_to_dbcsr                 30720  8.0    0.209    0.227  137.795  226.118
 transform_dmat                   15360  8.0   89.043  214.335   89.043  214.335
 cp_fm_start_copy_general         92752  7.3    6.113   11.804   64.672   64.979
 cp_cfm_geeig                       997  6.9    0.015    0.018   55.105   56.110
 mp_allgather_i                  185504  8.3   51.991   53.399   51.991   53.399
 copy_dbcsr_to_fm                 64186  6.9    0.810    0.861   49.389   53.011
 qs_ks_update_qs_env                 60  5.0    0.000    0.001   20.603   41.377
 cp_cfm_heevd                       997  7.9    0.002    0.003   38.729   39.731
 cp_cfm_heevd_base                  997  8.9   38.727   39.729   38.727   39.729
 rebuild_ks_matrix                   60  6.0    0.000    0.000   17.829   38.602
 qs_ks_build_kohn_sham_matrix        60  7.0    0.078    0.082   17.828   38.602
 sum_up_and_integrate                60  8.0    0.001    0.001   16.289   36.993
 integrate_v_rspace                  60  9.0    0.184    0.412   16.286   36.991
 grid_integrate_task_list            60 10.0   15.122   35.672   15.122   35.672
 qs_rho_update_rho_low               61  5.0    0.000    0.000   32.146   32.205
 calculate_rho_elec                  61  6.0    0.082    0.143   32.146   32.205
 transfer_rs2pw                     246  8.0    0.003    0.005   18.560   31.663
 density_rs2pw                       61  7.0    0.002    0.003   18.632   31.513
 transfer_rs2pw_500                  63  9.0    0.323    0.341   18.319   31.415
 mp_sendrecv_dv                    3690 10.0   18.164   31.275   18.164   31.275
 grid_collocate_task_list            61  7.0   13.420   30.594   13.420   30.594
 mp_alltoall_d11v                663372  9.4   14.922   15.890   14.922   15.890
 cp_cfm_triangular_multiply        2991  7.9   11.367   11.506   11.367   11.506
 dbcsr_finalize                  233336  8.7    1.203    1.336    8.864   10.314
 kpoint_density_matrices             60  7.0    0.107    0.110    9.144    9.223
 cp_fm_finish_copy_general        34708  7.9    6.101    9.088    6.187    9.179
 hybrid_alltoall_any             126218  8.5    0.567    0.603    7.923    8.988
 parallel_gemm_fm                  3840  8.0    0.005    0.005    8.852    8.927
 parallel_gemm_fm_gemm             3840  9.0    0.005    0.005    8.847    8.921
 cp_fm_gemm                        3840 10.0    8.842    8.916    8.842    8.916
 mp_cart_sub                     128375  8.9    7.693    7.739    7.693    7.739
 mp_alltoall_i11v                410936  9.0    6.342    7.291    6.342    7.291
 dbcsr_merge_all                  94906 10.3    2.245    2.870    4.959    6.324
 mp_cart_create                   64193  8.9    4.917    5.319    4.917    5.319
 mp_bcast_iv                     371032  8.3    4.645    4.973    4.645    4.973
 write_kpoints_restart               60  5.0    0.009    0.015    4.543    4.546
 copy_dbcsr_to_fm_bc              64186  7.9    1.281    2.552    2.039    3.283
 cp_fm_write_unformatted           2154  6.0    0.940    2.324    1.318    2.919
 dbcsr_dot                        86161  8.0    0.983    1.825    2.807    2.887
 evaluate_core_matrix_traces         60  6.0    0.000    0.000    2.774    2.775
 calculate_ptrace_kp                120  7.0    0.065    0.067    2.774    2.774
 self_consistency_check              60  5.0    0.063    0.067    2.333    2.684
 mp_waitall_1                    380531  8.4    0.650    2.669    0.650    2.669
 cp_sm_mix                        43080  6.0    0.446    0.902    2.052    2.569
 mp_sum_d                         87061  9.0    1.693    2.510    1.693    2.510
 cp_cfm_triangular_invert           997  7.9    2.398    2.441    2.398    2.441
 dbcsr_work_create               221124  8.8    1.407    1.503    2.289    2.439
 copy_fm_to_dbcsr_bc              30720  9.0    0.594    0.937    1.795    2.372
 dbcsr_create_new                407640  8.2    1.822    1.913    2.249    2.369
 mp_max_d                         43082  7.0    1.504    2.365    1.504    2.365
 cp_cfm_cholesky_decompose          997  7.9    2.318    2.356    2.318    2.356
 tree_to_linear_d                 94906 11.3    1.784    2.318    1.784    2.318
 kpoint_set_mo_occupation            60  7.0    0.392    0.396    1.569    2.243
 mp_send_dv                        2154  7.0    0.350    1.983    0.350    1.983
 dbcsr_copy                      117598  7.1    0.624    0.769    1.401    1.881
 mp_sum_dm3                          60  8.0    1.177    1.849    1.177    1.849
 dbcsr_work_destroy_all          221124  9.8    1.062    1.095    1.770    1.830
 dbcsr_data_new                 2376413  9.7    1.657    1.799    1.657    1.799
 dbcsr_iterator_start            729991  9.0    1.425    1.454    1.727    1.788
 dbcsr_data_release             3358840 10.2    1.549    1.655    1.549    1.655
 dbcsr_data_copy_aa2              94906 11.3    0.536    1.601    0.536    1.601
 fft_wrap_pw1pw2                   1085 10.0    0.010    0.012    1.400    1.472
 dbcsr_set                       247647  7.8    0.263    0.278    0.807    1.431
 dbcsr_destroy                   321480  8.3    0.583    0.607    1.280    1.416
 fft_wrap_pw1pw2_500                722 11.3    0.091    0.094    1.277    1.344
 fft3d_ps                          1085 12.0    0.457    0.494    1.145    1.223
 dbcsr_zero                      247647  8.8    0.544    1.154    0.544    1.154
 dbcsr_iterator_stop             729991  9.0    0.884    0.912    1.071    1.100
 potential_pw2rs                     60 10.0    0.004    0.004    0.980    1.044
 mp_bcast_im                     185504  8.3    0.962    0.995    0.962    0.995
 dbcsr_copy_into_existing         31438  9.9    0.443    0.761    0.631    0.959
 qs_vxc_create                       60  8.0    0.001    0.001    0.902    0.909
 xc_vxc_pw_create                    60  9.0    0.038    0.040    0.901    0.908
 mp_isend_dv                      92752  8.3    0.610    0.907    0.610    0.907
 mp_comm_free                    192602  8.9    0.772    0.888    0.772    0.888
 quick_finalize                  126218  9.5    0.448    0.465    0.831    0.869
 gspace_mixing                       59  5.0    0.032    0.034    0.823    0.823
 cp_cfm_scale_and_add_fm           3988  6.9    0.759    0.786    0.759    0.786
 transfer_pw2rs                     241 11.0    0.002    0.002    0.776    0.777
 init_scf_run                         1  3.0    0.000    0.000    0.662    0.739
 scf_env_initial_rho_setup            1  4.0    0.000    0.000    0.662    0.739
 qs_energies_init_hamiltonians        1  3.0    0.000    0.000    0.717    0.717
 dbcsr_reserve_blocks             36108 10.3    0.443    0.659    0.486    0.703
 mp_alltoall_z22v                  1085 14.0    0.576    0.699    0.576    0.699
 broyden_mixing                      59  6.0    0.660    0.671    0.682    0.684
 dbcsr_reserve_all_blocks         30720 10.0    0.058    0.067    0.403    0.653
 cp_dbcsr_alloc_block_from_nbl     5388  5.2    0.144    0.335    0.286    0.653
 xc_pw_derive                       360 11.0    0.001    0.001    0.572    0.606
 transfer_pw2rs_500                  61 11.9    0.331    0.345    0.575    0.594
 build_core_hamiltonian_matrix        1  4.0    0.003    0.003    0.310    0.567
 qs_env_update_s_mstruct              1  4.0    0.000    0.000    0.333    0.523
 calculate_rho_core                   1  5.0    0.001    0.003    0.276    0.516
 xc_rho_set_and_dset_create          60 10.0    0.023    0.026    0.470    0.488
 yz_to_x                            424 13.1    0.030    0.035    0.340    0.449
 mp_recv_dv                       10770  7.0    0.028    0.447    0.028    0.447
 xc_pw_divergence                    60 10.0    0.001    0.001    0.381    0.409
 cp_cfm_to_fm                       997  6.9    0.382    0.396    0.382    0.396
 dbcsr_sort_indices              257232 10.9    0.343    0.396    0.343    0.396
 x_to_yz                            540 13.1    0.062    0.066    0.325    0.344
 dbcsr_iterator_seek             729991 10.0    0.303    0.334    0.303    0.334
 dbcsr_make_index_exist          407640  9.2    0.269    0.291    0.269    0.291
 cp_cfm_to_cfm_columns              997  7.9    0.278    0.287    0.278    0.287
 mp_sum_dv                          355  3.7    0.100    0.245    0.100    0.245
 merge_index                      94906 11.3    0.195    0.224    0.195    0.224
 mp_isendrecv_dv                   3615 13.0    0.074    0.210    0.074    0.210
 mp_irecv_iv                     371008  8.3    0.013    0.202    0.013    0.202
 mixing_allocate                      1  3.0    0.004    0.004    0.092    0.188
 dbcsr_switch_data_area          126218 10.5    0.130    0.133    0.181    0.187
 transfer_rs2pw_170                  61  9.0    0.055    0.061    0.178    0.185
 calculate_first_density_matrix       1  5.0    0.001    0.001    0.107    0.183
 calculate_atomic_block_dm            1  6.0    0.001    0.001    0.103    0.182
 xc_functional_eval                  60 11.0    0.000    0.001    0.160    0.182
 pbe_lda_eval                        60 12.0    0.159    0.181    0.159    0.181
 cp_fm_to_fm_matrix                1920  8.0    0.177    0.181    0.177    0.181
 build_kinetic_matrix_low             1  5.0    0.029    0.056    0.070    0.164
 transfer_pw2rs_170                  60 12.0    0.063    0.067    0.146    0.162
 cp_fm_cleanup_copy_general       63952  7.0    0.105    0.107    0.150    0.152
 build_core_ppnl                      1  5.0    0.108    0.151    0.108    0.151
 build_overlap_matrix_low             1  5.0    0.029    0.054    0.071    0.148
 mp_isend_iv                     197320  8.3    0.020    0.134    0.020    0.134
 parser_read_line                  6013  4.1    0.002    0.002    0.122    0.124
 parser_read_line_low                23  6.2    0.009    0.069    0.120    0.122
 dbcsr_distribution_new           94908  8.6    0.098    0.120    0.098    0.120
 calculate_ecore_overlap              1  4.0    0.000    0.000    0.069    0.120
 broadcast_input_information         23  7.2    0.025    0.030    0.111    0.118
 dbcsr_get_data_size_used        221124  9.8    0.101    0.115    0.101    0.115
 mp_sum_i                             5  4.6    0.084    0.112    0.084    0.112
 restraint_control                    1  2.0    0.000    0.000    0.084    0.112
 dbcsr_make_dbcsr_index          257232 10.9    0.100    0.110    0.100    0.110
 mp_irecv_dv                      92752  8.3    0.077    0.108    0.077    0.108
 -------------------------------------------------------------------------------

 The number of warnings for this run is : 1
 
 -------------------------------------------------------------------------------
  **** **** ******  **  PROGRAM ENDED AT                 2025-08-05 16:56:21.983
 ***** ** ***  *** **   PROGRAM RAN ON                              i01r08c01s02
 **    ****   ******    PROGRAM RAN BY                                   di38fab
 ***** **    ** ** **   PROGRAM PROCESS ID                                703210
  **** **  *******  **  PROGRAM STOPPED IN /hppfs/scratch/04/di38fab/09_GTH/Delt
                                           a_Set/As/aug-TZVP-MOLOPT-GTH-tier-2/8
                                           x8x8
