S                                       
   1.00000000000000     
     2.580697    0.000000   -0.065568
    -0.067255    2.579821   -0.065568
     0.000000    0.000000    2.581530
   S 
     1
Direct
  0.000000  0.000000  0.000000
 
   24   24   24
 -2.1473     -.78443E-01  5.2252      11.578      16.691      19.183      18.900      16.590      13.384      10.372    
  8.2615      7.0756      6.6963      7.0756      8.2615      10.372      13.384      16.590      18.900      19.183    
  16.691      11.578      5.2252     -.78443E-01 -.78443E-01  1.7461      6.5742      12.385      17.034      19.214    
  18.767      16.403      13.205      10.226      8.1402      6.9595      6.5678      6.9164      8.0488      10.078    
  13.013      16.213      18.635      19.191      17.146      12.603      6.8154      1.9043      5.2252      6.5742    
  10.243      14.613      17.946      19.180      18.208      15.660      12.498      9.6631      7.7031      6.5843    
  6.2002      6.5045      7.5343      9.3909      12.133      15.283      17.919      19.074      18.067      14.920    
  10.604      6.8154      11.578      12.385      14.613      17.145      18.775      18.780      17.138      14.392    
  11.344      8.7703      7.0137      6.0018      5.6429      5.8964      6.7915      8.4131      10.849      13.848    
  16.672      18.510      18.765      17.362      14.920      12.603      16.691      17.034      17.946      18.775    
  18.824      17.709      15.509      12.688      9.8862      7.6719      6.1642      5.2864      4.9653      5.1683    
  5.9164      7.2755      9.3250      12.023      14.874      17.232      18.585      18.765      18.067      17.146    
  19.183      19.214      19.180      18.780      17.709      15.857      13.391      10.712      8.3170      6.5001    
  5.2535      4.5186      4.2420      4.3997      5.0056      6.1064      7.7617      10.006      12.645      15.199    
  17.232      18.510      19.074      19.191      18.900      18.767      18.208      17.138      15.509      13.391    
  11.010      8.7130      6.8102      5.3684      4.3683      3.7705      3.5399      3.6601      4.1397      5.0085    
  6.3067      8.0628      10.254      12.645      14.874      16.672      17.919      18.635      16.590      16.403    
  15.660      14.392      12.688      10.712      8.7130      6.9344      5.4744      4.3571      3.5723      3.0968    
  2.9097      3.0009      3.3752      4.0501      5.0494      6.3900      8.0628      10.006      12.023      13.848    
  15.283      16.213      13.384      13.205      12.498      11.344      9.8862      8.3170      6.8102      5.4744    
  4.3683      3.5122      2.9040      2.5317      2.3834      2.4536      2.7447      3.2669      4.0327      5.0494    
  6.3067      7.7617      9.3250      10.849      12.133      13.013      10.372      10.226      9.6631      8.7703    
  7.6719      6.5001      5.3684      4.3571      3.5122      2.8529      2.3812      2.0912      1.9761      2.0324    
  2.2621      2.6714      3.2669      4.0501      5.0085      6.1064      7.2755      8.4131      9.3909      10.078    
  8.2615      8.1402      7.7031      7.0137      6.1642      5.2535      4.3683      3.5723      2.9040      2.3812    
  2.0073      1.7787      1.6903      1.7396      1.9286      2.2621      2.7447      3.3752      4.1397      5.0056    
  5.9164      6.7915      7.5343      8.0488      7.0756      6.9595      6.5843      6.0018      5.2864      4.5186    
  3.7705      3.0968      2.5317      2.0912      1.7787      1.5907      1.5222      1.5712      1.7396      2.0324    
  2.4536      3.0009      3.6601      4.3997      5.1683      5.8964      6.5045      6.9164      6.6963      6.5678    
  6.2002      5.6429      4.9653      4.2420      3.5399      2.9097      2.3834      1.9761      1.6903      1.5222    
  1.4669      1.5222      1.6903      1.9761      2.3834      2.9097      3.5399      4.2420      4.9653      5.6429    
  6.2002      6.5678      7.0756      6.9164      6.5045      5.8964      5.1683      4.3997      3.6601      3.0009    
  2.4536      2.0324      1.7396      1.5712      1.5222      1.5907      1.7787      2.0912      2.5317      3.0968    
  3.7705      4.5186      5.2864      6.0018      6.5843      6.9595      8.2615      8.0488      7.5343      6.7915    
  5.9164      5.0056      4.1397      3.3752      2.7447      2.2621      1.9286      1.7396      1.6903      1.7787    
  2.0073      2.3812      2.9040      3.5723      4.3683      5.2535      6.1642      7.0137      7.7031      8.1402    
  10.372      10.078      9.3909      8.4131      7.2755      6.1064      5.0085      4.0501      3.2669      2.6714    
  2.2621      2.0324      1.9761      2.0912      2.3812      2.8529      3.5122      4.3571      5.3684      6.5001    
  7.6719      8.7703      9.6631      10.226      13.384      13.013      12.133      10.849      9.3250      7.7617    
  6.3067      5.0494      4.0327      3.2669      2.7447      2.4536      2.3834      2.5317      2.9040      3.5122    
  4.3683      5.4744      6.8102      8.3170      9.8862      11.344      12.498      13.205      16.590      16.213    
  15.283      13.848      12.023      10.006      8.0628      6.3900      5.0494      4.0501      3.3752      3.0009    
  2.9097      3.0968      3.5723      4.3571      5.4744      6.9344      8.7130      10.712      12.688      14.392    
  15.660      16.403      18.900      18.635      17.919      16.672      14.874      12.645      10.254      8.0628    
  6.3067      5.0085      4.1397      3.6601      3.5399      3.7705      4.3683      5.3684      6.8102      8.7130    
  11.010      13.391      15.509      17.138      18.208      18.767      19.183      19.191      19.074      18.510    
  17.232      15.199      12.645      10.006      7.7617      6.1064      5.0056      4.3997      4.2420      4.5186    
  5.2535      6.5001      8.3170      10.712      13.391      15.857      17.709      18.780      19.180      19.214    
  16.691      17.146      18.067      18.765      18.585      17.232      14.874      12.023      9.3250      7.2755    
  5.9164      5.1683      4.9653      5.2864      6.1642      7.6719      9.8862      12.688      15.509      17.709    
  18.824      18.775      17.946      17.034      11.578      12.603      14.920      17.362      18.765      18.510    
  16.672      13.848      10.849      8.4131      6.7915      5.8964      5.6429      6.0018      7.0137      8.7703    
  11.344      14.392      17.138      18.780      18.775      17.145      14.613      12.385      5.2252      6.8154    
  10.604      14.920      18.067      19.074      17.919      15.283      12.133      9.3909      7.5343      6.5045    
  6.2002      6.5843      7.7031      9.6631      12.498      15.660      18.208      19.180      17.946      14.613    
  10.243      6.5742     -.78443E-01  1.9043      6.8154      12.603      17.146      19.191      18.635      16.213    
  13.013      10.078      8.0488      6.9164      6.5678      6.9595      8.1402      10.226      13.205      16.403    
  18.767      19.214      17.034      12.385      6.5742      1.7461     -.78443E-01  1.7461      6.5742      12.385    
  17.034      19.214      18.767      16.403      13.205      10.226      8.1402      6.9595      6.5678      6.9164    
  8.0488      10.078      13.013      16.213      18.635      19.191      17.146      12.603      6.8154      1.9043    
  1.7461      3.3580      7.7661      13.096      17.334      19.236      18.645      16.235      13.045      10.095    
  8.0309      6.8538      6.4500      6.7696      7.8524      9.8066      12.666      15.853      18.370      19.168    
  17.519      13.485      8.2041      3.6471      6.5742      7.7661      11.117      15.121      18.141      19.166    
  18.088      15.510      12.361      9.5532      7.6101      6.4931      6.0974      6.3758      7.3619      9.1530    
  11.821      14.944      17.643      18.976      18.275      15.523      11.602      8.0938      12.385      13.096    
  15.121      17.418      18.847      18.721      17.019      14.263      11.233      8.6831      6.9388      5.9270    
  5.5574      5.7887      6.6473      8.2145      10.580      13.538      16.385      18.331      18.786      17.648    
  15.476      13.353      17.034      17.334      18.141      18.847      18.793      17.616      15.395      12.581    
  9.8013      7.6065      6.1070      5.2279      4.8972      5.0818      5.8006      7.1167      9.1076      11.752    
  14.591      16.996      18.455      18.787      18.248      17.446      19.214      19.236      19.166      18.721    
  17.616      15.750      13.290      10.630      8.2566      6.4534      5.2117      4.4746      4.1898      4.3327    
  4.9158      5.9838      7.5947      9.7849      12.389      14.943      17.016      18.363      19.007      19.190    
  18.767      18.645      18.088      17.019      15.395      13.290      10.929      8.6547      6.7689      5.3361    
  4.3387      3.7384      3.5008      3.6093      4.0715      4.9161      6.1817      7.8968      10.044      12.408    
  14.636      16.453      17.731      18.478      16.403      16.235      15.510      14.263      12.581      10.630    
  8.6547      6.8947      5.4464      4.3349      3.5514      3.0735      2.8807      2.9627      3.3239      3.9809    
  4.9568      6.2680      7.9065      9.8142      11.808      13.626      15.066      16.009      13.205      13.045    
  12.361      11.233      9.8013      8.2566      6.7689      5.4464      4.3483      3.4963      2.8887      2.5142    
  2.3614      2.4244      2.7055      3.2143      3.9630      4.9586      6.1914      7.6199      9.1576      10.663    
  11.940      12.823      10.226      10.095      9.5532      8.6831      7.6065      6.4534      5.3361      4.3349    
  3.4963      2.8400      2.3687      2.0770      1.9582      2.0089      2.2306      2.6294      3.2117      3.9789    
  4.9191      5.9974      7.1479      8.2701      9.2385      9.9243      8.1402      8.0309      7.6101      6.9388    
  6.1070      5.2117      4.3387      3.5514      2.8887      2.3687      1.9955      1.7656      1.6742      1.7188    
  1.9010      2.2256      2.6969      3.3139      4.0633      4.9135      5.8094      6.6724      7.4079      7.9216    
  6.9595      6.8538      6.4931      5.9270      5.2279      4.4746      3.7384      3.0735      2.5142      2.0770    
  1.7656      1.5768      1.5058      1.5504      1.7125      1.9967      2.4070      2.9415      3.5864      4.3112    
  5.0659      5.7829      6.3843      6.7951      6.5678      6.4500      6.0974      5.5574      4.8972      4.1898    
  3.5008      2.8807      2.3614      1.9582      1.6742      1.5058      1.4480      1.4989      1.6602      1.9368    
  2.3325      2.8448      3.4594      4.1455      4.8536      5.5190      6.0686      6.4345      6.9164      6.7696    
  6.3758      5.7887      5.0818      4.3327      3.6093      2.9627      2.4244      2.0089      1.7188      1.5504    
  1.4989      1.5622      1.7424      2.0440      2.4705      3.0190      3.6739      4.4021      5.1510      5.8507    
  6.4229      6.7951      8.0488      7.8524      7.3619      6.6473      5.8006      4.9158      4.0715      3.3239    
  2.7055      2.2306      1.9010      1.7125      1.6602      1.7424      1.9611      2.3212      2.8263      3.4731    
  4.2444      5.1031      5.9879      6.8152      7.4896      7.9216      10.078      9.8066      9.1530      8.2145    
  7.1167      5.9838      4.9161      3.9809      3.2143      2.6294      2.2256      1.9967      1.9368      2.0440    
  2.3212      2.7750      3.4109      4.2266      5.2038      6.2983      7.4332      8.4995      9.3701      9.9243    
  13.013      12.666      11.821      10.580      9.1076      7.5947      6.1817      4.9568      3.9630      3.2117    
  2.6969      2.4070      2.3325      2.4705      2.8263      3.4109      4.2351      5.3012      6.5894      8.0438    
  9.5614      10.982      12.118      12.823      16.213      15.853      14.944      13.538      11.752      9.7849    
  7.8968      6.2680      4.9586      3.9789      3.3139      2.9415      2.8448      3.0190      3.4731      4.2266    
  5.3012      6.7065      8.4199      10.356      12.292      13.981      15.252      16.009      18.635      18.370    
  17.643      16.385      14.591      12.389      10.044      7.9065      6.1914      4.9191      4.0633      3.5864    
  3.4594      3.6739      4.2444      5.2038      6.5894      8.4199      10.644      12.986      15.103      16.762    
  17.877      18.478      19.191      19.168      18.976      18.331      16.996      14.943      12.408      9.8142    
  7.6199      5.9974      4.9135      4.3112      4.1455      4.4021      5.1031      6.2983      8.0438      10.356    
  12.986      15.457      17.372      18.549      19.067      19.190      17.146      17.519      18.275      18.786    
  18.455      17.016      14.636      11.808      9.1576      7.1479      5.8094      5.0659      4.8536      5.1510    
  5.9879      7.4332      9.5614      12.292      15.103      17.372      18.642      18.809      18.200      17.446    
  12.603      13.485      15.523      17.648      18.787      18.363      16.453      13.626      10.663      8.2701    
  6.6724      5.7829      5.5190      5.8507      6.8152      8.4995      10.982      13.981      16.762      18.549    
  18.809      17.525      15.340      13.353      6.8154      8.2041      11.602      15.476      18.248      19.007    
  17.731      15.066      11.940      9.2385      7.4079      6.3843      6.0686      6.4229      7.4896      9.3701    
  12.118      15.252      17.877      19.067      18.200      15.340      11.439      8.0938      1.9043      3.6471    
  8.0938      13.353      17.446      19.190      18.478      16.009      12.823      9.9243      7.9216      6.7951    
  6.4345      6.7951      7.9216      9.9243      12.823      16.009      18.478      19.190      17.446      13.353    
  8.0938      3.6471      5.2252      6.5742      10.243      14.613      17.946      19.180      18.208      15.660    
  12.498      9.6631      7.7031      6.5843      6.2002      6.5045      7.5343      9.3909      12.133      15.283    
  17.919      19.074      18.067      14.920      10.604      6.8154      6.5742      7.7661      11.117      15.121    
  18.141      19.166      18.088      15.510      12.361      9.5532      7.6101      6.4931      6.0974      6.3758    
  7.3619      9.1530      11.821      14.944      17.643      18.976      18.275      15.523      11.602      8.0938    
  10.243      11.117      13.635      16.582      18.629      18.955      17.500      14.811      11.723      9.0576    
  7.2244      6.1622      5.7743      6.0163      6.9164      8.5618      11.040      14.069      16.875      18.611    
  18.651      16.920      14.093      11.439      14.613      15.121      16.582      18.157      18.922      18.330    
  16.396      13.603      10.663      8.2514      6.6016      5.6368      5.2740      5.4746      6.2606      7.7045    
  9.8930      12.720      15.584      17.768      18.712      18.271      16.859      15.340      17.946      18.141    
  18.629      18.922      18.496      17.074      14.760      11.982      9.3194      7.2468      5.8244      4.9835    
  4.6584      4.8181      5.4784      6.6950      8.5387      11.024      13.799      16.286      17.998      18.726    
  18.636      18.200      19.180      19.166      18.955      18.330      17.074      15.133      12.689      10.119    
  7.8717      6.1649      4.9834      4.2760      3.9954      4.1187      4.6562      5.6471      7.1436      9.1818    
  11.663      14.184      16.329      17.843      18.699      19.067      18.208      18.088      17.500      16.396    
  14.760      12.689      10.410      8.2537      6.4714      5.1113      4.1593      3.5816      3.3470      3.4404    
  3.8678      4.6543      5.8342      7.4331      9.4400      11.701      13.887      15.724      17.063      17.877    
  15.660      15.510      14.811      13.603      11.982      10.119      8.2537      6.5931      5.2208      4.1629    
  3.4129      2.9518      2.7612      2.8316      3.1664      3.7802      4.6931      5.9194      7.4510      9.2365    
  11.132      12.891      14.308      15.252      12.498      12.361      11.723      10.663      9.3194      7.8717    
  6.4714      5.2208      4.1779      3.3649      2.7821      2.4201      2.2689      2.3228      2.5839      3.0603    
  3.7626      4.6965      5.8521      7.1905      8.6313      10.048      11.265      12.118      9.6631      9.5532    
  9.0576      8.2514      7.2468      6.1649      5.1113      4.1629      3.3649      2.7377      2.2851      2.0029    
  1.8852      1.9286      2.1346      2.5083      3.0554      3.7764      4.6597      5.6724      6.7527      7.8073    
  8.7197      9.3701      7.7031      7.6101      7.2244      6.6016      5.8244      4.9834      4.1593      3.4129    
  2.7821      2.2851      1.9268      1.7044      1.6136      1.6521      1.8212      2.1252      2.5678      3.1477    
  3.8523      4.6517      5.4944      6.3070      7.0014      7.4896      6.5843      6.4931      6.1622      5.6368    
  4.9835      4.2760      3.5816      2.9518      2.4201      2.0029      1.7044      1.5219      1.4512      1.4901    
  1.6402      1.9058      2.2903      2.7918      3.3974      4.0784      4.7883      5.4636      6.0318      6.4229    
  6.2002      6.0974      5.7743      5.2740      4.6584      3.9954      3.3470      2.7612      2.2689      1.8852    
  1.6136      1.4512      1.3934      1.4382      1.5873      1.8449      2.2145      2.6939      3.2695      3.9125    
  4.5769      5.2022      5.7206      6.0686      6.5045      6.3758      6.0163      5.4746      4.8181      4.1187    
  3.4404      2.8316      2.3228      1.9286      1.6521      1.4901      1.4382      1.4945      1.6606      1.9407    
  2.3380      2.8495      3.4606      4.1405      4.8401      5.4947      6.0318      6.3843      7.5343      7.3619    
  6.9164      6.2606      5.4784      4.6562      3.8678      3.1664      2.5839      2.1346      1.8212      1.6402    
  1.5873      1.6606      1.8620      2.1958      2.6651      3.2662      3.9831      4.7809      5.6030      6.3724    
  7.0014      7.4079      9.3909      9.1530      8.5618      7.7045      6.6950      5.6471      4.6543      3.7802    
  3.0603      2.5083      2.1252      1.9058      1.8449      1.9407      2.1958      2.6157      3.2048      3.9604    
  4.8649      5.8769      6.9258      7.9120      8.7197      9.2385      12.133      11.821      11.040      9.8930    
  8.5387      7.1436      5.8342      4.6931      3.7626      3.0554      2.5678      2.2903      2.2145      2.3380    
  2.6651      3.2048      3.9664      4.9505      6.1381      7.4778      8.8758      10.195      11.265      11.940    
  15.283      14.944      14.069      12.720      11.024      9.1818      7.4331      5.9194      4.6965      3.7764    
  3.1477      2.7918      2.6939      2.8495      3.2662      3.9604      4.9505      6.2437      7.8191      9.6068    
  11.433      13.060      14.308      15.066      17.919      17.643      16.875      15.584      13.799      11.663    
  9.4400      7.4510      5.8521      4.6597      3.8523      3.3974      3.2695      3.4606      3.9831      4.8649    
  6.1381      7.8191      9.8765      12.107      14.188      15.878      17.063      17.731      19.074      18.976    
  18.611      17.768      16.286      14.184      11.701      9.2365      7.1905      5.6724      4.6517      4.0784    
  3.9125      4.1405      4.7809      5.8769      7.4778      9.6068      12.107      14.556      16.571      17.947    
  18.699      19.007      18.067      18.275      18.651      18.712      17.998      16.329      13.887      11.132    
  8.6313      6.7527      5.4944      4.7883      4.5769      4.8401      5.6030      6.9258      8.8758      11.433    
  14.188      16.571      18.144      18.760      18.636      18.248      14.920      15.523      16.920      18.271    
  18.726      17.843      15.724      12.891      10.048      7.8073      6.3070      5.4636      5.2022      5.4947    
  6.3724      7.9120      10.195      13.060      15.878      17.947      18.760      18.241      16.859      15.476    
  10.604      11.602      14.093      16.859      18.636      18.699      17.063      14.308      11.265      8.7197    
  7.0014      6.0318      5.7206      6.0318      7.0014      8.7197      11.265      14.308      17.063      18.699    
  18.636      16.859      14.093      11.602      6.8154      8.0938      11.439      15.340      18.200      19.067    
  17.877      15.252      12.118      9.3701      7.4896      6.4229      6.0686      6.3843      7.4079      9.2385    
  11.940      15.066      17.731      19.007      18.248      15.476      11.602      8.2041      11.578      12.385    
  14.613      17.145      18.775      18.780      17.138      14.392      11.344      8.7703      7.0137      6.0018    
  5.6429      5.8964      6.7915      8.4131      10.849      13.848      16.672      18.510      18.765      17.362    
  14.920      12.603      12.385      13.096      15.121      17.418      18.847      18.721      17.019      14.263    
  11.233      8.6831      6.9388      5.9270      5.5574      5.7887      6.6473      8.2145      10.580      13.538    
  16.385      18.331      18.786      17.648      15.476      13.353      14.613      15.121      16.582      18.157    
  18.922      18.330      16.396      13.603      10.663      8.2514      6.6016      5.6368      5.2740      5.4746    
  6.2606      7.7045      9.8930      12.720      15.584      17.768      18.712      18.271      16.859      15.340    
  17.145      17.418      18.157      18.786      18.675      17.472      15.255      12.463      9.7120      7.5395    
  6.0497      5.1700      4.8299      4.9959      5.6849      6.9570      8.8872      11.469      14.281      16.703    
  18.230      18.667      18.241      17.525      18.775      18.847      18.922      18.675      17.760      16.029    
  13.628      10.952      8.5128      6.6451      5.3554      4.5853      4.2796      4.4115      4.9929      6.0697    
  7.7017      9.9241      12.544      15.072      17.063      18.275      18.760      18.809      18.780      18.721    
  18.330      17.472      16.029      14.016      11.637      9.2467      7.2188      5.6751      4.5990      3.9483    
  3.6834      3.7850      4.2606      5.1422      6.4727      8.2834      10.539      12.953      15.141      16.835    
  17.947      18.549      17.138      17.019      16.396      15.255      13.628      11.637      9.5184      7.5689    
  5.9596      4.7244      3.8533      3.3195      3.0974      3.1741      3.5540      4.2573      5.3116      6.7376    
  8.5266      10.592      12.671      14.491      15.878      16.762      14.392      14.263      13.603      12.463    
  10.952      9.2467      7.5689      6.0722      4.8283      3.8631      3.1740      2.7465      2.5655      2.6231    
  2.9218      3.4731      4.2930      5.3920      6.7614      8.3558      10.072      11.709      13.060      13.981    
  11.344      11.233      10.663      9.7120      8.5128      7.2188      5.9596      4.8283      3.8789      3.1342    
  2.5969      2.2604      2.1165      2.1606      2.3940      2.8233      3.4567      4.2975      5.3353      6.5346    
  7.8237      9.0915      10.195      10.982      8.7703      8.6831      8.2514      7.5395      6.6451      5.6751    
  4.7244      3.8631      3.1342      2.5580      2.1399      1.8772      1.7650      1.8006      1.9850      2.3222    
  2.8167      3.4680      4.2644      5.1756      6.1459      7.0923      7.9120      8.4995      7.0137      6.9388    
  6.6016      6.0497      5.3554      4.5990      3.8533      3.1740      2.5969      2.1399      1.8087      1.6016    
  1.5150      1.5468      1.6980      1.9722      2.3723      2.8966      3.5331      4.2544      5.0139      5.7460    
  6.3724      6.8152      6.0018      5.9270      5.6368      5.1700      4.5853      3.9483      3.3195      2.7465    
  2.2604      1.8772      1.6016      1.4317      1.3641      1.3966      1.5306      1.7696      2.1166      2.5694    
  3.1161      3.7307      4.3712      4.9808      5.4947      5.8507      5.6429      5.5574      5.2740      4.8299    
  4.2796      3.6834      3.0974      2.5655      2.1165      1.7650      1.5150      1.3641      1.3085      1.3464    
  1.4792      1.7104      2.0430      2.4746      2.9929      3.5719      4.1703      4.7339      5.2022      5.5190    
  5.8964      5.7887      5.4746      4.9959      4.4115      3.7850      3.1741      2.6231      2.1606      1.8006    
  1.5468      1.3966      1.3464      1.3944      1.5420      1.7928      2.1493      2.6084      3.1568      3.7665    
  4.3937      4.9808      5.4636      5.7829      6.7915      6.6473      6.2606      5.6849      4.9929      4.2606    
  3.5540      2.9218      2.3940      1.9850      1.6980      1.5306      1.4792      1.5420      1.7208      2.0190    
  2.4388      2.9766      3.6170      4.3287      5.0609      5.7460      6.3070      6.6724      8.4131      8.2145    
  7.7045      6.9570      6.0697      5.1422      4.2573      3.4731      2.8233      2.3222      1.9722      1.7696    
  1.7104      1.7928      2.0190      2.3933      2.9188      3.5918      4.3956      5.2927      6.2206      7.0923    
  7.8073      8.2701      10.849      10.580      9.8930      8.8872      7.7017      6.4727      5.3116      4.2930    
  3.4567      2.8167      2.3723      2.1166      2.0430      2.1493      2.4388      2.9188      3.5955      4.4678    
  5.5176      6.6986      7.9289      9.0915      10.048      10.663      13.848      13.538      12.720      11.469    
  9.9241      8.2834      6.7376      5.3920      4.2975      3.4680      2.8966      2.5694      2.4746      2.6084    
  2.9766      3.5918      4.4678      5.6088      6.9952      8.5672      10.206      11.709      12.891      13.626    
  16.672      16.385      15.584      14.281      12.544      10.539      8.5266      6.7614      5.3353      4.2644    
  3.5331      3.1161      2.9929      3.1568      3.6170      4.3956      5.5176      6.9952      8.8057      10.835    
  12.812      14.491      15.724      16.453      18.510      18.331      17.768      16.703      15.072      12.953    
  10.592      8.3558      6.5346      5.1756      4.2544      3.7307      3.5719      3.7665      4.3287      5.2927    
  6.6986      8.5672      10.835      13.186      15.263      16.835      17.843      18.363      18.765      18.786    
  18.712      18.230      17.063      15.141      12.671      10.072      7.8237      6.1459      5.0139      4.3712    
  4.1703      4.3937      5.0609      6.2206      7.9289      10.206      12.812      15.263      17.149      18.275    
  18.726      18.787      17.362      17.648      18.271      18.667      18.275      16.835      14.491      11.709    
  9.0915      7.0923      5.7460      4.9808      4.7339      4.9808      5.7460      7.0923      9.0915      11.709    
  14.491      16.835      18.275      18.667      18.271      17.648      14.920      15.476      16.859      18.241    
  18.760      17.947      15.878      13.060      10.195      7.9120      6.3724      5.4947      5.2022      5.4636    
  6.3070      7.8073      10.048      12.891      15.724      17.843      18.726      18.271      16.920      15.523    
  12.603      13.353      15.340      17.525      18.809      18.549      16.762      13.981      10.982      8.4995    
  6.8152      5.8507      5.5190      5.7829      6.6724      8.2701      10.663      13.626      16.453      18.363    
  18.787      17.648      15.523      13.485      16.691      17.034      17.946      18.775      18.824      17.709    
  15.509      12.688      9.8862      7.6719      6.1642      5.2864      4.9653      5.1683      5.9164      7.2755    
  9.3250      12.023      14.874      17.232      18.585      18.765      18.067      17.146      17.034      17.334    
  18.141      18.847      18.793      17.616      15.395      12.581      9.8013      7.6065      6.1070      5.2279    
  4.8972      5.0818      5.8006      7.1167      9.1076      11.752      14.591      16.996      18.455      18.787    
  18.248      17.446      17.946      18.141      18.629      18.922      18.496      17.074      14.760      11.982    
  9.3194      7.2468      5.8244      4.9835      4.6584      4.8181      5.4784      6.6950      8.5387      11.024    
  13.799      16.286      17.998      18.726      18.636      18.200      18.775      18.847      18.922      18.675    
  17.760      16.029      13.628      10.952      8.5128      6.6451      5.3554      4.5853      4.2796      4.4115    
  4.9929      6.0697      7.7017      9.9241      12.544      15.072      17.063      18.275      18.760      18.809    
  18.824      18.793      18.496      17.760      16.421      14.461      12.070      9.6110      7.4939      5.8822    
  4.7601      4.0825      3.8065      3.9111      4.4044      5.3211      6.7074      8.5961      10.932      13.380    
  15.540      17.149      18.144      18.642      17.709      17.616      17.074      16.029      14.461      12.457    
  10.240      8.1339      6.3867      5.0480      4.1066      3.5309      3.2909      3.3711      3.7769      4.5320    
  5.6687      7.2112      9.1487      11.342      13.471      15.263      16.571      17.372      15.509      15.395    