S                                       
   1.00000000000000     
     2.580697    0.000000   -0.065568
    -0.067255    2.579821   -0.065568
     0.000000    0.000000    2.581530
   S 
     1
Direct
  0.000000  0.000000  0.000000
 
   24   24   24
 -.21472899059E+01 -.78442810245E-01 0.52251895317E+01 0.11578358794E+02 0.16691012907E+02
 0.19183464898E+02 0.18899638459E+02 0.16589895642E+02 0.13383652505E+02 0.10371631794E+02
 0.82615257349E+01 0.70756400935E+01 0.66963202020E+01 0.70756400935E+01 0.82615257349E+01
 0.10371631794E+02 0.13383652505E+02 0.16589895642E+02 0.18899638459E+02 0.19183464898E+02
 0.16691012907E+02 0.11578358794E+02 0.52251895317E+01 -.78442810245E-01 -.78442810245E-01
 0.17461458116E+01 0.65741804734E+01 0.12385005441E+02 0.17034033875E+02 0.19213762456E+02
 0.18766973806E+02 0.16403281464E+02 0.13205052962E+02 0.10225600082E+02 0.81402028903E+01
 0.69594505896E+01 0.65677989522E+01 0.69163541318E+01 0.80488234877E+01 0.10077936917E+02
 0.13012994487E+02 0.16212709457E+02 0.18634514917E+02 0.19191407997E+02 0.17145566495E+02
 0.12602699092E+02 0.68153516835E+01 0.19043005603E+01 0.52251895317E+01 0.65741804734E+01
 0.10243305593E+02 0.14613091657E+02 0.17945739897E+02 0.19179745899E+02 0.18207561404E+02
 0.15659826515E+02 0.12498069993E+02 0.96631319759E+01 0.77030556933E+01 0.65842610744E+01
 0.62001857319E+01 0.65045043133E+01 0.75342813621E+01 0.93908897642E+01 0.12133442780E+02
 0.15282875016E+02 0.17919498240E+02 0.19073805376E+02 0.18067015536E+02 0.14920265439E+02
 0.10603707949E+02 0.68153516835E+01 0.11578358794E+02 0.12385005441E+02 0.14613091657E+02
 0.17145284922E+02 0.18774923596E+02 0.18779574726E+02 0.17138483027E+02 0.14392357826E+02
 0.11344326243E+02 0.87703015221E+01 0.70136721395E+01 0.60017880668E+01 0.56429157094E+01
 0.58964453528E+01 0.67915079318E+01 0.84131079118E+01 0.10848781547E+02 0.13848073617E+02
 0.16672344706E+02 0.18510091676E+02 0.18765346115E+02 0.17361714432E+02 0.14920265439E+02
 0.12602699092E+02 0.16691012907E+02 0.17034033875E+02 0.17945739897E+02 0.18774923596E+02
 0.18823817103E+02 0.17708836481E+02 0.15509420939E+02 0.12687586733E+02 0.98861983383E+01
 0.76718612117E+01 0.61641951719E+01 0.52863626266E+01 0.49653228295E+01 0.51683104112E+01
 0.59164171501E+01 0.72755055029E+01 0.93249612373E+01 0.12022785760E+02 0.14874249050E+02
 0.17232261973E+02 0.18584881506E+02 0.18765346115E+02 0.18067015536E+02 0.17145566495E+02
 0.19183464898E+02 0.19213762456E+02 0.19179745899E+02 0.18779574726E+02 0.17708836481E+02
 0.15856540563E+02 0.13390858270E+02 0.10712193394E+02 0.83170160649E+01 0.65000973340E+01
 0.52535042046E+01 0.45185561539E+01 0.42420246447E+01 0.43997215714E+01 0.50056064712E+01
 0.61063664459E+01 0.77616976212E+01 0.10005906459E+02 0.12644746312E+02 0.15198930519E+02
 0.17232261973E+02 0.18510091676E+02 0.19073805376E+02 0.19191407997E+02 0.18899638459E+02
 0.18766973806E+02 0.18207561404E+02 0.17138483027E+02 0.15509420939E+02 0.13390858270E+02
 0.11009695762E+02 0.87129884570E+01 0.68102482067E+01 0.53683993098E+01 0.43683033953E+01
 0.37705234512E+01 0.35398858326E+01 0.36601283374E+01 0.41396602643E+01 0.50085398782E+01
 0.63067127520E+01 0.80628227705E+01 0.10253958473E+02 0.12644746312E+02 0.14874249050E+02
 0.16672344706E+02 0.17919498240E+02 0.18634514917E+02 0.16589895642E+02 0.16403281464E+02
 0.15659826515E+02 0.14392357826E+02 0.12687586733E+02 0.10712193394E+02 0.87129884570E+01
 0.69343949030E+01 0.54744198115E+01 0.43570939148E+01 0.35722705780E+01 0.30968243615E+01
 0.29096997442E+01 0.30009117425E+01 0.33751569649E+01 0.40501110786E+01 0.50494272546E+01
 0.63900081881E+01 0.80628227705E+01 0.10005906459E+02 0.12022785760E+02 0.13848073617E+02
 0.15282875016E+02 0.16212709457E+02 0.13383652505E+02 0.13205052962E+02 0.12498069993E+02
 0.11344326243E+02 0.98861983383E+01 0.83170160649E+01 0.68102482067E+01 0.54744198115E+01
 0.43682502161E+01 0.35122470412E+01 0.29040101031E+01 0.25316633618E+01 0.23834373385E+01
 0.24535733603E+01 0.27447460557E+01 0.32669219858E+01 0.40327461582E+01 0.50494272546E+01
 0.63067127520E+01 0.77616976212E+01 0.93249612373E+01 0.10848781547E+02 0.12133442780E+02
 0.13012994487E+02 0.10371631794E+02 0.10225600082E+02 0.96631319759E+01 0.87703015221E+01
 0.76718612117E+01 0.65000973340E+01 0.53683993098E+01 0.43570939148E+01 0.35122470412E+01
 0.28529204012E+01 0.23811868083E+01 0.20912012922E+01 0.19760822797E+01 0.20324134081E+01
 0.22621024790E+01 0.26713501238E+01 0.32669219858E+01 0.40501110786E+01 0.50085398782E+01
 0.61063664459E+01 0.72755055029E+01 0.84131079118E+01 0.93908897642E+01 0.10077936917E+02
 0.82615257349E+01 0.81402028903E+01 0.77030556933E+01 0.70136721395E+01 0.61641951719E+01
 0.52535042046E+01 0.43683033953E+01 0.35722705780E+01 0.29040101031E+01 0.23811868083E+01
 0.20073208081E+01 0.17787184569E+01 0.16902993968E+01 0.17396348125E+01 0.19285720893E+01
 0.22621024790E+01 0.27447460557E+01 0.33751569649E+01 0.41396602643E+01 0.50056064712E+01
 0.59164171501E+01 0.67915079318E+01 0.75342813621E+01 0.80488234877E+01 0.70756400935E+01
 0.69594505896E+01 0.65842610744E+01 0.60017880668E+01 0.52863626266E+01 0.45185561539E+01
 0.37705234512E+01 0.30968243615E+01 0.25316633618E+01 0.20912012922E+01 0.17787184569E+01
 0.15906689062E+01 0.15222205923E+01 0.15712053147E+01 0.17396348125E+01 0.20324134081E+01
 0.24535733603E+01 0.30009117425E+01 0.36601283374E+01 0.43997215714E+01 0.51683104112E+01
 0.58964453528E+01 0.65045043133E+01 0.69163541318E+01 0.66963202020E+01 0.65677989522E+01
 0.62001857319E+01 0.56429157094E+01 0.49653228295E+01 0.42420246447E+01 0.35398858326E+01
 0.29096997442E+01 0.23834373385E+01 0.19760822797E+01 0.16902993968E+01 0.15222205923E+01
 0.14669013846E+01 0.15222205923E+01 0.16902993968E+01 0.19760822797E+01 0.23834373385E+01
 0.29096997442E+01 0.35398858326E+01 0.42420246447E+01 0.49653228295E+01 0.56429157094E+01
 0.62001857319E+01 0.65677989522E+01 0.70756400935E+01 0.69163541318E+01 0.65045043133E+01
 0.58964453528E+01 0.51683104112E+01 0.43997215714E+01 0.36601283374E+01 0.30009117425E+01
 0.24535733603E+01 0.20324134081E+01 0.17396348125E+01 0.15712053147E+01 0.15222205923E+01
 0.15906689062E+01 0.17787184569E+01 0.20912012922E+01 0.25316633618E+01 0.30968243615E+01
 0.37705234512E+01 0.45185561539E+01 0.52863626266E+01 0.60017880668E+01 0.65842610744E+01
 0.69594505896E+01 0.82615257349E+01 0.80488234877E+01 0.75342813621E+01 0.67915079318E+01
 0.59164171501E+01 0.50056064712E+01 0.41396602643E+01 0.33751569649E+01 0.27447460557E+01
 0.22621024790E+01 0.19285720893E+01 0.17396348125E+01 0.16902993968E+01 0.17787184569E+01
 0.20073208081E+01 0.23811868083E+01 0.29040101031E+01 0.35722705780E+01 0.43683033953E+01
 0.52535042046E+01 0.61641951719E+01 0.70136721395E+01 0.77030556933E+01 0.81402028903E+01
 0.10371631794E+02 0.10077936917E+02 0.93908897642E+01 0.84131079118E+01 0.72755055029E+01
 0.61063664459E+01 0.50085398782E+01 0.40501110786E+01 0.32669219858E+01 0.26713501238E+01
 0.22621024790E+01 0.20324134081E+01 0.19760822797E+01 0.20912012922E+01 0.23811868083E+01
 0.28529204012E+01 0.35122470412E+01 0.43570939148E+01 0.53683993098E+01 0.65000973340E+01
 0.76718612117E+01 0.87703015221E+01 0.96631319759E+01 0.10225600082E+02 0.13383652505E+02
 0.13012994487E+02 0.12133442780E+02 0.10848781547E+02 0.93249612373E+01 0.77616976212E+01
 0.63067127520E+01 0.50494272546E+01 0.40327461582E+01 0.32669219858E+01 0.27447460557E+01
 0.24535733603E+01 0.23834373385E+01 0.25316633618E+01 0.29040101031E+01 0.35122470412E+01
 0.43682502161E+01 0.54744198115E+01 0.68102482067E+01 0.83170160649E+01 0.98861983383E+01
 0.11344326243E+02 0.12498069993E+02 0.13205052962E+02 0.16589895642E+02 0.16212709457E+02
 0.15282875016E+02 0.13848073617E+02 0.12022785760E+02 0.10005906459E+02 0.80628227705E+01
 0.63900081881E+01 0.50494272546E+01 0.40501110786E+01 0.33751569649E+01 0.30009117425E+01
 0.29096997442E+01 0.30968243615E+01 0.35722705780E+01 0.43570939148E+01 0.54744198115E+01
 0.69343949030E+01 0.87129884570E+01 0.10712193394E+02 0.12687586733E+02 0.14392357826E+02
 0.15659826515E+02 0.16403281464E+02 0.18899638459E+02 0.18634514917E+02 0.17919498240E+02
 0.16672344706E+02 0.14874249050E+02 0.12644746312E+02 0.10253958473E+02 0.80628227705E+01
 0.63067127520E+01 0.50085398782E+01 0.41396602643E+01 0.36601283374E+01 0.35398858326E+01
 0.37705234512E+01 0.43683033953E+01 0.53683993098E+01 0.68102482067E+01 0.87129884570E+01
 0.11009695762E+02 0.13390858270E+02 0.15509420939E+02 0.17138483027E+02 0.18207561404E+02
 0.18766973806E+02 0.19183464898E+02 0.19191407997E+02 0.19073805376E+02 0.18510091676E+02
 0.17232261973E+02 0.15198930519E+02 0.12644746312E+02 0.10005906459E+02 0.77616976212E+01
 0.61063664459E+01 0.50056064712E+01 0.43997215714E+01 0.42420246447E+01 0.45185561539E+01
 0.52535042046E+01 0.65000973340E+01 0.83170160649E+01 0.10712193394E+02 0.13390858270E+02
 0.15856540563E+02 0.17708836481E+02 0.18779574726E+02 0.19179745899E+02 0.19213762456E+02
 0.16691012907E+02 0.17145566495E+02 0.18067015536E+02 0.18765346115E+02 0.18584881506E+02
 0.17232261973E+02 0.14874249050E+02 0.12022785760E+02 0.93249612373E+01 0.72755055029E+01
 0.59164171501E+01 0.51683104112E+01 0.49653228295E+01 0.52863626266E+01 0.61641951719E+01
 0.76718612117E+01 0.98861983383E+01 0.12687586733E+02 0.15509420939E+02 0.17708836481E+02
 0.18823817103E+02 0.18774923596E+02 0.17945739897E+02 0.17034033875E+02 0.11578358794E+02
 0.12602699092E+02 0.14920265439E+02 0.17361714432E+02 0.18765346115E+02 0.18510091676E+02
 0.16672344706E+02 0.13848073617E+02 0.10848781547E+02 0.84131079118E+01 0.67915079318E+01
 0.58964453528E+01 0.56429157094E+01 0.60017880668E+01 0.70136721395E+01 0.87703015221E+01
 0.11344326243E+02 0.14392357826E+02 0.17138483027E+02 0.18779574726E+02 0.18774923596E+02
 0.17145284922E+02 0.14613091657E+02 0.12385005441E+02 0.52251895317E+01 0.68153516835E+01
 0.10603707949E+02 0.14920265439E+02 0.18067015536E+02 0.19073805376E+02 0.17919498240E+02
 0.15282875016E+02 0.12133442780E+02 0.93908897642E+01 0.75342813621E+01 0.65045043133E+01
 0.62001857319E+01 0.65842610744E+01 0.77030556933E+01 0.96631319759E+01 0.12498069993E+02
 0.15659826515E+02 0.18207561404E+02 0.19179745899E+02 0.17945739897E+02 0.14613091657E+02
 0.10243305593E+02 0.65741804734E+01 -.78442810245E-01 0.19043005603E+01 0.68153516835E+01
 0.12602699092E+02 0.17145566495E+02 0.19191407997E+02 0.18634514917E+02 0.16212709457E+02
 0.13012994487E+02 0.10077936917E+02 0.80488234877E+01 0.69163541318E+01 0.65677989522E+01
 0.69594505896E+01 0.81402028903E+01 0.10225600082E+02 0.13205052962E+02 0.16403281464E+02
 0.18766973806E+02 0.19213762456E+02 0.17034033875E+02 0.12385005441E+02 0.65741804734E+01
 0.17461458116E+01 -.78442810245E-01 0.17461458116E+01 0.65741804734E+01 0.12385005441E+02
 0.17034033875E+02 0.19213762456E+02 0.18766973806E+02 0.16403281464E+02 0.13205052962E+02
 0.10225600082E+02 0.81402028903E+01 0.69594505896E+01 0.65677989522E+01 0.69163541318E+01
 0.80488234877E+01 0.10077936917E+02 0.13012994487E+02 0.16212709457E+02 0.18634514917E+02
 0.19191407997E+02 0.17145566495E+02 0.12602699092E+02 0.68153516835E+01 0.19043005603E+01
 0.17461458116E+01 0.33580132512E+01 0.77661410928E+01 0.13096271759E+02 0.17333798247E+02
 0.19236127601E+02 0.18645412466E+02 0.16234961023E+02 0.13044934651E+02 0.10094953682E+02
 0.80309261947E+01 0.68537993669E+01 0.64499506230E+01 0.67695600423E+01 0.78524123623E+01
 0.98066079545E+01 0.12666015964E+02 0.15853433777E+02 0.18370369448E+02 0.19167828426E+02
 0.17519021375E+02 0.13484691245E+02 0.82041241440E+01 0.36470771974E+01 0.65741804734E+01
 0.77661410928E+01 0.11117331920E+02 0.15121191982E+02 0.18140815057E+02 0.19165602632E+02
 0.18088003124E+02 0.15510439051E+02 0.12361008300E+02 0.95531810991E+01 0.76100873390E+01
 0.64931022971E+01 0.60973708202E+01 0.63757588005E+01 0.73619096038E+01 0.91530090041E+01
 0.11820703588E+02 0.14944368450E+02 0.17642721719E+02 0.18976435380E+02 0.18274671338E+02
 0.15522720572E+02 0.11602247981E+02 0.80937822865E+01 0.12385005441E+02 0.13096271759E+02
 0.15121191982E+02 0.17417627735E+02 0.18846703012E+02 0.18720652807E+02 0.17019052179E+02
 0.14263306246E+02 0.11232966267E+02 0.86831224984E+01 0.69388498487E+01 0.59270321559E+01
 0.55573964522E+01 0.57886879144E+01 0.66472524362E+01 0.82145095155E+01 0.10579846101E+02
 0.13537693370E+02 0.16384763234E+02 0.18331371912E+02 0.18786375300E+02 0.17647855969E+02
 0.15476134114E+02 0.13353155632E+02 0.17034033875E+02 0.17333798247E+02 0.18140815057E+02
 0.18846703012E+02 0.18792779343E+02 0.17615712495E+02 0.15395090255E+02 0.12581012493E+02
 0.98012678891E+01 0.76064816816E+01 0.61070090738E+01 0.52278780406E+01 0.48972268650E+01
 0.50818192300E+01 0.58006457253E+01 0.71167189597E+01 0.91075764655E+01 0.11751511770E+02
 0.14591462942E+02 0.16995657544E+02 0.18455107472E+02 0.18786971629E+02 0.18247867911E+02
 0.17446077780E+02 0.19213762456E+02 0.19236127601E+02 0.19165602632E+02 0.18720652807E+02
 0.17615712495E+02 0.15749514736E+02 0.13289756176E+02 0.10629833912E+02 0.82566146021E+01
 0.64533676576E+01 0.52116916222E+01 0.44746043947E+01 0.41897596695E+01 0.43326529548E+01
 0.49157849948E+01 0.59837745678E+01 0.75946600682E+01 0.97848541045E+01 0.12388549707E+02
 0.14943482481E+02 0.17016143587E+02 0.18363339979E+02 0.19006939921E+02 0.19190153590E+02
 0.18766973806E+02 0.18645412466E+02 0.18088003124E+02 0.17019052179E+02 0.15395090255E+02
 0.13289756176E+02 0.10928701042E+02 0.86546720085E+01 0.67689155164E+01 0.53361050729E+01
 0.43386559359E+01 0.37384038419E+01 0.35007838543E+01 0.36093354361E+01 0.40715373618E+01
 0.49160904229E+01 0.61817077374E+01 0.78967877485E+01 0.10043547710E+02 0.12408318275E+02
 0.14635857640E+02 0.16452984477E+02 0.17731394655E+02 0.18478470681E+02 0.16403281464E+02
 0.16234961023E+02 0.15510439051E+02 0.14263306246E+02 0.12581012493E+02 0.10629833912E+02
 0.86546720085E+01 0.68946985134E+01 0.54463705219E+01 0.43349026757E+01 0.35513584835E+01
 0.30734955465E+01 0.28806532535E+01 0.29627265417E+01 0.33238565934E+01 0.39809075166E+01
 0.49567553046E+01 0.62680122623E+01 0.79064686301E+01 0.98141829679E+01 0.11808336164E+02
 0.13626114030E+02 0.15065970798E+02 0.16009015679E+02 0.13205052962E+02 0.13044934651E+02
 0.12361008300E+02 0.11232966267E+02 0.98012678891E+01 0.82566146021E+01 0.67689155164E+01
 0.54463705219E+01 0.43483450321E+01 0.34962856444E+01 0.28886608821E+01 0.25141941508E+01
 0.23613720294E+01 0.24243600176E+01 0.27055006418E+01 0.32142959929E+01 0.39629645070E+01
 0.49585728788E+01 0.61913617034E+01 0.76199380968E+01 0.91576087485E+01 0.10662580585E+02
 0.11939846421E+02 0.12822536563E+02 0.10225600082E+02 0.10094953682E+02 0.95531810991E+01
 0.86831224984E+01 0.76064816816E+01 0.64533676576E+01 0.53361050729E+01 0.43349026757E+01
 0.34962856444E+01 0.28399856848E+01 0.23686977656E+01 0.20770076582E+01 0.19582159351E+01
 0.20088501199E+01 0.22305914307E+01 0.26293521512E+01 0.32116812364E+01 0.39788886468E+01
 0.49190527720E+01 0.59974493832E+01 0.71479006345E+01 0.82701194221E+01 0.92385370732E+01
 0.99243308469E+01 0.81402028903E+01 0.80309261947E+01 0.76100873390E+01 0.69388498487E+01
 0.61070090738E+01 0.52116916222E+01 0.43386559359E+01 0.35513584835E+01 0.28886608821E+01
 0.23686977656E+01 0.19954638881E+01 0.17656110371E+01 0.16742074431E+01 0.17187729483E+01
 0.19009641290E+01 0.22255516866E+01 0.26969395610E+01 0.33139101533E+01 0.40632990626E+01
 0.49134661540E+01 0.58093779959E+01 0.66723991621E+01 0.74079274916E+01 0.79215606363E+01
 0.69594505896E+01 0.68537993669E+01 0.64931022971E+01 0.59270321559E+01 0.52278780406E+01
 0.44746043947E+01 0.37384038419E+01 0.30734955465E+01 0.25141941508E+01 0.20770076582E+01
 0.17656110371E+01 0.15767614343E+01 0.15057582981E+01 0.15503799920E+01 0.17124559770E+01
 0.19966923305E+01 0.24070492717E+01 0.29415190139E+01 0.35863787684E+01 0.43111518836E+01
 0.50659093000E+01 0.57829292253E+01 0.63842877294E+01 0.67951063002E+01 0.65677989522E+01
 0.64499506230E+01 0.60973708202E+01 0.55573964522E+01 0.48972268650E+01 0.41897596695E+01
 0.35007838543E+01 0.28806532535E+01 0.23613720294E+01 0.19582159351E+01 0.16742074431E+01
 0.15057582981E+01 0.14480430401E+01 0.14988836862E+01 0.16602239953E+01 0.19368232812E+01
 0.23325004967E+01 0.28448219525E+01 0.34594340490E+01 0.41454614920E+01 0.48536497096E+01
 0.55189592267E+01 0.60685709311E+01 0.64344983160E+01 0.69163541318E+01 0.67695600423E+01
 0.63757588005E+01 0.57886879144E+01 0.50818192300E+01 0.43326529548E+01 0.36093354361E+01
 0.29627265417E+01 0.24243600176E+01 0.20088501199E+01 0.17187729483E+01 0.15503799920E+01
 0.14988836862E+01 0.15622131789E+01 0.17423592555E+01 0.20439683161E+01 0.24705316759E+01
 0.30189954297E+01 0.36738561299E+01 0.44021229620E+01 0.51510432847E+01 0.58507203007E+01
 0.64229094561E+01 0.67951063002E+01 0.80488234877E+01 0.78524123623E+01 0.73619096038E+01
 0.66472524362E+01 0.58006457253E+01 0.49157849948E+01 0.40715373618E+01 0.33238565934E+01
 0.27055006418E+01 0.22305914307E+01 0.19009641290E+01 0.17124559770E+01 0.16602239953E+01
 0.17423592555E+01 0.19610820530E+01 0.23212268499E+01 0.28263460358E+01 0.34730628807E+01
 0.42443722640E+01 0.51030982115E+01 0.59879108184E+01 0.68152397802E+01 0.74895852928E+01
 0.79215606363E+01 0.10077936917E+02 0.98066079545E+01 0.91530090041E+01 0.82145095155E+01
 0.71167189597E+01 0.59837745678E+01 0.49160904229E+01 0.39809075166E+01 0.32142959929E+01
 0.26293521512E+01 0.22255516866E+01 0.19966923305E+01 0.19368232812E+01 0.20439683161E+01
 0.23212268499E+01 0.27750391186E+01 0.34108652689E+01 0.42265795517E+01 0.52037998602E+01
 0.62983268459E+01 0.74331657548E+01 0.84995236326E+01 0.93701283503E+01 0.99243308469E+01
 0.13012994487E+02 0.12666015964E+02 0.11820703588E+02 0.10579846101E+02 0.91075764655E+01
 0.75946600682E+01 0.61817077374E+01 0.49567553046E+01 0.39629645070E+01 0.32116812364E+01
 0.26969395610E+01 0.24070492717E+01 0.23325004967E+01 0.24705316759E+01 0.28263460358E+01
 0.34108652689E+01 0.42351251820E+01 0.53011852520E+01 0.65893986831E+01 0.80438288942E+01
 0.95614321367E+01 0.10982469292E+02 0.12117613093E+02 0.12822536563E+02 0.16212709457E+02
 0.15853433777E+02 0.14944368450E+02 0.13537693370E+02 0.11751511770E+02 0.97848541045E+01
 0.78967877485E+01 0.62680122623E+01 0.49585728788E+01 0.39788886468E+01 0.33139101533E+01
 0.29415190139E+01 0.28448219525E+01 0.30189954297E+01 0.34730628807E+01 0.42265795517E+01
 0.53011852520E+01 0.67064552923E+01 0.84198965846E+01 0.10355865415E+02 0.12291726320E+02
 0.13981202158E+02 0.15251943610E+02 0.16009015679E+02 0.18634514917E+02 0.18370369448E+02
 0.17642721719E+02 0.16384763234E+02 0.14591462942E+02 0.12388549707E+02 0.10043547710E+02
 0.79064686301E+01 0.61913617034E+01 0.49190527720E+01 0.40632990626E+01 0.35863787684E+01
 0.34594340490E+01 0.36738561299E+01 0.42443722640E+01 0.52037998602E+01 0.65893986831E+01
 0.84198965846E+01 0.10644185173E+02 0.12985615408E+02 0.15102504698E+02 0.16761693433E+02
 0.17876818597E+02 0.18478470681E+02 0.19191407997E+02 0.19167828426E+02 0.18976435380E+02
 0.18331371912E+02 0.16995657544E+02 0.14943482481E+02 0.12408318275E+02 0.98141829679E+01
 0.76199380968E+01 0.59974493832E+01 0.49134661540E+01 0.43111518836E+01 0.41454614920E+01
 0.44021229620E+01 0.51030982115E+01 0.62983268459E+01 0.80438288942E+01 0.10355865415E+02
 0.12985615408E+02 0.15456754032E+02 0.17372216284E+02 0.18549229035E+02 0.19066842490E+02
 0.19190153590E+02 0.17145566495E+02 0.17519021375E+02 0.18274671338E+02 0.18786375300E+02
 0.18455107472E+02 0.17016143587E+02 0.14635857640E+02 0.11808336164E+02 0.91576087485E+01
 0.71479006345E+01 0.58093779959E+01 0.50659093000E+01 0.48536497096E+01 0.51510432847E+01
 0.59879108184E+01 0.74331657548E+01 0.95614321367E+01 0.12291726320E+02 0.15102504698E+02
 0.17372216284E+02 0.18642298206E+02 0.18808619110E+02 0.18200153462E+02 0.17446077780E+02
 0.12602699092E+02 0.13484691245E+02 0.15522720572E+02 0.17647855969E+02 0.18786971629E+02
 0.18363339979E+02 0.16452984477E+02 0.13626114030E+02 0.10662580585E+02 0.82701194221E+01
 0.66723991621E+01 0.57829292253E+01 0.55189592267E+01 0.58507203007E+01 0.68152397802E+01
 0.84995236326E+01 0.10982469292E+02 0.13981202158E+02 0.16761693433E+02 0.18549229035E+02
 0.18808619110E+02 0.17525199380E+02 0.15339538445E+02 0.13353155632E+02 0.68153516835E+01
 0.82041241440E+01 0.11602247981E+02 0.15476134114E+02 0.18247867911E+02 0.19006939921E+02
 0.17731394655E+02 0.15065970798E+02 0.11939846421E+02 0.92385370732E+01 0.74079274916E+01
 0.63842877294E+01 0.60685709311E+01 0.64229094561E+01 0.74895852928E+01 0.93701283503E+01
 0.12117613093E+02 0.15251943610E+02 0.17876818597E+02 0.19066842490E+02 0.18200153462E+02
 0.15339538445E+02 0.11438524227E+02 0.80937822865E+01 0.19043005603E+01 0.36470771974E+01
 0.80937822865E+01 0.13353155632E+02 0.17446077780E+02 0.19190153590E+02 0.18478470681E+02
 0.16009015679E+02 0.12822536563E+02 0.99243308469E+01 0.79215606363E+01 0.67951063002E+01
 0.64344983160E+01 0.67951063002E+01 0.79215606363E+01 0.99243308469E+01 0.12822536563E+02
 0.16009015679E+02 0.18478470681E+02 0.19190153590E+02 0.17446077780E+02 0.13353155632E+02
 0.80937822865E+01 0.36470771974E+01 0.52251895317E+01 0.65741804734E+01 0.10243305593E+02
 0.14613091657E+02 0.17945739897E+02 0.19179745899E+02 0.18207561404E+02 0.15659826515E+02
 0.12498069993E+02 0.96631319759E+01 0.77030556933E+01 0.65842610744E+01 0.62001857319E+01
 0.65045043133E+01 0.75342813621E+01 0.93908897642E+01 0.12133442780E+02 0.15282875016E+02
 0.17919498240E+02 0.19073805376E+02 0.18067015536E+02 0.14920265439E+02 0.10603707949E+02
 0.68153516835E+01 0.65741804734E+01 0.77661410928E+01 0.11117331920E+02 0.15121191982E+02
 0.18140815057E+02 0.19165602632E+02 0.18088003124E+02 0.15510439051E+02 0.12361008300E+02
 0.95531810991E+01 0.76100873390E+01 0.64931022971E+01 0.60973708202E+01 0.63757588005E+01
 0.73619096038E+01 0.91530090041E+01 0.11820703588E+02 0.14944368450E+02 0.17642721719E+02
 0.18976435380E+02 0.18274671338E+02 0.15522720572E+02 0.11602247981E+02 0.80937822865E+01
 0.10243305593E+02 0.11117331920E+02 0.13634696222E+02 0.16582090888E+02 0.18628564324E+02
 0.18955377337E+02 0.17500458192E+02 0.14811147857E+02 0.11723287469E+02 0.90575782418E+01
 0.72244402546E+01 0.61622053728E+01 0.57743050026E+01 0.60162721428E+01 0.69164146257E+01
 0.85618428628E+01 0.11039920644E+02 0.14068896381E+02 0.16875204098E+02 0.18610907473E+02
 0.18650918124E+02 0.16920068068E+02 0.14093467742E+02 0.11438524227E+02 0.14613091657E+02
 0.15121191982E+02 0.16582090888E+02 0.18156766273E+02 0.18922307701E+02 0.18329956607E+02
 0.16395570246E+02 0.13602973157E+02 0.10663269659E+02 0.82514327940E+01 0.66016296990E+01
 0.56367509366E+01 0.52739979187E+01 0.54746017966E+01 0.62605755987E+01 0.77045368652E+01
 0.98929543243E+01 0.12719501433E+02 0.15584473634E+02 0.17767794233E+02 0.18711554396E+02
 0.18270500142E+02 0.16859246737E+02 0.15339538445E+02 0.17945739897E+02 0.18140815057E+02
 0.18628564324E+02 0.18922307701E+02 0.18495836738E+02 0.17073705076E+02 0.14760328129E+02
 0.11982091014E+02 0.93194060292E+01 0.72468176793E+01 0.58244220504E+01 0.49834635595E+01
 0.46583913026E+01 0.48181138431E+01 0.54783599577E+01 0.66949931367E+01 0.85387453983E+01
 0.11023620535E+02 0.13799000622E+02 0.16285698690E+02 0.17997914265E+02 0.18725785830E+02
 0.18635593127E+02 0.18200153462E+02 0.19179745899E+02 0.19165602632E+02 0.18955377337E+02
 0.18329956607E+02 0.17073705076E+02 0.15132999004E+02 0.12688885519E+02 0.10119048538E+02
 0.78717379009E+01 0.61648612465E+01 0.49833536456E+01 0.42760201472E+01 0.39954134038E+01
 0.41187176270E+01 0.46561779525E+01 0.56471002704E+01 0.71436444302E+01 0.91817620206E+01
 0.11662582826E+02 0.14183634255E+02 0.16329256180E+02 0.17843237666E+02 0.18698933666E+02
 0.19066842490E+02 0.18207561404E+02 0.18088003124E+02 0.17500458192E+02 0.16395570246E+02
 0.14760328129E+02 0.12688885519E+02 0.10410403256E+02 0.82536890699E+01 0.64713558850E+01
 0.51113291279E+01 0.41592927000E+01 0.35815607696E+01 0.33470213436E+01 0.34404107377E+01
 0.38677813041E+01 0.46542596031E+01 0.58341719445E+01 0.74330513676E+01 0.94400466665E+01
 0.11700765455E+02 0.13887163132E+02 0.15724198822E+02 0.17062693989E+02 0.17876818597E+02
 0.15659826515E+02 0.15510439051E+02 0.14811147857E+02 0.13602973157E+02 0.11982091014E+02
 0.10119048538E+02 0.82536890699E+01 0.65930657518E+01 0.52208400528E+01 0.41628501260E+01
 0.34129092262E+01 0.29518400314E+01 0.27611870948E+01 0.28316004784E+01 0.31663836163E+01
 0.37802202209E+01 0.46931322128E+01 0.59194253335E+01 0.74510036331E+01 0.92365393866E+01
 0.11132071597E+02 0.12891028282E+02 0.14307658223E+02 0.15251943610E+02 0.12498069993E+02
 0.12361008300E+02 0.11723287469E+02 0.10663269659E+02 0.93194060292E+01 0.78717379009E+01
 0.64713558850E+01 0.52208400528E+01 0.41779286378E+01 0.33648879312E+01 0.27820798422E+01
 0.24201379341E+01 0.22688529897E+01 0.23228138431E+01 0.25838728624E+01 0.30602838224E+01
 0.37626117705E+01 0.46965095105E+01 0.58520927533E+01 0.71904919207E+01 0.86313355687E+01
 0.10047582178E+02 0.11264828545E+02 0.12117613093E+02 0.96631319759E+01 0.95531810991E+01
 0.90575782418E+01 0.82514327940E+01 0.72468176793E+01 0.61648612465E+01 0.51113291279E+01
 0.41628501260E+01 0.33648879312E+01 0.27376906535E+01 0.22851233821E+01 0.20029323951E+01
 0.18851882266E+01 0.19286363491E+01 0.21346273704E+01 0.25083289546E+01 0.30553831891E+01
 0.37764310233E+01 0.46597361956E+01 0.56724400496E+01 0.67527036676E+01 0.78073122981E+01
 0.87197183518E+01 0.93701283503E+01 0.77030556933E+01 0.76100873390E+01 0.72244402546E+01
 0.66016296990E+01 0.58244220504E+01 0.49833536456E+01 0.41592927000E+01 0.34129092262E+01
 0.27820798422E+01 0.22851233821E+01 0.19267540350E+01 0.17043968585E+01 0.16136397809E+01
 0.16521201398E+01 0.18212132426E+01 0.21251528181E+01 0.25678019154E+01 0.31477335737E+01
 0.38523274347E+01 0.46517363889E+01 0.54944110014E+01 0.63069922034E+01 0.70013826167E+01
 0.74895852928E+01 0.65842610744E+01 0.64931022971E+01 0.61622053728E+01 0.56367509366E+01
 0.49834635595E+01 0.42760201472E+01 0.35815607696E+01 0.29518400314E+01 0.24201379341E+01
 0.20029323951E+01 0.17043968585E+01 0.15219045547E+01 0.14511870523E+01 0.14901053739E+01
 0.16402164614E+01 0.19057524357E+01 0.22902736016E+01 0.27917873402E+01 0.33973609343E+01
 0.40784167191E+01 0.47882509117E+01 0.54636265802E+01 0.60318337370E+01 0.64229094561E+01
 0.62001857319E+01 0.60973708202E+01 0.57743050026E+01 0.52739979187E+01 0.46583913026E+01
 0.39954134038E+01 0.33470213436E+01 0.27611870948E+01 0.22688529897E+01 0.18851882266E+01
 0.16136397809E+01 0.14511870523E+01 0.13934134703E+01 0.14382176032E+01 0.15872770302E+01
 0.18448983096E+01 0.22145460539E+01 0.26938840502E+01 0.32694700149E+01 0.39124614282E+01
 0.45769131864E+01 0.52022286308E+01 0.57205895625E+01 0.60685709311E+01 0.65045043133E+01
 0.63757588005E+01 0.60162721428E+01 0.54746017966E+01 0.48181138431E+01 0.41187176270E+01
 0.34404107377E+01 0.28316004784E+01 0.23228138431E+01 0.19286363491E+01 0.16521201398E+01
 0.14901053739E+01 0.14382176032E+01 0.14944627530E+01 0.16605661932E+01 0.19407173648E+01
 0.23380341511E+01 0.28495320043E+01 0.34606305293E+01 0.41405207367E+01 0.48401497259E+01
 0.54947259457E+01 0.60318337370E+01 0.63842877294E+01 0.75342813621E+01 0.73619096038E+01
 0.69164146257E+01 0.62605755987E+01 0.54783599577E+01 0.46561779525E+01 0.38677813041E+01
 0.31663836163E+01 0.25838728624E+01 0.21346273704E+01 0.18212132426E+01 0.16402164614E+01
 0.15872770302E+01 0.16605661932E+01 0.18619893025E+01 0.21958167474E+01 0.26650558770E+01
 0.32661995853E+01 0.39830724843E+01 0.47809336605E+01 0.56030064865E+01 0.63723728707E+01
 0.70013826167E+01 0.74079274916E+01 0.93908897642E+01 0.91530090041E+01 0.85618428628E+01
 0.77045368652E+01 0.66949931367E+01 0.56471002704E+01 0.46542596031E+01 0.37802202209E+01
 0.30602838224E+01 0.25083289546E+01 0.21251528181E+01 0.19057524357E+01 0.18448983096E+01
 0.19407173648E+01 0.21958167474E+01 0.26157131748E+01 0.32048315916E+01 0.39604461307E+01
 0.48648577714E+01 0.58768883849E+01 0.69257515302E+01 0.79120464300E+01 0.87197183518E+01
 0.92385370732E+01 0.12133442780E+02 0.11820703588E+02 0.11039920644E+02 0.98929543243E+01
 0.85387453983E+01 0.71436444302E+01 0.58341719445E+01 0.46931322128E+01 0.37626117705E+01
 0.30553831891E+01 0.25678019154E+01 0.22902736016E+01 0.22145460539E+01 0.23380341511E+01
 0.26650558770E+01 0.32048315916E+01 0.39664007831E+01 0.49504684986E+01 0.61381066125E+01
 0.74778113718E+01 0.88758049065E+01 0.10195165434E+02 0.11264828545E+02 0.11939846421E+02
 0.15282875016E+02 0.14944368450E+02 0.14068896381E+02 0.12719501433E+02 0.11023620535E+02
 0.91817620206E+01 0.74330513676E+01 0.59194253335E+01 0.46965095105E+01 0.37764310233E+01
 0.31477335737E+01 0.27917873402E+01 0.26938840502E+01 0.28495320043E+01 0.32661995853E+01
 0.39604461307E+01 0.49504684986E+01 0.62436794261E+01 0.78191497272E+01 0.96068439006E+01
 0.11433077141E+02 0.13060243830E+02 0.14307658223E+02 0.15065970798E+02 0.17919498240E+02
 0.17642721719E+02 0.16875204098E+02 0.15584473634E+02 0.13799000622E+02 0.11662582826E+02
 0.94400466665E+01 0.74510036331E+01 0.58520927533E+01 0.46597361956E+01 0.38523274347E+01
 0.33973609343E+01 0.32694700149E+01 0.34606305293E+01 0.39830724843E+01 0.48648577714E+01
 0.61381066125E+01 0.78191497272E+01 0.98764501489E+01 0.12106554069E+02 0.14187615457E+02
 0.15878292128E+02 0.17062693989E+02 0.17731394655E+02 0.19073805376E+02 0.18976435380E+02
 0.18610907473E+02 0.17767794233E+02 0.16285698690E+02 0.14183634255E+02 0.11700765455E+02
 0.92365393866E+01 0.71904919207E+01 0.56724400496E+01 0.46517363889E+01 0.40784167191E+01
 0.39124614282E+01 0.41405207367E+01 0.47809336605E+01 0.58768883849E+01 0.74778113718E+01
 0.96068439006E+01 0.12106554069E+02 0.14555743242E+02 0.16571492074E+02 0.17947300672E+02