   1   1   0   0
  0.1718715E+02  0.2581530E-09  0.2581530E-09  0.2581530E-09  0.5000000E-15
  1.000000000000000E-004
  CAR 
 S                                       
    114.79842176    -15.92963686  301      6.95132137      1.00000000
    -15.930  0.0000E+00  0.0000E+00
    -15.494  0.0000E+00  0.0000E+00
    -15.058  0.0000E+00  0.0000E+00
    -14.622  0.0000E+00  0.0000E+00
    -14.187  0.0000E+00  0.0000E+00
    -13.751  0.0000E+00  0.0000E+00
    -13.315  0.0000E+00  0.0000E+00
    -12.879  0.0000E+00  0.0000E+00
    -12.444  0.0000E+00  0.0000E+00
    -12.008  0.0000E+00  0.0000E+00
    -11.572  0.0000E+00  0.0000E+00
    -11.136  0.0000E+00  0.0000E+00
    -10.701  0.0000E+00  0.0000E+00
    -10.265  0.5898E-17  0.2570E-17
     -9.829  0.1643E-01  0.7160E-02
     -9.393  0.9487E-01  0.4956E-01
     -8.957  0.1059E+00  0.1121E+00
     -8.522  0.1790E+00  0.2070E+00
     -8.086  0.2234E+00  0.3185E+00
     -7.650  0.3349E+00  0.4717E+00
     -7.214  0.3205E+00  0.6318E+00
     -6.779  0.4614E+00  0.8428E+00
     -6.343  0.4336E+00  0.1063E+01
     -5.907  0.3717E+00  0.1244E+01
     -5.471  0.3536E+00  0.1402E+01
     -5.036  0.3293E+00  0.1558E+01
     -4.600  0.3353E+00  0.1722E+01
     -4.164  0.1564E+00  0.1797E+01
     -3.728  0.2056E+00  0.1887E+01
     -3.293  0.6718E-01  0.1929E+01
     -2.857  0.6375E-01  0.1962E+01
     -2.421  0.3750E-01  0.1978E+01
     -1.985  0.3783E-01  0.1995E+01
     -1.550  0.2595E-02  0.2000E+01
     -1.114  0.2345E-03  0.2000E+01
     -0.678  0.7267E-01  0.2032E+01
     -0.242  0.2191E+00  0.2127E+01
      0.193  0.3016E+00  0.2274E+01
      0.629  0.3862E+00  0.2443E+01
      1.065  0.3956E+00  0.2627E+01
      1.501  0.6657E+00  0.2966E+01
      1.937  0.7057E+00  0.3291E+01
      2.372  0.5053E+00  0.3543E+01
      2.808  0.5010E+00  0.3786E+01
      3.244  0.7707E+00  0.4132E+01
      3.680  0.6236E+00  0.4430E+01
      4.115  0.4224E+00  0.4632E+01
      4.551  0.3657E+00  0.4798E+01
      4.987  0.5165E+00  0.5043E+01
      5.423  0.6500E+00  0.5335E+01
      5.858  0.2622E+00  0.5463E+01
      6.294  0.4460E+00  0.5672E+01
      6.730  0.4613E+00  0.5883E+01
      7.166  0.5312E+00  0.6128E+01
      7.601  0.3587E+00  0.6302E+01
      8.037  0.5190E+00  0.6553E+01
      8.473  0.4823E+00  0.6780E+01
      8.909  0.6704E+00  0.7079E+01
      9.344  0.5398E+00  0.7330E+01
      9.780  0.5210E+00  0.7573E+01
     10.216  0.5075E+00  0.7833E+01
     10.652  0.3480E+00  0.8000E+01
     11.087  0.2564E+00  0.8119E+01
     11.523  0.1424E+00  0.8194E+01
     11.959  0.1872E+00  0.8286E+01
     12.395  0.3001E+00  0.8429E+01
     12.831  0.2305E+00  0.8542E+01
     13.266  0.2534E+00  0.8653E+01
     13.702  0.2478E+00  0.8772E+01
     14.138  0.3855E+00  0.8947E+01
     14.574  0.3820E+00  0.9146E+01
     15.009  0.2113E+00  0.9256E+01
     15.445  0.2942E+00  0.9405E+01
     15.881  0.3707E+00  0.9583E+01
     16.317  0.7263E+00  0.9911E+01
     16.752  0.4980E+00  0.1015E+02
     17.188  0.5105E+00  0.1039E+02
     17.624  0.5957E+00  0.1069E+02
     18.060  0.6049E+00  0.1100E+02
     18.495  0.7603E+00  0.1134E+02
     18.931  0.7678E+00  0.1172E+02
     19.367  0.6993E+00  0.1205E+02
     19.803  0.9024E+00  0.1246E+02
     20.238  0.5222E+00  0.1272E+02
     20.674  0.5028E+00  0.1298E+02
     21.110  0.9188E+00  0.1340E+02
     21.546  0.8537E+00  0.1381E+02
     21.982  0.6344E+00  0.1411E+02
     22.417  0.8129E+00  0.1450E+02
     22.853  0.7394E+00  0.1484E+02
     23.289  0.8533E+00  0.1522E+02
     23.725  0.4947E+00  0.1545E+02
     24.160  0.7663E+00  0.1581E+02
     24.596  0.5683E+00  0.1609E+02
     25.032  0.5410E+00  0.1634E+02
     25.468  0.6828E+00  0.1667E+02
     25.903  0.7487E+00  0.1703E+02
     26.339  0.9111E+00  0.1745E+02
     26.775  0.6589E+00  0.1778E+02
     27.211  0.6750E+00  0.1811E+02
     27.646  0.6534E+00  0.1843E+02
     28.082  0.6243E+00  0.1872E+02
     28.518  0.6330E+00  0.1900E+02
     28.954  0.7515E+00  0.1934E+02
     29.389  0.5193E+00  0.1957E+02
     29.825  0.4850E+00  0.1980E+02
     30.261  0.2691E+00  0.1992E+02
     30.697  0.3502E+00  0.2008E+02
     31.132  0.6436E+00  0.2036E+02
     31.568  0.7614E+00  0.2073E+02
     32.004  0.8921E+00  0.2117E+02
     32.440  0.6401E+00  0.2148E+02
     32.876  0.6194E+00  0.2177E+02
     33.311  0.6369E+00  0.2207E+02
     33.747  0.7617E+00  0.2245E+02
     34.183  0.7262E+00  0.2281E+02
     34.619  0.7474E+00  0.2317E+02
     35.054  0.5351E+00  0.2343E+02
     35.490  0.7566E+00  0.2377E+02
     35.926  0.7125E+00  0.2409E+02
     36.362  0.9080E+00  0.2450E+02
     36.797  0.6248E+00  0.2478E+02
     37.233  0.6304E+00  0.2508E+02
     37.669  0.4590E+00  0.2530E+02
     38.105  0.3429E+00  0.2546E+02
     38.540  0.6801E+00  0.2579E+02
     38.976  0.7616E+00  0.2614E+02
     39.412  0.9075E+00  0.2656E+02
     39.848  0.7829E+00  0.2691E+02
     40.283  0.7390E+00  0.2726E+02
     40.719  0.7735E+00  0.2761E+02
     41.155  0.6196E+00  0.2790E+02
     41.591  0.8842E+00  0.2831E+02
     42.026  0.9892E+00  0.2876E+02
     42.462  0.7527E+00  0.2916E+02
     42.898  0.8274E+00  0.2954E+02
     43.334  0.5753E+00  0.2984E+02
     43.770  0.7522E+00  0.3017E+02
     44.205  0.9783E+00  0.3066E+02
     44.641  0.1199E+01  0.3124E+02
     45.077  0.1017E+01  0.3174E+02
     45.513  0.8503E+00  0.3215E+02
     45.948  0.6042E+00  0.3246E+02
     46.384  0.7986E+00  0.3284E+02
     46.820  0.4721E+00  0.3311E+02
     47.256  0.7731E+00  0.3348E+02
     47.691  0.6484E+00  0.3378E+02
     48.127  0.6807E+00  0.3414E+02
     48.563  0.8354E+00  0.3457E+02
     48.999  0.8638E+00  0.3496E+02
     49.434  0.1039E+01  0.3542E+02
     49.870  0.8897E+00  0.3583E+02
     50.306  0.8906E+00  0.3624E+02
     50.742  0.8357E+00  0.3664E+02
     51.177  0.7584E+00  0.3704E+02
     51.613  0.9068E+00  0.3744E+02
     52.049  0.8415E+00  0.3785E+02
     52.485  0.1006E+01  0.3832E+02
     52.920  0.7053E+00  0.3869E+02
     53.356  0.6322E+00  0.3899E+02
     53.792  0.1239E+01  0.3955E+02
     54.228  0.7550E+00  0.3992E+02
     54.664  0.8520E+00  0.4032E+02
     55.099  0.8923E+00  0.4076E+02
     55.535  0.9222E+00  0.4118E+02
     55.971  0.8467E+00  0.4157E+02
     56.407  0.1137E+01  0.4210E+02
     56.842  0.7445E+00  0.4248E+02
     57.278  0.6442E+00  0.4277E+02
     57.714  0.8613E+00  0.4317E+02
     58.150  0.8817E+00  0.4359E+02
     58.585  0.9159E+00  0.4401E+02
     59.021  0.6050E+00  0.4429E+02
     59.457  0.7281E+00  0.4462E+02
     59.893  0.1009E+01  0.4510E+02
     60.328  0.8532E+00  0.4550E+02
     60.764  0.1018E+01  0.4599E+02
     61.200  0.6498E+00  0.4631E+02
     61.636  0.5189E+00  0.4656E+02
     62.071  0.7653E+00  0.4694E+02
     62.507  0.1165E+01  0.4748E+02
     62.943  0.8972E+00  0.4792E+02
     63.379  0.8906E+00  0.4835E+02
     63.814  0.1108E+01  0.4886E+02
     64.250  0.9227E+00  0.4933E+02
     64.686  0.9041E+00  0.4976E+02
     65.122  0.8417E+00  0.5014E+02
     65.558  0.7927E+00  0.5053E+02
     65.993  0.6644E+00  0.5091E+02
     66.429  0.1158E+01  0.5143E+02
     66.865  0.1043E+01  0.5197E+02
     67.301  0.9991E+00  0.5246E+02
     67.736  0.9197E+00  0.5288E+02
     68.172  0.8450E+00  0.5329E+02
     68.608  0.1033E+01  0.5380E+02
     69.044  0.1076E+01  0.5431E+02
     69.479  0.8695E+00  0.5473E+02
     69.915  0.8831E+00  0.5514E+02
     70.351  0.9848E+00  0.5560E+02
     70.787  0.1089E+01  0.5611E+02
     71.222  0.8778E+00  0.5652E+02
     71.658  0.9763E+00  0.5699E+02
     72.094  0.1000E+01  0.5748E+02
     72.530  0.6806E+00  0.5781E+02
     72.965  0.1251E+01  0.5837E+02
     73.401  0.9265E+00  0.5880E+02
     73.837  0.8263E+00  0.5917E+02
     74.273  0.9441E+00  0.5960E+02
     74.708  0.1100E+01  0.6011E+02
     75.144  0.9670E+00  0.6057E+02
     75.580  0.8843E+00  0.6098E+02
     76.016  0.8746E+00  0.6139E+02
     76.452  0.7548E+00  0.6175E+02
     76.887  0.1165E+01  0.6230E+02
     77.323  0.9838E+00  0.6277E+02
     77.759  0.1116E+01  0.6332E+02
     78.195  0.1127E+01  0.6386E+02
     78.630  0.8850E+00  0.6431E+02
     79.066  0.1032E+01  0.6477E+02
     79.502  0.1435E+01  0.6545E+02
     79.938  0.9268E+00  0.6592E+02
     80.373  0.9619E+00  0.6637E+02
     80.809  0.1112E+01  0.6690E+02
     81.245  0.9452E+00  0.6735E+02
     81.681  0.1073E+01  0.6789E+02
     82.116  0.1030E+01  0.6841E+02
     82.552  0.7628E+00  0.6882E+02
     82.988  0.9701E+00  0.6927E+02
     83.424  0.1051E+01  0.6975E+02
     83.859  0.1061E+01  0.7026E+02
     84.295  0.1181E+01  0.7081E+02
     84.731  0.1296E+01  0.7143E+02
     85.167  0.8540E+00  0.7186E+02
     85.602  0.1260E+01  0.7244E+02
     86.038  0.1136E+01  0.7299E+02
     86.474  0.8283E+00  0.7338E+02
     86.910  0.1169E+01  0.7392E+02
     87.346  0.7869E+00  0.7431E+02
     87.781  0.9802E+00  0.7476E+02
     88.217  0.1229E+01  0.7534E+02
     88.653  0.9533E+00  0.7581E+02
     89.089  0.7661E+00  0.7620E+02
     89.524  0.1089E+01  0.7671E+02
     89.960  0.1051E+01  0.7718E+02
     90.396  0.8561E+00  0.7760E+02
     90.832  0.1165E+01  0.7814E+02
     91.267  0.1014E+01  0.7860E+02
     91.703  0.1176E+01  0.7920E+02
     92.139  0.1023E+01  0.7970E+02
     92.575  0.1272E+01  0.8029E+02
     93.010  0.1102E+01  0.8084E+02
     93.446  0.9592E+00  0.8130E+02
     93.882  0.1032E+01  0.8178E+02
     94.318  0.1013E+01  0.8228E+02
     94.753  0.1294E+01  0.8286E+02
     95.189  0.1292E+01  0.8347E+02
     95.625  0.1131E+01  0.8400E+02
     96.061  0.1097E+01  0.8452E+02
     96.496  0.1077E+01  0.8504E+02
     96.932  0.9880E+00  0.8551E+02
     97.368  0.9229E+00  0.8594E+02
     97.804  0.1294E+01  0.8655E+02
     98.240  0.1093E+01  0.8709E+02
     98.675  0.8557E+00  0.8751E+02
     99.111  0.1185E+01  0.8806E+02
     99.547  0.1291E+01  0.8867E+02
     99.983  0.1283E+01  0.8926E+02
    100.418  0.1116E+01  0.8981E+02
    100.854  0.1274E+01  0.9042E+02
    101.290  0.1053E+01  0.9093E+02
    101.726  0.1275E+01  0.9153E+02
    102.161  0.1295E+01  0.9214E+02
    102.597  0.9623E+00  0.9260E+02
    103.033  0.1352E+01  0.9322E+02
    103.469  0.9406E+00  0.9366E+02
    103.904  0.8092E+00  0.9405E+02
    104.340  0.5902E+00  0.9434E+02
    104.776  0.8464E+00  0.9474E+02
    105.212  0.7136E+00  0.9509E+02
    105.647  0.5248E+00  0.9534E+02
    106.083  0.3549E+00  0.9553E+02
    106.519  0.3833E+00  0.9572E+02
    106.955  0.2591E+00  0.9585E+02
    107.390  0.1243E+00  0.9591E+02
    107.826  0.1054E+00  0.9596E+02
    108.262  0.4781E-01  0.9599E+02
    108.698  0.5896E-07  0.9599E+02
    109.134  0.1594E-01  0.9600E+02
    109.569  0.0000E+00  0.9600E+02
    110.005  0.0000E+00  0.9600E+02
    110.441  0.0000E+00  0.9600E+02
    110.877  0.0000E+00  0.9600E+02
    111.312  0.0000E+00  0.9600E+02
    111.748  0.0000E+00  0.9600E+02
    112.184  0.0000E+00  0.9600E+02
    112.620  0.0000E+00  0.9600E+02
    113.055  0.0000E+00  0.9600E+02
    113.491  0.0000E+00  0.9600E+02
    113.927  0.0000E+00  0.9600E+02
    114.363  0.0000E+00  0.9600E+02
    114.798  0.0000E+00  0.9600E+02
