S                                       
           1
     2.580697    0.000000   -0.065568
    -0.067255    2.579821   -0.065568
     0.000000    0.000000    2.581530
   S 
     1
Direct configuration=     1
   0.00000000  0.00000000  0.00000000
