Sc                                      
   1.00000000000000     
     3.321450    0.000000    0.000000
     1.660725    2.876460    0.000000
     0.000000    0.000000    5.161920
   Sc
     2
Direct
  0.000000  0.000000  0.000000
  0.333333  0.333333  0.500000
 
   28   28   48
  499.06      477.05      416.31      330.62      237.46      152.71      87.018      44.186      21.518      12.010    
  8.1023      6.4303      5.7864      5.5835      5.5454      5.5830      5.7862      6.4306      8.1026      12.010    
  21.517      44.186      87.019      152.71      237.46      330.62      416.31      477.05      477.05      435.58    
  362.44      273.59      185.87      112.47      60.352      29.727      15.414      9.7068      7.2159      6.1987    
  5.8354      5.7399      5.7401      5.8357      6.1986      7.2157      9.7068      15.414      29.727      60.352    
  112.47      185.87      273.59      362.43      435.57      477.05      416.31      362.44      286.68      204.74    
  130.84      74.302      38.082      19.327      11.500      8.1356      6.6935      6.1346      5.9561      5.9222    
  5.9565      6.1348      6.6931      8.1354      11.500      19.328      38.082      74.303      130.85      204.74    
  286.68      362.44      416.30      435.84      330.62      273.59      204.74      137.55      82.393      44.360    
  22.891      13.200      9.0665      7.2144      6.4569      6.1840      6.1101      6.1099      6.1838      6.4569    
  7.2146      9.0667      13.200      22.890      44.359      82.393      137.55      204.74      273.60      330.62    
  363.05      363.05      237.46      185.87      130.84      82.393      46.693      25.033      14.467      9.8384    
  7.6813      6.7596      6.4023      6.2870      6.2643      6.2867      6.4021      6.7597      7.6815      9.8385    
  14.467      25.032      46.691      82.391      130.84      185.87      237.46      274.40      287.83      274.39    
  152.71      112.47      74.302      44.360      25.033      14.941      10.278      8.0069      6.9950      6.5842    
  6.4377      6.3980      6.3981      6.4378      6.5842      6.9947      8.0068      10.279      14.943      25.033    
  44.358      74.299      112.47      152.71      186.58      205.99      205.99      186.58      87.018      60.352    
  38.082      22.891      14.467      10.278      8.1234      7.1228      6.7043      6.5484      6.5008      6.4919    
  6.5009      6.5486      6.7043      7.1226      8.1233      10.279      14.469      22.893      38.082      60.349    
  87.014      112.86      131.72      138.64      131.72      112.86      44.186      29.727      19.327      13.200    
  9.8384      8.0069      7.1228      6.7458      6.6069      6.5662      6.5585      6.5584      6.5661      6.6071    
  6.7459      7.1223      8.0057      9.8379      13.202      19.331      29.731      44.186      60.385      74.560    
  82.859      82.861      74.565      60.389      21.518      15.414      11.500      9.0665      7.6813      6.9950    
  6.7043      6.6069      6.5887      6.5931      6.5966      6.5930      6.5886      6.6070      6.7044      6.9943    
  7.6796      9.0646      11.500      15.417      21.522      29.516      37.808      44.122      46.487      44.123    
  37.807      29.513      12.010      9.7068      8.1356      7.2144      6.7596      6.5842      6.5484      6.5662    
  6.5931      6.6098      6.6099      6.5931      6.5662      6.5488      6.5851      6.7600      7.2129      8.1322    
  9.7036      12.009      15.091      18.760      22.181      24.265      24.264      22.177      18.756      15.089    
  8.1023      7.2159      6.6935      6.4569      6.4023      6.4377      6.5008      6.5585      6.5966      6.6099    
  6.5967      6.5585      6.5008      6.4384      6.4040      6.4587      6.6934      7.2134      8.0984      9.3470    
  10.827      12.283      13.398      13.821      13.397      12.281      10.827      9.3498      6.4303      6.1987    
  6.1346      6.1840      6.2870      6.3980      6.4919      6.5584      6.5930      6.5931      6.5585      6.4915    
  6.3973      6.2868      6.1855      6.1377      6.2017      6.4309      6.8497      7.4292      8.0752      8.6414    
  8.9739      8.9739      8.6421      8.0777      7.4327      6.8520      5.7864      5.8354      5.9561      6.1101    
  6.2643      6.3981      6.5009      6.5661      6.5886      6.5662      6.5008      6.3973      6.2625      6.1084    
  5.9562      5.8381      5.7903      5.8390      5.9859      6.2015      6.4295      6.6031      6.6681      6.6040    
  6.4313      6.2032      5.9858      5.8364      5.5835      5.7399      5.9222      6.1099      6.2867      6.4378    
  6.5486      6.6071      6.6070      6.5488      6.4384      6.2868      6.1084      5.9192      5.7372      5.5831    
  5.4775      5.4325      5.4440      5.4908      5.5440      5.5779      5.5782      5.5444      5.4904      5.4418    
  5.4293      5.4752      5.5454      5.7401      5.9565      6.1838      6.4021      6.5842      6.7043      6.7459    
  6.7044      6.5851      6.4040      6.1855      5.9562      5.7372      5.5415      5.3777      5.2531      5.1712    
  5.1277      5.1104      5.1062      5.1060      5.1063      5.1097      5.1258      5.1694      5.2530      5.3802    
  5.5830      5.8357      6.1348      6.4569      6.7597      6.9947      7.1226      7.1223      6.9943      6.7600    
  6.4587      6.1377      5.8381      5.5831      5.3777      5.2167      5.0943      5.0066      4.9495      4.9171    
  4.9031      4.9030      4.9168      4.9489      5.0068      5.0962      5.2198      5.3801      5.7862      6.1986    
  6.6931      7.2146      7.6815      8.0068      8.1233      8.0057      7.6796      7.2129      6.6934      6.2017    
  5.7903      5.4775      5.2531      5.0943      4.9809      4.9011      4.8495      4.8218      4.8133      4.8217    
  4.8495      4.9017      4.9826      5.0963      5.2534      5.4750      6.4306      7.2157      8.1354      9.0667    
  9.8385      10.279      10.279      9.8379      9.0646      8.1322      7.2134      6.4309      5.8390      5.4325    
  5.1712      5.0066      4.9011      4.8336      4.7941      4.7763      4.7763      4.7942      4.8340      4.9017    
  5.0065      5.1696      5.4295      5.8364      8.1026      9.7068      11.500      13.200      14.467      14.943    
  14.469      13.202      11.500      9.7036      8.0984      6.8497      5.9859      5.4440      5.1277      4.9495    
  4.8495      4.7941      4.7663      4.7578      4.7662      4.7943      4.8497      4.9488      5.1257      5.4419    
  5.9856      6.8523      12.010      15.414      19.328      22.890      25.032      25.033      22.893      19.331    
  15.417      12.009      9.3470      7.4292      6.2015      5.4908      5.1104      4.9171      4.8218      4.7763    
  4.7578      4.7577      4.7763      4.8218      4.9168      5.1097      5.4906      6.2030      7.4324      9.3499    
  21.517      29.727      38.082      44.359      46.691      44.358      38.082      29.731      21.522      15.091    
  10.827      8.0752      6.4295      5.5440      5.1062      4.9031      4.8133      4.7763      4.7662      4.7763    
  4.8132      4.9029      5.1061      5.5446      6.4314      8.0775      10.827      15.089      44.186      60.352    
  74.303      82.393      82.391      74.299      60.349      44.186      29.516      18.760      12.283      8.6414    
  6.6031      5.5779      5.1060      4.9030      4.8217      4.7942      4.7943      4.8218      4.9029      5.1059    
  5.5783      6.6040      8.6417      12.281      18.757      29.513      87.019      112.47      130.85      137.55    
  130.84      112.47      87.014      60.385      37.808      22.181      13.398      8.9739      6.6681      5.5782    
  5.1063      4.9168      4.8495      4.8340      4.8497      4.9168      5.1061      5.5783      6.6684      8.9733    
  13.396      22.178      37.807      60.388      152.71      185.87      204.74      204.74      185.87      152.71    
  112.86      74.560      44.122      24.265      13.821      8.9739      6.6040      5.5444      5.1097      4.9489    
  4.9017      4.9017      4.9488      5.1097      5.5446      6.6040      8.9733      13.820      24.264      44.124    
  74.563      112.86      237.46      273.59      286.68      273.60      237.46      186.58      131.72      82.859    
  46.487      24.264      13.397      8.6421      6.4313      5.4904      5.1258      5.0068      4.9826      5.0065    
  5.1257      5.4906      6.4314      8.6417      13.396      24.264      46.489      82.862      131.72      186.58    
  330.62      362.43      362.44      330.62      274.40      205.99      138.64      82.861      44.123      22.177    
  12.281      8.0777      6.2032      5.4418      5.1694      5.0962      5.0963      5.1696      5.4419      6.2030    
  8.0775      12.281      22.178      44.124      82.862      138.64      205.99      274.39      416.31      435.57    
  416.30      363.05      287.83      205.99      131.72      74.565      37.807      18.756      10.827      7.4327    
  5.9858      5.4293      5.2530      5.2198      5.2534      5.4295      5.9856      7.4324      10.827      18.757    
  37.807      74.563      131.72      205.99      287.83      363.06      477.05      477.05      435.84      363.05    
  274.39      186.58      112.86      60.389      29.513      15.089      9.3498      6.8520      5.8364      5.4752    
  5.3802      5.3801      5.4750      5.8364      6.8523      9.3499      15.089      29.513      60.388      112.86    
  186.58      274.39      363.06      435.85      480.90      459.63      400.90      318.11      228.15      146.46    
  83.333      42.348      20.782      11.758      8.0059      6.4012      5.7816      5.5852      5.5495      5.5869    
  5.7814      6.3994      8.0063      11.760      20.781      42.346      83.333      146.47      228.15      318.10    
  400.91      459.63      459.63      419.54      348.85      263.04      178.42      107.77      57.795      28.581    
  15.001      9.5498      7.1590      6.1823      5.8319      5.7398      5.7414      5.8335      6.1808      7.1573    
  9.5512      15.003      28.580      57.794      107.78      178.42      263.03      348.85      419.53      459.62    
  400.90      348.85      275.68      196.61      125.44      71.153      36.537      18.715      11.275      8.0450    
  6.6615      6.1242      5.9517      5.9200      5.9539      6.1244      6.6594      8.0447      11.278      18.715    
  36.535      71.154      125.44      196.61      275.67      348.85      400.90      419.79      318.11      263.04    
  196.61      131.89      78.909      42.524      22.098      12.906      8.9415      7.1649      6.4382      6.1753    
  6.1042      6.1052      6.1762      6.4372      7.1640      8.9426      12.907      22.096      42.522      78.911    
  131.89      196.61      263.04      318.11      349.43      349.43      228.15      178.42      125.44      78.909    
  44.751      24.133      14.115      9.6851      7.6155      6.7322      6.3893      6.2783      6.2571      6.2792    
  6.3892      6.7312      7.6157      9.6861      14.115      24.131      44.750      78.909      125.44      178.42    
  228.16      263.80      276.76      263.79      146.46      107.77      71.153      42.524      24.133      14.567    
  10.109      7.9297      6.9603      6.5672      6.4267      6.3889      6.3895      6.4274      6.5667      6.9596    
  7.9302      10.110      14.567      24.132      42.522      71.150      107.77      146.46      179.09      197.80    
  197.79      179.08      83.333      57.795      36.537      22.098      14.115      10.109      8.0421      7.0841    
  6.6843      6.5357      6.4905      6.4824      6.4910      6.5358      6.6839      7.0839      8.0427      10.110    
  14.116      22.099      36.537      57.792      83.329      108.13      126.26      132.91      126.26      108.14    
  42.348      28.581      18.715      12.906      9.6851      7.9297      7.0841      6.7247      6.5932      6.5552    
  6.5483      6.5483      6.5552      6.5931      6.7247      7.0838      7.9290      9.6850      12.908      18.719    
  28.584      42.347      57.816      71.380      79.330      79.332      71.385      57.821      20.782      15.001    
  11.275      8.9415      7.6155      6.9603      6.6843      6.5932      6.5774      6.5827      6.5864      6.5826    
  6.5773      6.5931      6.6842      6.9595      7.6139      8.9401      11.276      15.004      20.786      28.371    
  36.257      42.274      44.529      42.275      36.258      28.369      11.758      9.5498      8.0450      7.1649    
  6.7322      6.5672      6.5357      6.5552      6.5827      6.5996      6.5997      6.5828      6.5552      6.5360    
  6.5679      6.7321      7.1629      8.0417      9.5475      11.759      14.686      18.159      21.399      23.374    
  23.374      21.396      18.155      14.683      8.0059      7.1590      6.6615      6.4382      6.3893      6.4267    
  6.4905      6.5483      6.5864      6.5997      6.5866      6.5484      6.4906      6.4276      6.3910      6.4394    
  6.6606      7.1558      8.0023      9.1989      10.619      12.011      13.071      13.472      13.069      12.009    
  10.618      9.2008      6.4012      6.1823      6.1242      6.1753      6.2783      6.3889      6.4824      6.5483    
  6.5826      6.5828      6.5484      6.4819      6.3884      6.2787      6.1773      6.1271      6.1844      6.4008    
  6.7996      7.3534      7.9719      8.5145      8.8333      8.8330      8.5146      7.9738      7.3568      6.8025    
  5.7816      5.8319      5.9517      6.1042      6.2571      6.3895      6.4910      6.5552      6.5773      6.5552    
  6.4906      6.3884      6.2554      6.1033      5.9527      5.8351      5.7853      5.8286      5.9665      6.1711    
  6.3882      6.5538      6.6156      6.5543      6.3899      6.1733      5.9675      5.8268      5.5852      5.7398    
  5.9200      6.1052      6.2792      6.4274      6.5358      6.5931      6.5931      6.5360      6.4276      6.2787    
  6.1033      5.9171      5.7379      5.5860      5.4809      5.4345      5.4426      5.4853      5.5346      5.5662    
  5.5665      5.5353      5.4854      5.4412      5.4314      5.4780      5.5495      5.7414      5.9539      6.1762    
  6.3892      6.5667      6.6839      6.7247      6.6842      6.5679      6.3910      6.1773      5.9527      5.7379    
  5.5458      5.3846      5.2615      5.1798      5.1353      5.1165      5.1111      5.1104      5.1113      5.1161    
  5.1336      5.1776      5.2605      5.3863      5.5869      5.8335      6.1244      6.4372      6.7312      6.9596    
  7.0839      7.0838      6.9595      6.7321      6.4394      6.1271      5.8351      5.5860      5.3846      5.2263    
  5.1054      5.0182      4.9607      4.9277      4.9132      4.9132      4.9274      4.9600      5.0178      5.1067    
  5.2293      5.3876      5.7814      6.1808      6.6594      7.1640      7.6157      7.9302      8.0427      7.9290    
  7.6139      7.1629      6.6606      6.1844      5.7853      5.4809      5.2615      5.1054      4.9931      4.9136    
  4.8617      4.8335      4.8248      4.8333      4.8614      4.9139      4.9948      5.1078      5.2627      5.4792    
  6.3994      7.1573      8.0447      8.9426      9.6861      10.110      10.110      9.6850      8.9401      8.0417    
  7.1558      6.4008      5.8286      5.4345      5.1798      5.0182      4.9136      4.8460      4.8061      4.7879    
  4.7878      4.8060      4.8464      4.9144      5.0186      5.1788      5.4317      5.8254      8.0063      9.5512    
  11.278      12.907      14.115      14.567      14.116      12.908      11.276      9.5475      8.0023      6.7996    
  5.9665      5.4426      5.1353      4.9607      4.8617      4.8061      4.7778      4.7691      4.7777      4.8063    
  4.8620      4.9604      5.1335      5.4401      5.9653      6.8013      11.760      15.003      18.715      22.096    
  24.131      24.132      22.099      18.719      15.004      11.759      9.1989      7.3534      6.1711      5.4853    
  5.1165      4.9277      4.8335      4.7879      4.7691      4.7690      4.7878      4.8336      4.9274      5.1156    
  5.4846      6.1720      7.3565      9.2023      20.781      28.580      36.535      42.522      44.750      42.522    
  36.537      28.584      20.786      14.686      10.619      7.9719      6.3882      5.5346      5.1111      4.9132    
  4.8248      4.7878      4.7777      4.7878      4.8247      4.9130      5.1108      5.5350      6.3901      7.9746    
  10.620      14.684      42.346      57.794      71.154      78.911      78.909      71.150      57.792      42.347    
  28.371      18.159      12.011      8.5145      6.5538      5.5662      5.1104      4.9132      4.8333      4.8060    
  4.8063      4.8336      4.9130      5.1101      5.5667      6.5550      8.5152      12.010      18.156      28.367    
  83.333      107.78      125.44      131.89      125.44      107.77      83.329      57.816      36.257      21.399    
  13.071      8.8333      6.6156      5.5665      5.1113      4.9274      4.8614      4.8464      4.8620      4.9274    
  5.1108      5.5667      6.6165      8.8330      13.068      21.396      36.256      57.818      146.47      178.42    
  196.61      196.61      178.42      146.46      108.13      71.380      42.274      23.374      13.472      8.8330    
  6.5543      5.5353      5.1161      4.9600      4.9139      4.9144      4.9604      5.1156      5.5350      6.5550    
  8.8330      13.470      23.373      42.275      71.384      108.14      228.15      263.03      275.67      263.04    
  228.16      179.09      126.26      79.330      44.529      23.374      13.069      8.5146      6.3899      5.4854    
  5.1336      5.0178      4.9948      5.0186      5.1335      5.4846      6.3901      8.5152      13.068      23.373    
  44.531      79.334      126.26      179.08      318.10      348.85      348.85      318.11      263.80      197.80    
  132.91      79.332      42.275      21.396      12.009      7.9738      6.1733      5.4412      5.1776      5.1067    
  5.1078      5.1788      5.4401      6.1720      7.9746      12.010      21.396      42.275      79.334      132.91    
  197.79      263.79      400.91      419.53      400.90      349.43      276.76      197.79      126.26      71.385    
  36.258      18.155      10.618      7.3568      5.9675      5.4314      5.2605      5.2293      5.2627      5.4317    
  5.9653      7.3565      10.620      18.156      36.256      71.384      126.26      197.79      276.76      349.44    
  459.63      459.62      419.79      349.43      263.79      179.08      108.14      57.821      28.369      14.683    
  9.2008      6.8025      5.8268      5.4780      5.3863      5.3876      5.4792      5.8254      6.8013      9.2023    
  14.684      28.367      57.818      108.14      179.08      263.79      349.44      419.80      430.09      410.86    
  357.83      283.14      202.22      129.14      73.177      37.332      18.797      11.066      7.7384      6.3177    
  5.7674      5.5913      5.5599      5.5947      5.7672      6.3142      7.7387      11.069      18.796      37.328    
  73.177      129.15      202.22      283.13      357.83      410.87      410.86      374.66      310.87      233.58    
  157.68      94.782      50.784      25.474      13.885      9.1150      6.9988      6.1344      5.8222      5.7399    
  5.7426      5.8250      6.1316      6.9959      9.1177      13.888      25.471      50.782      94.786      157.69    
  233.58      310.86      374.65      410.87      357.83      310.87      244.96      173.98      110.47      62.492    
  32.329      17.063      10.653      7.7923      6.5698      6.0939      5.9400      5.9124      5.9437      6.0940    
  6.5661      7.7921      10.657      17.063      32.326      62.493      110.47      173.98      244.95      310.86    
  357.82      374.87      283.14      233.58      173.98      116.21      69.314      37.514      19.953      12.100    
  8.5943      7.0249      6.3837      6.1507      6.0876      6.0895      6.1525      6.3818      7.0232      8.5962    
  12.102      19.951      37.512      69.317      116.21      173.98      233.58      283.14      311.37      311.37    
  202.22      157.68      110.47      69.314      39.448      21.694      13.156      9.2593      7.4314      6.6533    
  6.3514      6.2535      6.2353      6.2553      6.3514      6.6515      7.4316      9.2612      13.155      21.692    
  39.446      69.315      110.47      157.69      202.23      234.23      245.88      234.22      129.14      94.782    
  62.492      37.514      21.694      13.547      9.6385      7.7145      6.8619      6.5175      6.3948      6.3622    
  6.3632      6.3959      6.5166      6.8608      7.7155      9.6400      13.547      21.693      37.513      62.490    
  94.780      129.15      158.25      174.98      174.97      158.24      73.177      50.784      32.329      19.953    
  13.156      9.6385      7.8159      6.9748      6.6263      6.4983      6.4601      6.4536      6.4609      6.4984    
  6.6255      6.9747      7.8169      9.6395      13.156      19.954      32.329      50.781      73.173      95.072    
  111.14      117.04      111.14      95.074      37.332      25.474      17.063      12.100      9.2593      7.7145    
  6.9748      6.6638      6.5526      6.5223      6.5179      6.5180      6.5224      6.5524      6.6636      6.9747    
  7.7143      9.2596      12.102      17.066      25.476      37.330      50.777      62.641      69.619      69.621    
  62.645      50.781      18.797      13.885      10.653      8.5943      7.4314      6.8619      6.6263      6.5526    
  6.5436      6.5514      6.5557      6.5514      6.5435      6.5524      6.6261      6.8611      7.4300      8.5935    
  10.655      13.888      18.800      25.268      32.042      37.237      39.189      37.238      32.044      25.268    
  11.066      9.1150      7.7923      7.0249      6.6533      6.5175      6.4983      6.5223      6.5514      6.5688    
  6.5689      6.5516      6.5224      6.4985      6.5178      6.6528      7.0228      7.7895      9.1138      11.067    
  13.592      16.541      19.292      20.973      20.972      19.290      16.538      13.589      7.7384      6.9988    
  6.5698      6.3837      6.3514      6.3948      6.4601      6.5179      6.5557      6.5689      6.5561      6.5181    
  6.4603      6.3958      6.3529      6.3841      6.5680      6.9954      7.7354      8.7882      10.042      11.267    
  12.183      12.528      12.182      11.265      10.041      8.7891      6.3177      6.1344      6.0939      6.1507    
  6.2535      6.3622      6.4536      6.5180      6.5514      6.5516      6.5181      6.4532      6.3619      6.2544    
  6.1529      6.0963      6.1353      6.3164      6.6605      7.1437      7.6865      8.1642      8.4453      8.4447    
  8.1637      7.6876      7.1467      6.6636      5.7674      5.8222      5.9400      6.0876      6.2353      6.3632    
  6.4609      6.5224      6.5435      6.5224      6.4603      6.3619      6.2340      6.0875      5.9418      5.8256    
  5.7705      5.7991      5.9129      6.0874      6.2750      6.4188      6.4724      6.4189      6.2763      6.0898    
  5.9146      5.7982      5.5913      5.7399      5.9124      6.0895      6.2553      6.3959      6.4984      6.5524    
  6.5524      6.4985      6.3958      6.2544      6.0875      5.9101      5.7389      5.5929      5.4897      5.4396    
  5.4391      5.4707      5.5100      5.5357      5.5359      5.5107      5.4713      5.4384      5.4369      5.4864    
  5.5599      5.7426      5.9437      6.1525      6.3514      6.5166      6.6255      6.6636      6.6261      6.5178    
  6.3529      6.1529      5.9418      5.7389      5.5567      5.4032      5.2845      5.2037      5.1570      5.1346    
  5.1259      5.1240      5.1263      5.1345      5.1556      5.2013      5.2827      5.4039      5.5947      5.8250    
  6.0940      6.3818      6.6515      6.8608      6.9747      6.9747      6.8611      6.6528      6.3841      6.0963    
  5.8256      5.5929      5.4032      5.2526      5.1362      5.0507      4.9929      4.9584      4.9427      4.9428    
  4.9582      4.9921      5.0499      5.1368      5.2550      5.4064      5.7672      6.1316      6.5661      7.0232    
  7.4316      7.7155      7.8169      7.7143      7.4300      7.0228      6.5680      6.1353      5.7705      5.4897    
  5.2845      5.1362      5.0276      4.9491      4.8967      4.8675      4.8582      4.8673      4.8963      4.9491    
  5.0290      5.1388      5.2864      5.4889      6.3142      6.9959      7.7921      8.5962      9.2612      9.6400    
  9.6395      9.2596      8.5935      7.7895      6.9954      6.3164      5.7991      5.4396      5.2037      5.0507    
  4.9491      4.8816      4.8407      4.8217      4.8216      4.8406      4.8819      4.9499      5.0516      5.2034    
  5.4372      5.7957      7.7387      9.1177      10.657      12.102      13.155      13.547      13.156      12.102    
  10.655      9.1138      7.7354      6.6605      5.9129      5.4391      5.1570      4.9929      4.8967      4.8407    
  4.8113      4.8021      4.8112      4.8409      4.8972      4.9929      5.1555      5.4364      5.9110      6.6612    
  11.069      13.888      17.063      19.951      21.692      21.693      19.954      17.066      13.888      11.067    
  8.7882      7.1437      6.0874      5.4707      5.1346      4.9584      4.8675      4.8217      4.8021      4.8020    
  4.8216      4.8676      4.9583      5.1336      5.4695      6.0877      7.1463      8.7917      18.796      25.471    
  32.326      37.512      39.446      37.513      32.329      25.476      18.800      13.592      10.042      7.6865    
  6.2750      5.5100      5.1259      4.9427      4.8582      4.8216      4.8112      4.8216      4.8582      4.9425    
  5.1255      5.5100      6.2765      7.6893      10.044      13.591      37.328      50.782      62.493      69.317    
  69.315      62.490      50.781      37.330      25.268      16.541      11.267      8.1642      6.4188      5.5357    
  5.1240      4.9428      4.8673      4.8406      4.8409      4.8676      4.9425      5.1236      5.5361      6.4201    
  8.1652      11.267      16.539      25.265      73.177      94.786      110.47      116.21      110.47      94.780    
  73.173      50.777      32.042      19.292      12.183      8.4453      6.4724      5.5359      5.1263      4.9582    
  4.8963      4.8819      4.8972      4.9583      5.1255      5.5361      6.4738      8.4452      12.181      19.288    
  32.041      50.778      129.15      157.69      173.98      173.98      157.69      129.15      95.072      62.641    
  37.237      20.973      12.528      8.4447      6.4189      5.5107      5.1345      4.9921      4.9491      4.9499    
  4.9929      5.1336      5.5100      6.4201      8.4452      12.525      20.971      37.238      62.644      95.074    
  202.22      233.58      244.95      233.58      202.23      158.25      111.14      69.619      39.189      20.972    
  12.182      8.1637      6.2763      5.4713      5.1556      5.0499      5.0290      5.0516      5.1555      5.4695    
  6.2765      8.1652      12.181      20.971      39.191      69.624      111.14      158.24      283.13      310.86    
  310.86      283.14      234.23      174.98      117.04      69.621      37.238      19.290      11.265      7.6876    
  6.0898      5.4384      5.2013      5.1368      5.1388      5.2034      5.4364      6.0877      7.6893      11.267    
  19.288      37.238      69.624      117.05      174.97      234.22      357.83      374.65      357.82      311.37    
  245.88      174.97      111.14      62.645      32.044      16.538      10.041      7.1467      5.9146      5.4369    
  5.2827      5.2550      5.2864      5.4372      5.9110      7.1463      10.044      16.539      32.041      62.644    
  111.14      174.97      245.88      311.37      410.87      410.87      374.87      311.37      234.22      158.24    
  95.074      50.781      25.268      13.589      8.7891      6.6636      5.7982      5.4864      5.4039      5.4064    
  5.4889      5.7957      6.6612      8.7917      13.591      25.265      50.778      95.074      158.24      234.22    
  311.37      374.88      356.38      340.15      295.42      232.61      164.97      104.50      58.942      30.448    
  16.124      10.080      7.3562      6.1959      5.7446      5.5982      5.5725      5.6027      5.7444      6.1913    
  7.3566      10.085      16.123      30.443      58.941      104.50      164.97      232.61      295.42      340.16    
  340.15      309.61      255.92      191.14      128.04      76.437      41.062      21.260      12.360      8.4945    
  6.7674      6.0624      5.8059      5.7376      5.7410      5.8093      6.0589      6.7638      8.4979      12.364    
  21.256      41.059      76.441      128.05      191.14      255.91      309.61      340.15      295.42      255.92    
  200.66      141.55      89.238      50.399      26.577      14.831      9.7650      7.4295      6.4349      6.0471    
  5.9205      5.8983      5.9251      6.0472      6.4303      7.4292      9.7695      14.832      26.573      50.400    
  89.244      141.55      200.65      255.91      295.42      309.78      232.61      191.14      141.55      93.936    
  55.876      30.630      17.057      10.960      8.0968      6.8212      6.3014      6.1121      6.0608      6.0631    