Sc                                      
   1.00000000000000     
     3.321450    0.000000    0.000000
     1.660725    2.876460    0.000000
     0.000000    0.000000    5.161920
   Sc
     2
Direct
  0.000000  0.000000  0.000000
  0.333333  0.333333  0.500000
 
   28   28   48
 0.49906196136E+03 0.47705397088E+03 0.41630604348E+03 0.33062105294E+03 0.23745549846E+03
 0.15270501511E+03 0.87018401055E+02 0.44186182379E+02 0.21517992326E+02 0.12010046412E+02
 0.81022597061E+01 0.64302952001E+01 0.57864292604E+01 0.55834515995E+01 0.55454275357E+01
 0.55830102439E+01 0.57862277081E+01 0.64306402446E+01 0.81025985770E+01 0.12009808022E+02
 0.21517479603E+02 0.44186155075E+02 0.87018968520E+02 0.15270548154E+03 0.23745534920E+03
 0.33062059701E+03 0.41630584382E+03 0.47705404600E+03 0.47705397088E+03 0.43558137851E+03
 0.36244104750E+03 0.27359177236E+03 0.18587092168E+03 0.11247012443E+03 0.60351579015E+02
 0.29727276564E+02 0.15414121858E+02 0.97068194660E+01 0.72159419203E+01 0.61986919571E+01
 0.58354135416E+01 0.57398970796E+01 0.57400741338E+01 0.58356512057E+01 0.61986104841E+01
 0.72156974490E+01 0.97067733197E+01 0.15414236912E+02 0.29727470921E+02 0.60352390873E+02
 0.11247196820E+03 0.18587241115E+03 0.27358998310E+03 0.36243472968E+03 0.43557365340E+03
 0.47705045232E+03 0.41630604348E+03 0.36244104750E+03 0.28667924563E+03 0.20473984604E+03
 0.13084469890E+03 0.74302326563E+02 0.38082163588E+02 0.19327425216E+02 0.11499957956E+02
 0.81356218570E+01 0.66934614881E+01 0.61346152991E+01 0.59560565023E+01 0.59222440458E+01
 0.59565020792E+01 0.61347754549E+01 0.66931116739E+01 0.81353902703E+01 0.11500187098E+02
 0.19327595879E+02 0.38082051683E+02 0.74302868797E+02 0.13084652810E+03 0.20474133336E+03
 0.28667760490E+03 0.36243604470E+03 0.41630143711E+03 0.43584146339E+03 0.33062105294E+03
 0.27359177236E+03 0.20473984604E+03 0.13754567358E+03 0.82393474449E+02 0.44359631294E+02
 0.22891228837E+02 0.13199885957E+02 0.90665125630E+01 0.72143838451E+01 0.64569336629E+01
 0.61839892926E+01 0.61100523567E+01 0.61099492327E+01 0.61838106497E+01 0.64569270755E+01
 0.72146149865E+01 0.90667085706E+01 0.13199622371E+02 0.22890357651E+02 0.44358585613E+02
 0.82393128590E+02 0.13754679009E+03 0.20474249848E+03 0.27359516935E+03 0.33062388837E+03
 0.36304996446E+03 0.36304886407E+03 0.23745549846E+03 0.18587092168E+03 0.13084469890E+03
 0.82393474449E+02 0.46692688483E+02 0.25033131710E+02 0.14467041004E+02 0.98384088836E+01
 0.76813333332E+01 0.67595556015E+01 0.64022756685E+01 0.62870187051E+01 0.62642564076E+01
 0.62867475858E+01 0.64021326889E+01 0.67597140648E+01 0.76815398314E+01 0.98384501085E+01
 0.14466895766E+02 0.25032482504E+02 0.46690993089E+02 0.82391235322E+02 0.13084420217E+03
 0.18587443558E+03 0.23746219486E+03 0.27439559529E+03 0.28782633041E+03 0.27439010311E+03
 0.15270501511E+03 0.11247012443E+03 0.74302326563E+02 0.44359631294E+02 0.25033131710E+02
 0.14941405405E+02 0.10278227949E+02 0.80068605600E+01 0.69949669518E+01 0.65842357121E+01
 0.64376743289E+01 0.63980154343E+01 0.63981078345E+01 0.64378337854E+01 0.65842091471E+01
 0.69946990946E+01 0.80068026670E+01 0.10278979481E+02 0.14942699011E+02 0.25033465870E+02
 0.44357643101E+02 0.74298739023E+02 0.11246765974E+03 0.15270568615E+03 0.18658006822E+03
 0.20599495276E+03 0.20599347385E+03 0.18657737719E+03 0.87018401055E+02 0.60351579015E+02
 0.38082163588E+02 0.22891228837E+02 0.14467041004E+02 0.10278227949E+02 0.81233942221E+01
 0.71228213110E+01 0.67042908581E+01 0.65484314138E+01 0.65008241789E+01 0.64919023794E+01
 0.65009480729E+01 0.65485785479E+01 0.67042588049E+01 0.71225525281E+01 0.81233076555E+01
 0.10279027936E+02 0.14468883407E+02 0.22893111511E+02 0.38082446368E+02 0.60349319804E+02
 0.87014210302E+02 0.11285987480E+03 0.13171982490E+03 0.13863881484E+03 0.13172252541E+03
 0.11286423039E+03 0.44186182379E+02 0.29727276564E+02 0.19327425216E+02 0.13199885957E+02
 0.98384088836E+01 0.80068605600E+01 0.71228213110E+01 0.67457835479E+01 0.66068790869E+01
 0.65662449490E+01 0.65584989563E+01 0.65583742844E+01 0.65661191387E+01 0.66070505799E+01
 0.67459442857E+01 0.71222998612E+01 0.80057043114E+01 0.98379221300E+01 0.13201574371E+02
 0.19331147057E+02 0.29730661393E+02 0.44186379229E+02 0.60385340147E+02 0.74560273583E+02
 0.82858870384E+02 0.82861091565E+02 0.74565119673E+02 0.60388959670E+02 0.21517992326E+02
 0.15414121858E+02 0.11499957956E+02 0.90665125630E+01 0.76813333332E+01 0.69949669518E+01
 0.67042908581E+01 0.66068790869E+01 0.65886536045E+01 0.65931296417E+01 0.65965875052E+01
 0.65929739265E+01 0.65885656175E+01 0.66070230552E+01 0.67043768868E+01 0.69942811246E+01
 0.76795582132E+01 0.90646200139E+01 0.11499809182E+02 0.15416659408E+02 0.21521931678E+02
 0.29516108598E+02 0.37807969530E+02 0.44122384705E+02 0.46486590128E+02 0.44122976636E+02
 0.37807406113E+02 0.29513255941E+02 0.12010046412E+02 0.97068194660E+01 0.81356218570E+01
 0.72143838451E+01 0.67595556015E+01 0.65842357121E+01 0.65484314138E+01 0.65662449490E+01
 0.65931296417E+01 0.66098257277E+01 0.66098560014E+01 0.65930974847E+01 0.65661658687E+01
 0.65487652735E+01 0.65851377496E+01 0.67600055511E+01 0.72128995969E+01 0.81321849277E+01
 0.97035575483E+01 0.12009453066E+02 0.15091257099E+02 0.18760234392E+02 0.22180541536E+02
 0.24264761531E+02 0.24263546937E+02 0.22177236781E+02 0.18756156174E+02 0.15088654729E+02
 0.81022597061E+01 0.72159419203E+01 0.66934614881E+01 0.64569336629E+01 0.64022756685E+01
 0.64376743289E+01 0.65008241789E+01 0.65584989563E+01 0.65965875052E+01 0.66098560014E+01
 0.65967278064E+01 0.65584843593E+01 0.65007993848E+01 0.64383790550E+01 0.64040347309E+01
 0.64587083355E+01 0.66934476045E+01 0.72133582953E+01 0.80983805709E+01 0.93470367734E+01
 0.10826728538E+02 0.12282987097E+02 0.13398315710E+02 0.13821480084E+02 0.13396607243E+02
 0.12281249712E+02 0.10826961164E+02 0.93498288190E+01 0.64302952001E+01 0.61986919571E+01
 0.61346152991E+01 0.61839892926E+01 0.62870187051E+01 0.63980154343E+01 0.64919023794E+01
 0.65583742844E+01 0.65929739265E+01 0.65930974847E+01 0.65584843593E+01 0.64915468408E+01
 0.63972659039E+01 0.62868228127E+01 0.61854801722E+01 0.61377390931E+01 0.62016546989E+01
 0.64308726868E+01 0.68496940403E+01 0.74292135871E+01 0.80752275820E+01 0.86413520850E+01
 0.89739050916E+01 0.89739281624E+01 0.86421229945E+01 0.80777065503E+01 0.74327492706E+01
 0.68520393521E+01 0.57864292604E+01 0.58354135416E+01 0.59560565023E+01 0.61100523567E+01
 0.62642564076E+01 0.63981078345E+01 0.65009480729E+01 0.65661191387E+01 0.65885656175E+01
 0.65661658687E+01 0.65007993848E+01 0.63972659039E+01 0.62625361870E+01 0.61083862282E+01
 0.59561710442E+01 0.58381112988E+01 0.57903464759E+01 0.58389814028E+01 0.59858564713E+01
 0.62014802588E+01 0.64295180304E+01 0.66030861378E+01 0.66681034532E+01 0.66039574930E+01
 0.64312616831E+01 0.62032012424E+01 0.59858359215E+01 0.58363558061E+01 0.55834515995E+01
 0.57398970796E+01 0.59222440458E+01 0.61099492327E+01 0.62867475858E+01 0.64378337854E+01
 0.65485785479E+01 0.66070505799E+01 0.66070230552E+01 0.65487652735E+01 0.64383790550E+01
 0.62868228127E+01 0.61083862282E+01 0.59191725036E+01 0.57371987244E+01 0.55831445118E+01
 0.54775203465E+01 0.54325416018E+01 0.54439976580E+01 0.54908438597E+01 0.55439809835E+01
 0.55778729285E+01 0.55781776150E+01 0.55444245782E+01 0.54903520794E+01 0.54418422259E+01
 0.54293497523E+01 0.54752263030E+01 0.55454275357E+01 0.57400741338E+01 0.59565020792E+01
 0.61838106497E+01 0.64021326889E+01 0.65842091471E+01 0.67042588049E+01 0.67459442857E+01
 0.67043768868E+01 0.65851377496E+01 0.64040347309E+01 0.61854801722E+01 0.59561710442E+01
 0.57371987244E+01 0.55415172510E+01 0.53776988838E+01 0.52530820782E+01 0.51712452070E+01
 0.51276515534E+01 0.51103895389E+01 0.51062215175E+01 0.51060029355E+01 0.51062869639E+01
 0.51097025996E+01 0.51258461339E+01 0.51693837976E+01 0.52530065019E+01 0.53802379457E+01
 0.55830102439E+01 0.58356512057E+01 0.61347754549E+01 0.64569270755E+01 0.67597140648E+01
 0.69946990946E+01 0.71225525281E+01 0.71222998612E+01 0.69942811246E+01 0.67600055511E+01
 0.64587083355E+01 0.61377390931E+01 0.58381112988E+01 0.55831445118E+01 0.53776988838E+01
 0.52167263076E+01 0.50943284537E+01 0.50065833321E+01 0.49494515488E+01 0.49170995209E+01
 0.49030887313E+01 0.49030286849E+01 0.49167720199E+01 0.49489445306E+01 0.50067980767E+01
 0.50962196134E+01 0.52198433410E+01 0.53800657232E+01 0.57862277081E+01 0.61986104841E+01
 0.66931116739E+01 0.72146149865E+01 0.76815398314E+01 0.80068026670E+01 0.81233076555E+01
 0.80057043114E+01 0.76795582132E+01 0.72128995969E+01 0.66934476045E+01 0.62016546989E+01
 0.57903464759E+01 0.54775203465E+01 0.52530820782E+01 0.50943284537E+01 0.49808602203E+01
 0.49010559519E+01 0.48495114962E+01 0.48218317153E+01 0.48132836467E+01 0.48216662617E+01
 0.48494598159E+01 0.49017396341E+01 0.49826343903E+01 0.50963105190E+01 0.52533608437E+01
 0.54749920272E+01 0.64306402446E+01 0.72156974490E+01 0.81353902703E+01 0.90667085706E+01
 0.98384501085E+01 0.10278979481E+02 0.10279027936E+02 0.98379221300E+01 0.90646200139E+01
 0.81321849277E+01 0.72133582953E+01 0.64308726868E+01 0.58389814028E+01 0.54325416018E+01
 0.51712452070E+01 0.50065833321E+01 0.49010559519E+01 0.48336234559E+01 0.47941408319E+01
 0.47763466034E+01 0.47762888258E+01 0.47941675076E+01 0.48340363634E+01 0.49016570335E+01
 0.50064775535E+01 0.51695521816E+01 0.54295477009E+01 0.58364237444E+01 0.81025985770E+01
 0.97067733197E+01 0.11500187098E+02 0.13199622371E+02 0.14466895766E+02 0.14942699011E+02
 0.14468883407E+02 0.13201574371E+02 0.11499809182E+02 0.97035575483E+01 0.80983805709E+01
 0.68496940403E+01 0.59858564713E+01 0.54439976580E+01 0.51276515534E+01 0.49494515488E+01
 0.48495114962E+01 0.47941408319E+01 0.47662955037E+01 0.47577844856E+01 0.47662373035E+01
 0.47942990785E+01 0.48496820292E+01 0.49487880028E+01 0.51257290448E+01 0.54418792038E+01
 0.59855576779E+01 0.68522627417E+01 0.12009808022E+02 0.15414236912E+02 0.19327595879E+02
 0.22890357651E+02 0.25032482504E+02 0.25033465870E+02 0.22893111511E+02 0.19331147057E+02
 0.15416659408E+02 0.12009453066E+02 0.93470367734E+01 0.74292135871E+01 0.62014802588E+01
 0.54908438597E+01 0.51103895389E+01 0.49170995209E+01 0.48218317153E+01 0.47763466034E+01
 0.47577844856E+01 0.47577207286E+01 0.47762898239E+01 0.48218265147E+01 0.49167965874E+01
 0.51096880322E+01 0.54906431729E+01 0.62030220779E+01 0.74323899588E+01 0.93498781562E+01
 0.21517479603E+02 0.29727470921E+02 0.38082051683E+02 0.44358585613E+02 0.46690993089E+02
 0.44357643101E+02 0.38082446368E+02 0.29730661393E+02 0.21521931678E+02 0.15091257099E+02
 0.10826728538E+02 0.80752275820E+01 0.64295180304E+01 0.55439809835E+01 0.51062215175E+01
 0.49030887313E+01 0.48132836467E+01 0.47762888258E+01 0.47662373035E+01 0.47762898239E+01
 0.48132434256E+01 0.49029221892E+01 0.51061174322E+01 0.55446346722E+01 0.64314321335E+01
 0.80775058852E+01 0.10827198282E+02 0.15088581188E+02 0.44186155075E+02 0.60352390873E+02
 0.74302868797E+02 0.82393128590E+02 0.82391235322E+02 0.74298739023E+02 0.60349319804E+02
 0.44186379229E+02 0.29516108598E+02 0.18760234392E+02 0.12282987097E+02 0.86413520850E+01
 0.66030861378E+01 0.55778729285E+01 0.51060029355E+01 0.49030286849E+01 0.48216662617E+01
 0.47941675076E+01 0.47942990785E+01 0.48218265147E+01 0.49029221892E+01 0.51058761803E+01
 0.55783061847E+01 0.66040356120E+01 0.86416828423E+01 0.12281409220E+02 0.18756906228E+02
 0.29513105710E+02 0.87018968520E+02 0.11247196820E+03 0.13084652810E+03 0.13754679009E+03
 0.13084420217E+03 0.11246765974E+03 0.87014210302E+02 0.60385340147E+02 0.37807969530E+02
 0.22180541536E+02 0.13398315710E+02 0.89739050916E+01 0.66681034532E+01 0.55781776150E+01
 0.51062869639E+01 0.49167720199E+01 0.48494598159E+01 0.48340363634E+01 0.48496820292E+01
 0.49167965874E+01 0.51061174322E+01 0.55783061847E+01 0.66684305368E+01 0.89733249644E+01
 0.13396128850E+02 0.22177987776E+02 0.37807496132E+02 0.60388133709E+02 0.15270548154E+03
 0.18587241115E+03 0.20474133336E+03 0.20474249848E+03 0.18587443558E+03 0.15270568615E+03
 0.11285987480E+03 0.74560273583E+02 0.44122384705E+02 0.24264761531E+02 0.13821480084E+02
 0.89739281624E+01 0.66039574930E+01 0.55444245782E+01 0.51097025996E+01 0.49489445306E+01
 0.49017396341E+01 0.49016570335E+01 0.49487880028E+01 0.51096880322E+01 0.55446346722E+01
 0.66040356120E+01 0.89733249644E+01 0.13820351731E+02 0.24264390820E+02 0.44124048402E+02
 0.74563477521E+02 0.11286229682E+03 0.23745534920E+03 0.27358998310E+03 0.28667760490E+03
 0.27359516935E+03 0.23746219486E+03 0.18658006822E+03 0.13171982490E+03 0.82858870384E+02
 0.46486590128E+02 0.24263546937E+02 0.13396607243E+02 0.86421229945E+01 0.64312616831E+01
 0.54903520794E+01 0.51258461339E+01 0.50067980767E+01 0.49826343903E+01 0.50064775535E+01
 0.51257290448E+01 0.54906431729E+01 0.64314321335E+01 0.86416828423E+01 0.13396128850E+02
 0.24264390820E+02 0.46489240952E+02 0.82861671189E+02 0.13171986002E+03 0.18657578712E+03
 0.33062059701E+03 0.36243472968E+03 0.36243604470E+03 0.33062388837E+03 0.27439559529E+03
 0.20599495276E+03 0.13863881484E+03 0.82861091565E+02 0.44122976636E+02 0.22177236781E+02
 0.12281249712E+02 0.80777065503E+01 0.62032012424E+01 0.54418422259E+01 0.51693837976E+01
 0.50962196134E+01 0.50963105190E+01 0.51695521816E+01 0.54418792038E+01 0.62030220779E+01
 0.80775058852E+01 0.12281409220E+02 0.22177987776E+02 0.44124048402E+02 0.82861671189E+02
 0.13863797451E+03 0.20599233732E+03 0.27439188119E+03 0.41630584382E+03 0.43557365340E+03
 0.41630143711E+03 0.36304996446E+03 0.28782633041E+03 0.20599347385E+03 0.13172252541E+03
 0.74565119673E+02 0.37807406113E+02 0.18756156174E+02 0.10826961164E+02 0.74327492706E+01
 0.59858359215E+01 0.54293497523E+01 0.52530065019E+01 0.52198433410E+01 0.52533608437E+01
 0.54295477009E+01 0.59855576779E+01 0.74323899588E+01 0.10827198282E+02 0.18756906228E+02
 0.37807496132E+02 0.74563477521E+02 0.13171986002E+03 0.20599233732E+03 0.28782885141E+03
 0.36305529615E+03 0.47705404600E+03 0.47705045232E+03 0.43584146339E+03 0.36304886407E+03
 0.27439010311E+03 0.18657737719E+03 0.11286423039E+03 0.60388959670E+02 0.29513255941E+02
 0.15088654729E+02 0.93498288190E+01 0.68520393521E+01 0.58363558061E+01 0.54752263030E+01
 0.53802379457E+01 0.53800657232E+01 0.54749920272E+01 0.58364237444E+01 0.68522627417E+01
 0.93498781562E+01 0.15088581188E+02 0.29513105710E+02 0.60388133709E+02 0.11286229682E+03
 0.18657578712E+03 0.27439188119E+03 0.36305529615E+03 0.43584934935E+03 0.48090367127E+03
 0.45962587357E+03 0.40090444339E+03 0.31810546840E+03 0.22815239395E+03 0.14646302660E+03
 0.83332857948E+02 0.42347850321E+02 0.20781974090E+02 0.11758289472E+02 0.80059257152E+01
 0.64012089254E+01 0.57816388652E+01 0.55852260847E+01 0.55495200705E+01 0.55869177857E+01
 0.57814416723E+01 0.63994321670E+01 0.80062866183E+01 0.11760221278E+02 0.20781473419E+02
 0.42345544597E+02 0.83333006496E+02 0.14646512021E+03 0.22815224612E+03 0.31810392499E+03
 0.40090607544E+03 0.45962955168E+03 0.45962587357E+03 0.41953711158E+03 0.34885347012E+03
 0.26303685368E+03 0.17841604749E+03 0.10777218275E+03 0.57794850106E+02 0.28581252638E+02
 0.15001051823E+02 0.95498005728E+01 0.71590199370E+01 0.61823456618E+01 0.58318745621E+01
 0.57398156157E+01 0.57414206871E+01 0.58335205683E+01 0.61807907014E+01 0.71573291196E+01
 0.95512344739E+01 0.15002679255E+02 0.28580039909E+02 0.57794090091E+02 0.10777511624E+03
 0.17841863015E+03 0.26303374284E+03 0.34884653477E+03 0.41953192194E+03 0.45962430796E+03
 0.40090444339E+03 0.34885347012E+03 0.27567604081E+03 0.19661010650E+03 0.12544049130E+03
 0.71152892219E+02 0.36536832977E+02 0.18715097231E+02 0.11275456725E+02 0.80449512263E+01
 0.66615477299E+01 0.61242307973E+01 0.59516845120E+01 0.59199602389E+01 0.59539219631E+01
 0.61243596628E+01 0.66593548545E+01 0.80446987864E+01 0.11277508308E+02 0.18715356039E+02
 0.36535112139E+02 0.71153688487E+02 0.12544422269E+03 0.19661126576E+03 0.27567178231E+03
 0.34884746528E+03 0.40090095235E+03 0.41978581912E+03 0.31810546840E+03 0.26303685368E+03
 0.19661010650E+03 0.13188815418E+03 0.78909306966E+02 0.42524077325E+02 0.22097982975E+02
 0.12906028536E+02 0.89414540258E+01 0.71648610577E+01 0.64382258021E+01 0.61753104053E+01
 0.61042319476E+01 0.61051909244E+01 0.61762058158E+01 0.64371782441E+01 0.71640135716E+01
 0.89426305285E+01 0.12906744855E+02 0.22096113109E+02 0.42522319864E+02 0.78910623759E+02
 0.13189077730E+03 0.19661133678E+03 0.26303777440E+03 0.31810761478E+03 0.34943286237E+03
 0.34943150149E+03 0.22815239395E+03 0.17841604749E+03 0.12544049130E+03 0.78909306966E+02
 0.44751083012E+02 0.24132523008E+02 0.14114970454E+02 0.96850739792E+01 0.76155405192E+01
 0.67321582317E+01 0.63892764661E+01 0.62783223536E+01 0.62570504308E+01 0.62791932347E+01
 0.63891860433E+01 0.67312499430E+01 0.76157363059E+01 0.96861144682E+01 0.14114611123E+02
 0.24130578159E+02 0.44749501486E+02 0.78908740899E+02 0.12544071688E+03 0.17841875375E+03
 0.22815875183E+03 0.26379941496E+03 0.27676421921E+03 0.26379330677E+03 0.14646302660E+03
 0.10777218275E+03 0.71152892219E+02 0.42524077325E+02 0.24132523008E+02 0.14566741692E+02
 0.10108943555E+02 0.79296734007E+01 0.69603202307E+01 0.65672158164E+01 0.64267314240E+01
 0.63889366165E+01 0.63895460218E+01 0.64274162149E+01 0.65667070372E+01 0.69596049349E+01
 0.79301986046E+01 0.10110158217E+02 0.14567209400E+02 0.24131805859E+02 0.42522167790E+02
 0.71149927114E+02 0.10777004061E+03 0.14646446650E+03 0.17908595021E+03 0.19779637021E+03
 0.19779392725E+03 0.17908160732E+03 0.83332857948E+02 0.57794850106E+02 0.36536832977E+02
 0.22097982975E+02 0.14114970454E+02 0.10108943555E+02 0.80421391689E+01 0.70840880698E+01
 0.66843116057E+01 0.65357458466E+01 0.64905219626E+01 0.64823542922E+01 0.64910268395E+01
 0.65358443080E+01 0.66838522923E+01 0.70839140066E+01 0.80426855134E+01 0.10109943880E+02
 0.14116289514E+02 0.22099244670E+02 0.36536614784E+02 0.57792043375E+02 0.83328659153E+02
 0.10813481116E+03 0.12625963975E+03 0.13291227132E+03 0.12626086791E+03 0.10813796422E+03
 0.42347850321E+02 0.28581252638E+02 0.18715097231E+02 0.12906028536E+02 0.96850739792E+01
 0.79296734007E+01 0.70840880698E+01 0.67247126781E+01 0.65931737906E+01 0.65552064903E+01
 0.65483237357E+01 0.65483254154E+01 0.65551704385E+01 0.65931138214E+01 0.67246504097E+01
 0.70837594215E+01 0.79289777982E+01 0.96849877272E+01 0.12907983124E+02 0.18718774250E+02
 0.28583922978E+02 0.42346890879E+02 0.57816304052E+02 0.71380288754E+02 0.79330055822E+02
 0.79332034480E+02 0.71384987687E+02 0.57820610943E+02 0.20781974090E+02 0.15001051823E+02
 0.11275456725E+02 0.89414540258E+01 0.76155405192E+01 0.69603202307E+01 0.66843116057E+01
 0.65931737906E+01 0.65773595253E+01 0.65826738853E+01 0.65863960456E+01 0.65826215735E+01
 0.65772688436E+01 0.65931444888E+01 0.66841987106E+01 0.69595328935E+01 0.76138739969E+01
 0.89400840963E+01 0.11276210588E+02 0.15004275685E+02 0.20785711936E+02 0.28370517127E+02
 0.36257284279E+02 0.42273775959E+02 0.44528585421E+02 0.42275007354E+02 0.36257852225E+02
 0.28368693242E+02 0.11758289472E+02 0.95498005728E+01 0.80449512263E+01 0.71648610577E+01
 0.67321582317E+01 0.65672158164E+01 0.65357458466E+01 0.65552064903E+01 0.65826738853E+01
 0.65995946473E+01 0.65996962631E+01 0.65827717823E+01 0.65551897583E+01 0.65360188039E+01
 0.65678567434E+01 0.67321017356E+01 0.71629117159E+01 0.80416516155E+01 0.95474675246E+01
 0.11758834293E+02 0.14686155937E+02 0.18159150152E+02 0.21398524247E+02 0.23374444325E+02
 0.23373542994E+02 0.21395871934E+02 0.18155388853E+02 0.14683029474E+02 0.80059257152E+01
 0.71590199370E+01 0.66615477299E+01 0.64382258021E+01 0.63892764661E+01 0.64267314240E+01
 0.64905219626E+01 0.65483237357E+01 0.65863960456E+01 0.65996962631E+01 0.65866420323E+01
 0.65484235607E+01 0.64906382488E+01 0.64276202506E+01 0.63909836283E+01 0.64393782356E+01
 0.66605575720E+01 0.71558495454E+01 0.80023310151E+01 0.91989001914E+01 0.10618572710E+02
 0.12010819362E+02 0.13070702593E+02 0.13472028046E+02 0.13068834779E+02 0.12008608538E+02
 0.10617958295E+02 0.92008122699E+01 0.64012089254E+01 0.61823456618E+01 0.61242307973E+01
 0.61753104053E+01 0.62783223536E+01 0.63889366165E+01 0.64823542922E+01 0.65483254154E+01
 0.65826215735E+01 0.65827717823E+01 0.65484235607E+01 0.64819474370E+01 0.63883925280E+01
 0.62787098892E+01 0.61772838670E+01 0.61271218181E+01 0.61843699300E+01 0.64007587669E+01
 0.67996489455E+01 0.73534280574E+01 0.79718998887E+01 0.85144924046E+01 0.88332746407E+01
 0.88329887511E+01 0.85145654323E+01 0.79737706420E+01 0.73568425435E+01 0.68025316304E+01
 0.57816388652E+01 0.58318745621E+01 0.59516845120E+01 0.61042319476E+01 0.62570504308E+01
 0.63895460218E+01 0.64910268395E+01 0.65551704385E+01 0.65772688436E+01 0.65551897583E+01
 0.64906382488E+01 0.63883925280E+01 0.62554359241E+01 0.61032880804E+01 0.59527184567E+01
 0.58350747073E+01 0.57853483695E+01 0.58285964769E+01 0.59665494955E+01 0.61710728501E+01
 0.63882486136E+01 0.65537739473E+01 0.66156401242E+01 0.65543028514E+01 0.63898766260E+01
 0.61733060745E+01 0.59674546680E+01 0.58267597736E+01 0.55852260847E+01 0.57398156157E+01
 0.59199602389E+01 0.61051909244E+01 0.62791932347E+01 0.64274162149E+01 0.65358443080E+01
 0.65931138214E+01 0.65931444888E+01 0.65360188039E+01 0.64276202506E+01 0.62787098892E+01
 0.61032880804E+01 0.59171271743E+01 0.57379430080E+01 0.55859548647E+01 0.54809324336E+01
 0.54344985629E+01 0.54426298140E+01 0.54852871961E+01 0.55346386973E+01 0.55662381436E+01
 0.55665328218E+01 0.55352665122E+01 0.54853943445E+01 0.54411573830E+01 0.54314387999E+01
 0.54779914990E+01 0.55495200705E+01 0.57414206871E+01 0.59539219631E+01 0.61762058158E+01
 0.63891860433E+01 0.65667070372E+01 0.66838522923E+01 0.67246504097E+01 0.66841987106E+01
 0.65678567434E+01 0.63909836283E+01 0.61772838670E+01 0.59527184567E+01 0.57379430080E+01
 0.55457744638E+01 0.53846270664E+01 0.52615244287E+01 0.51798488108E+01 0.51352883085E+01
 0.51165337478E+01 0.51110727923E+01 0.51103870355E+01 0.51113117013E+01 0.51161455261E+01
 0.51336141199E+01 0.51775650743E+01 0.52605030000E+01 0.53862951502E+01 0.55869177857E+01
 0.58335205683E+01 0.61243596628E+01 0.64371782441E+01 0.67312499430E+01 0.69596049349E+01
 0.70839140066E+01 0.70837594215E+01 0.69595328935E+01 0.67321017356E+01 0.64393782356E+01
 0.61271218181E+01 0.58350747073E+01 0.55859548647E+01 0.53846270664E+01 0.52263286259E+01
 0.51054265535E+01 0.50181671513E+01 0.49607266645E+01 0.49276950759E+01 0.49131916172E+01
 0.49131858711E+01 0.49274115144E+01 0.49600103452E+01 0.50178272712E+01 0.51066917709E+01
 0.52292720032E+01 0.53875894975E+01 0.57814416723E+01 0.61807907014E+01 0.66593548545E+01
 0.71640135716E+01 0.76157363059E+01 0.79301986046E+01 0.80426855134E+01 0.79289777982E+01
 0.76138739969E+01 0.71629117159E+01 0.66605575720E+01 0.61843699300E+01 0.57853483695E+01
 0.54809324336E+01 0.52615244287E+01 0.51054265535E+01 0.49931362049E+01 0.49135604276E+01
 0.48616631382E+01 0.48335008954E+01 0.48247547468E+01 0.48333113434E+01 0.48614230500E+01
 0.49139252196E+01 0.49948016964E+01 0.51078459017E+01 0.52627038498E+01 0.54792403030E+01
 0.63994321670E+01 0.71573291196E+01 0.80446987864E+01 0.89426305285E+01 0.96861144682E+01
 0.10110158217E+02 0.10109943880E+02 0.96849877272E+01 0.89400840963E+01 0.80416516155E+01
 0.71558495454E+01 0.64007587669E+01 0.58285964769E+01 0.54344985629E+01 0.51798488108E+01
 0.50181671513E+01 0.49135604276E+01 0.48460147968E+01 0.48060552645E+01 0.47878943053E+01
 0.47878182544E+01 0.48060160003E+01 0.48463833252E+01 0.49143570335E+01 0.50186182791E+01
 0.51787895558E+01 0.54316518714E+01 0.58254022726E+01 0.80062866183E+01 0.95512344739E+01
 0.11277508308E+02 0.12906744855E+02 0.14114611123E+02 0.14567209400E+02 0.14116289514E+02
 0.12907983124E+02 0.11276210588E+02 0.95474675246E+01 0.80023310151E+01 0.67996489455E+01
 0.59665494955E+01 0.54426298140E+01 0.51352883085E+01 0.49607266645E+01 0.48616631382E+01
 0.48060552645E+01 0.47777736051E+01 0.47690565300E+01 0.47776891144E+01 0.48062575213E+01
 0.48620396637E+01 0.49603653948E+01 0.51334783183E+01 0.54401121512E+01 0.59653488803E+01
 0.68013162413E+01 0.11760221278E+02 0.15002679255E+02 0.18715356039E+02 0.22096113109E+02
 0.24130578159E+02 0.24131805859E+02 0.22099244670E+02 0.18718774250E+02 0.15004275685E+02
 0.11758834293E+02 0.91989001914E+01 0.73534280574E+01 0.61710728501E+01 0.54852871961E+01
 0.51165337478E+01 0.49276950759E+01 0.48335008954E+01 0.47878943053E+01 0.47690565300E+01
 0.47689772757E+01 0.47878470200E+01 0.48335822762E+01 0.49274390562E+01 0.51156175964E+01
 0.54845511148E+01 0.61720386407E+01 0.73564656737E+01 0.92023157194E+01 0.20781473419E+02
 0.28580039909E+02 0.36535112139E+02 0.42522319864E+02 0.44749501486E+02 0.42522167790E+02
 0.36536614784E+02 0.28583922978E+02 0.20785711936E+02 0.14686155937E+02 0.10618572710E+02
 0.79718998887E+01 0.63882486136E+01 0.55346386973E+01 0.51110727923E+01 0.49131916172E+01
 0.48247547468E+01 0.47878182544E+01 0.47776891144E+01 0.47878470200E+01 0.48247232818E+01
 0.49129503611E+01 0.51107601672E+01 0.55350017162E+01 0.63900513943E+01 0.79745900482E+01
 0.10619986906E+02 0.14684409455E+02 0.42345544597E+02 0.57794090091E+02 0.71153688487E+02
 0.78910623759E+02 0.78908740899E+02 0.71149927114E+02 0.57792043375E+02 0.42346890879E+02
 0.28370517127E+02 0.18159150152E+02 0.12010819362E+02 0.85144924046E+01 0.65537739473E+01
 0.55662381436E+01 0.51103870355E+01 0.49131858711E+01 0.48333113434E+01 0.48060160003E+01
 0.48062575213E+01 0.48335822762E+01 0.49129503611E+01 0.51100803272E+01 0.55667253747E+01
 0.65549944961E+01 0.85152221167E+01 0.12009756237E+02 0.18156144618E+02 0.28367098414E+02
 0.83333006496E+02 0.10777511624E+03 0.12544422269E+03 0.13189077730E+03 0.12544071688E+03
 0.10777004061E+03 0.83328659153E+02 0.57816304052E+02 0.36257284279E+02 0.21398524247E+02
 0.13070702593E+02 0.88332746407E+01 0.66156401242E+01 0.55665328218E+01 0.51113117013E+01
 0.49274115144E+01 0.48614230500E+01 0.48463833252E+01 0.48620396637E+01 0.49274390562E+01
 0.51107601672E+01 0.55667253747E+01 0.66165478857E+01 0.88329656817E+01 0.13068207089E+02
 0.21395541205E+02 0.36256302845E+02 0.57818308098E+02 0.14646512021E+03 0.17841863015E+03
 0.19661126576E+03 0.19661133678E+03 0.17841875375E+03 0.14646446650E+03 0.10813481116E+03
 0.71380288754E+02 0.42273775959E+02 0.23374444325E+02 0.13472028046E+02 0.88329887511E+01
 0.65543028514E+01 0.55352665122E+01 0.51161455261E+01 0.49600103452E+01 0.49139252196E+01
 0.49143570335E+01 0.49603653948E+01 0.51156175964E+01 0.55350017162E+01 0.65549944961E+01
 0.88329656817E+01 0.13470200613E+02 0.23372999747E+02 0.42275264351E+02 0.71383757993E+02
 0.10813735282E+03 0.22815224612E+03 0.26303374284E+03 0.27567178231E+03 0.26303777440E+03
 0.22815875183E+03 0.17908595021E+03 0.12625963975E+03 0.79330055822E+02 0.44528585421E+02
 0.23373542994E+02 0.13068834779E+02 0.85145654323E+01 0.63898766260E+01 0.54853943445E+01
 0.51336141199E+01 0.50178272712E+01 0.49948016964E+01 0.50186182791E+01 0.51334783183E+01
 0.54845511148E+01 0.63900513943E+01 0.85152221167E+01 0.13068207089E+02 0.23372999747E+02
 0.44531098450E+02 0.79334272649E+02 0.12626038271E+03 0.17908125588E+03 0.31810392499E+03
 0.34884653477E+03 0.34884746528E+03 0.31810761478E+03 0.26379941496E+03 0.19779637021E+03
 0.13291227132E+03 0.79332034480E+02 0.42275007354E+02 0.21395871934E+02 0.12008608538E+02
 0.79737706420E+01 0.61733060745E+01 0.54411573830E+01 0.51775650743E+01 0.51066917709E+01
 0.51078459017E+01 0.51787895558E+01 0.54401121512E+01 0.61720386407E+01 0.79745900482E+01
 0.12009756237E+02 0.21395541205E+02 0.42275264351E+02 0.79334272649E+02 0.13291306942E+03
 0.19779257162E+03 0.26379353299E+03 0.40090607544E+03 0.41953192194E+03 0.40090095235E+03
 0.34943286237E+03 0.27676421921E+03 0.19779392725E+03 0.12626086791E+03 0.71384987687E+02
 0.36257852225E+02 0.18155388853E+02 0.10617958295E+02 0.73568425435E+01 0.59674546680E+01
 0.54314387999E+01 0.52605030000E+01 0.52292720032E+01 0.52627038498E+01 0.54316518714E+01
 0.59653488803E+01 0.73564656737E+01 0.10619986906E+02 0.18156144618E+02 0.36256302845E+02
 0.71383757993E+02 0.12626038271E+03 0.19779257162E+03 0.27676385823E+03 0.34943668142E+03
 0.45962955168E+03 0.45962430796E+03 0.41978581912E+03 0.34943150149E+03 0.26379330677E+03
 0.17908160732E+03 0.10813796422E+03 0.57820610943E+02 0.28368693242E+02 0.14683029474E+02
 0.92008122699E+01 0.68025316304E+01 0.58267597736E+01 0.54779914990E+01 0.53862951502E+01
 0.53875894975E+01 0.54792403030E+01 0.58254022726E+01 0.68013162413E+01 0.92023157194E+01
 0.14684409455E+02 0.28367098414E+02 0.57818308098E+02 0.10813735282E+03 0.17908125588E+03
 0.26379353299E+03 0.34943668142E+03 0.41979554160E+03 0.43009276681E+03 0.41086468581E+03
 0.35782663152E+03 0.28313511423E+03 0.20222212617E+03 0.12914329715E+03 0.73177197170E+02
 0.37332068496E+02 0.18796561547E+02 0.11065710370E+02 0.77383672854E+01 0.63176905171E+01
 0.57674056006E+01 0.55912803465E+01 0.55599487321E+01 0.55947314414E+01 0.57672208605E+01
 0.63141709511E+01 0.77387388916E+01 0.11069429689E+02 0.18796096088E+02 0.37327911661E+02
 0.73176993654E+02 0.12914670957E+03 0.20222198297E+03 0.28313269296E+03 0.35782976448E+03
 0.41087130555E+03 0.41086468581E+03 0.37465606509E+03 0.31086747410E+03 0.23357929777E+03
 0.15768346518E+03 0.94782114497E+02 0.50784479887E+02 0.25473839519E+02 0.13884846327E+02
 0.91150415595E+01 0.69987574800E+01 0.61343578129E+01 0.58222322720E+01 0.57398605759E+01
 0.57426209622E+01 0.58250113364E+01 0.61315976264E+01 0.69958955967E+01 0.91176939430E+01
 0.13887715565E+02 0.25471457711E+02 0.50782329119E+02 0.94785736376E+02 0.15768680489E+03
 0.23357529593E+03 0.31086062362E+03 0.37465363921E+03 0.41086502586E+03 0.35782663152E+03
 0.31086747410E+03 0.24495514669E+03 0.17397641703E+03 0.11046895892E+03 0.62491662530E+02