   2   2   0   0
  0.2465854E+02  0.3321450E-09  0.3321450E-09  0.5161920E-09  0.5000000E-15
  1.000000000000000E-004
  CAR 
 Sc                                      
     47.58767067    -50.16782695  301      3.67690607      1.00000000
    -50.168  0.0000E+00  0.0000E+00
    -49.842  0.0000E+00  0.0000E+00
    -49.516  0.0000E+00  0.0000E+00
    -49.190  0.0000E+00  0.0000E+00
    -48.864  0.0000E+00  0.0000E+00
    -48.539  0.0000E+00  0.0000E+00
    -48.213  0.0000E+00  0.0000E+00
    -47.887  0.0000E+00  0.0000E+00
    -47.561  0.0000E+00  0.0000E+00
    -47.235  0.0000E+00  0.0000E+00
    -46.909  0.0000E+00  0.0000E+00
    -46.583  0.0000E+00  0.0000E+00
    -46.258  0.0000E+00  0.0000E+00
    -45.932  0.2180E-09  0.7104E-10
    -45.606  0.1149E+02  0.3743E+01
    -45.280  0.7745E+00  0.4000E+01
    -44.954  0.0000E+00  0.4000E+01
    -44.628  0.0000E+00  0.4000E+01
    -44.302  0.0000E+00  0.4000E+01
    -43.977  0.0000E+00  0.4000E+01
    -43.651  0.0000E+00  0.4000E+01
    -43.325  0.0000E+00  0.4000E+01
    -42.999  0.0000E+00  0.4000E+01
    -42.673  0.0000E+00  0.4000E+01
    -42.347  0.0000E+00  0.4000E+01
    -42.022  0.0000E+00  0.4000E+01
    -41.696  0.0000E+00  0.4000E+01
    -41.370  0.0000E+00  0.4000E+01
    -41.044  0.0000E+00  0.4000E+01
    -40.718  0.0000E+00  0.4000E+01
    -40.392  0.0000E+00  0.4000E+01
    -40.066  0.0000E+00  0.4000E+01
    -39.741  0.0000E+00  0.4000E+01
    -39.415  0.0000E+00  0.4000E+01
    -39.089  0.0000E+00  0.4000E+01
    -38.763  0.0000E+00  0.4000E+01
    -38.437  0.0000E+00  0.4000E+01
    -38.111  0.0000E+00  0.4000E+01
    -37.785  0.0000E+00  0.4000E+01
    -37.460  0.0000E+00  0.4000E+01
    -37.134  0.0000E+00  0.4000E+01
    -36.808  0.0000E+00  0.4000E+01
    -36.482  0.0000E+00  0.4000E+01
    -36.156  0.0000E+00  0.4000E+01
    -35.830  0.0000E+00  0.4000E+01
    -35.505  0.0000E+00  0.4000E+01
    -35.179  0.0000E+00  0.4000E+01
    -34.853  0.0000E+00  0.4000E+01
    -34.527  0.0000E+00  0.4000E+01
    -34.201  0.0000E+00  0.4000E+01
    -33.875  0.0000E+00  0.4000E+01
    -33.549  0.0000E+00  0.4000E+01
    -33.224  0.0000E+00  0.4000E+01
    -32.898  0.0000E+00  0.4000E+01
    -32.572  0.0000E+00  0.4000E+01
    -32.246  0.0000E+00  0.4000E+01
    -31.920  0.0000E+00  0.4000E+01
    -31.594  0.0000E+00  0.4000E+01
    -31.268  0.0000E+00  0.4000E+01
    -30.943  0.0000E+00  0.4000E+01
    -30.617  0.0000E+00  0.4000E+01
    -30.291  0.0000E+00  0.4000E+01
    -29.965  0.0000E+00  0.4000E+01
    -29.639  0.0000E+00  0.4000E+01
    -29.313  0.0000E+00  0.4000E+01
    -28.987  0.0000E+00  0.4000E+01
    -28.662  0.0000E+00  0.4000E+01
    -28.336  0.0000E+00  0.4000E+01
    -28.010  0.0000E+00  0.4000E+01
    -27.684  0.0000E+00  0.4000E+01
    -27.358  0.0000E+00  0.4000E+01
    -27.032  0.0000E+00  0.4000E+01
    -26.707  0.0000E+00  0.4000E+01
    -26.381  0.0000E+00  0.4000E+01
    -26.055  0.0000E+00  0.4000E+01
    -25.729  0.0000E+00  0.4000E+01
    -25.403  0.0000E+00  0.4000E+01
    -25.077  0.0000E+00  0.4000E+01
    -24.751  0.1117E-08  0.4000E+01
    -24.426  0.8083E+01  0.6634E+01
    -24.100  0.2866E+02  0.1598E+02
    -23.774  0.5020E-01  0.1600E+02
    -23.448  0.0000E+00  0.1600E+02
    -23.122  0.0000E+00  0.1600E+02
    -22.796  0.0000E+00  0.1600E+02
    -22.470  0.0000E+00  0.1600E+02
    -22.145  0.0000E+00  0.1600E+02
    -21.819  0.0000E+00  0.1600E+02
    -21.493  0.0000E+00  0.1600E+02
    -21.167  0.0000E+00  0.1600E+02
    -20.841  0.0000E+00  0.1600E+02
    -20.515  0.0000E+00  0.1600E+02
    -20.189  0.0000E+00  0.1600E+02
    -19.864  0.0000E+00  0.1600E+02
    -19.538  0.0000E+00  0.1600E+02
    -19.212  0.0000E+00  0.1600E+02
    -18.886  0.0000E+00  0.1600E+02
    -18.560  0.0000E+00  0.1600E+02
    -18.234  0.0000E+00  0.1600E+02
    -17.909  0.0000E+00  0.1600E+02
    -17.583  0.0000E+00  0.1600E+02
    -17.257  0.0000E+00  0.1600E+02
    -16.931  0.0000E+00  0.1600E+02
    -16.605  0.0000E+00  0.1600E+02
    -16.279  0.0000E+00  0.1600E+02
    -15.953  0.0000E+00  0.1600E+02
    -15.628  0.0000E+00  0.1600E+02
    -15.302  0.0000E+00  0.1600E+02
    -14.976  0.0000E+00  0.1600E+02
    -14.650  0.0000E+00  0.1600E+02
    -14.324  0.0000E+00  0.1600E+02
    -13.998  0.0000E+00  0.1600E+02
    -13.672  0.0000E+00  0.1600E+02
    -13.347  0.0000E+00  0.1600E+02
    -13.021  0.0000E+00  0.1600E+02
    -12.695  0.0000E+00  0.1600E+02
    -12.369  0.0000E+00  0.1600E+02
    -12.043  0.0000E+00  0.1600E+02
    -11.717  0.0000E+00  0.1600E+02
    -11.391  0.0000E+00  0.1600E+02
    -11.066  0.0000E+00  0.1600E+02
    -10.740  0.0000E+00  0.1600E+02
    -10.414  0.0000E+00  0.1600E+02
    -10.088  0.0000E+00  0.1600E+02
     -9.762  0.0000E+00  0.1600E+02
     -9.436  0.0000E+00  0.1600E+02
     -9.111  0.0000E+00  0.1600E+02
     -8.785  0.0000E+00  0.1600E+02
     -8.459  0.0000E+00  0.1600E+02
     -8.133  0.0000E+00  0.1600E+02
     -7.807  0.0000E+00  0.1600E+02
     -7.481  0.0000E+00  0.1600E+02
     -7.155  0.0000E+00  0.1600E+02
     -6.830  0.0000E+00  0.1600E+02
     -6.504  0.0000E+00  0.1600E+02
     -6.178  0.0000E+00  0.1600E+02
     -5.852  0.0000E+00  0.1600E+02
     -5.526  0.0000E+00  0.1600E+02
     -5.200  0.0000E+00  0.1600E+02
     -4.874  0.0000E+00  0.1600E+02
     -4.549  0.0000E+00  0.1600E+02
     -4.223  0.0000E+00  0.1600E+02
     -3.897  0.0000E+00  0.1600E+02
     -3.571  0.0000E+00  0.1600E+02
     -3.245  0.0000E+00  0.1600E+02
     -2.919  0.0000E+00  0.1600E+02
     -2.593  0.0000E+00  0.1600E+02
     -2.268  0.0000E+00  0.1600E+02
     -1.942  0.0000E+00  0.1600E+02
     -1.616  0.4418E-08  0.1600E+02
     -1.290  0.3082E-01  0.1601E+02
     -0.964  0.1384E+00  0.1606E+02
     -0.638  0.2300E+00  0.1613E+02
     -0.313  0.2872E+00  0.1622E+02
      0.013  0.3716E+00  0.1634E+02
      0.339  0.3958E+00  0.1647E+02
      0.665  0.5456E+00  0.1665E+02
      0.991  0.4868E+00  0.1681E+02
      1.317  0.7856E+00  0.1707E+02
      1.643  0.8299E+00  0.1734E+02
      1.968  0.1166E+01  0.1772E+02
      2.294  0.1703E+01  0.1827E+02
      2.620  0.1810E+01  0.1886E+02
      2.946  0.1967E+01  0.1950E+02
      3.272  0.2927E+01  0.2046E+02
      3.598  0.3722E+01  0.2167E+02
      3.924  0.4135E+01  0.2302E+02
      4.249  0.1894E+01  0.2364E+02
      4.575  0.1889E+01  0.2425E+02
      4.901  0.4589E+01  0.2575E+02
      5.227  0.5077E+01  0.2741E+02
      5.553  0.5249E+01  0.2912E+02
      5.879  0.3368E+01  0.3022E+02
      6.205  0.2353E+01  0.3098E+02
      6.530  0.2390E+01  0.3176E+02
      6.856  0.2599E+01  0.3261E+02
      7.182  0.4085E+01  0.3394E+02
      7.508  0.7155E+01  0.3627E+02
      7.834  0.4653E+01  0.3779E+02
      8.160  0.1875E+01  0.3840E+02
      8.485  0.1268E+01  0.3882E+02
      8.811  0.1187E+01  0.3920E+02
      9.137  0.1269E+01  0.3962E+02
      9.463  0.5994E+00  0.3981E+02
      9.789  0.3332E+00  0.3992E+02
     10.115  0.3802E+00  0.4005E+02
     10.441  0.1439E+00  0.4009E+02
     10.766  0.1056E+01  0.4044E+02
     11.092  0.2359E+01  0.4121E+02
     11.418  0.1841E+01  0.4181E+02
     11.744  0.1657E+01  0.4235E+02
     12.070  0.1572E+01  0.4286E+02
     12.396  0.1536E+01  0.4336E+02
     12.722  0.1170E+01  0.4374E+02
     13.047  0.1175E+01  0.4413E+02
     13.373  0.1140E+01  0.4450E+02
     13.699  0.9327E+00  0.4480E+02
     14.025  0.1399E+01  0.4526E+02
     14.351  0.1800E+01  0.4584E+02
     14.677  0.2036E+01  0.4651E+02
     15.003  0.1883E+01  0.4712E+02
     15.328  0.1851E+01  0.4773E+02
     15.654  0.1657E+01  0.4827E+02
     15.980  0.1917E+01  0.4889E+02
     16.306  0.1785E+01  0.4948E+02
     16.632  0.1686E+01  0.5002E+02
     16.958  0.2082E+01  0.5070E+02
     17.283  0.9873E+00  0.5103E+02
     17.609  0.1773E+01  0.5160E+02
     17.935  0.1414E+01  0.5207E+02
     18.261  0.1629E+01  0.5260E+02
     18.587  0.1460E+01  0.5307E+02
     18.913  0.2397E+01  0.5385E+02
     19.239  0.1475E+01  0.5434E+02
     19.564  0.1005E+01  0.5466E+02
     19.890  0.8163E+00  0.5493E+02
     20.216  0.1277E+01  0.5534E+02
     20.542  0.1446E+01  0.5582E+02
     20.868  0.2064E+01  0.5649E+02
     21.194  0.1178E+01  0.5687E+02
     21.520  0.1432E+01  0.5734E+02
     21.845  0.1846E+01  0.5794E+02
     22.171  0.2021E+01  0.5860E+02
     22.497  0.2110E+01  0.5929E+02
     22.823  0.1435E+01  0.5976E+02
     23.149  0.1523E+01  0.6025E+02
     23.475  0.2193E+01  0.6097E+02
     23.800  0.2112E+01  0.6166E+02
     24.126  0.1973E+01  0.6230E+02
     24.452  0.1693E+01  0.6285E+02
     24.778  0.1723E+01  0.6342E+02
     25.104  0.1694E+01  0.6397E+02
     25.430  0.1943E+01  0.6460E+02
     25.756  0.1516E+01  0.6510E+02
     26.081  0.2186E+01  0.6581E+02
     26.407  0.1891E+01  0.6642E+02
     26.733  0.1522E+01  0.6692E+02
     27.059  0.1488E+01  0.6741E+02
     27.385  0.1717E+01  0.6797E+02
     27.711  0.2189E+01  0.6868E+02
     28.037  0.1842E+01  0.6928E+02
     28.362  0.2004E+01  0.6993E+02
     28.688  0.2102E+01  0.7062E+02
     29.014  0.2404E+01  0.7140E+02
     29.340  0.2036E+01  0.7207E+02
     29.666  0.2288E+01  0.7281E+02
     29.992  0.1572E+01  0.7332E+02
     30.318  0.2170E+01  0.7403E+02
     30.643  0.2139E+01  0.7473E+02
     30.969  0.1571E+01  0.7524E+02
     31.295  0.2717E+01  0.7613E+02
     31.621  0.2880E+01  0.7707E+02
     31.947  0.2124E+01  0.7776E+02
     32.273  0.1980E+01  0.7841E+02
     32.598  0.1833E+01  0.7900E+02
     32.924  0.1671E+01  0.7955E+02
     33.250  0.1663E+01  0.8009E+02
     33.576  0.2370E+01  0.8086E+02
     33.902  0.1982E+01  0.8151E+02
     34.228  0.2336E+01  0.8227E+02
     34.554  0.2207E+01  0.8299E+02
     34.879  0.2276E+01  0.8373E+02
     35.205  0.1761E+01  0.8431E+02
     35.531  0.2050E+01  0.8498E+02
     35.857  0.2650E+01  0.8584E+02
     36.183  0.2511E+01  0.8666E+02
     36.509  0.2059E+01  0.8733E+02
     36.835  0.2324E+01  0.8809E+02
     37.160  0.2454E+01  0.8889E+02
     37.486  0.2741E+01  0.8978E+02
     37.812  0.2790E+01  0.9069E+02
     38.138  0.2740E+01  0.9159E+02
     38.464  0.1882E+01  0.9220E+02
     38.790  0.2069E+01  0.9287E+02
     39.116  0.1516E+01  0.9337E+02
     39.441  0.1899E+01  0.9399E+02
     39.767  0.1893E+01  0.9461E+02
     40.093  0.1701E+01  0.9516E+02
     40.419  0.9694E+00  0.9548E+02
     40.745  0.7065E+00  0.9571E+02
     41.071  0.2090E+00  0.9578E+02
     41.396  0.1873E+00  0.9584E+02
     41.722  0.1628E+00  0.9589E+02
     42.048  0.7006E-01  0.9591E+02
     42.374  0.1099E-01  0.9592E+02
     42.700  0.1828E+00  0.9598E+02
     43.026  0.1980E-01  0.9598E+02
     43.352  0.5634E-01  0.9600E+02
     43.677  0.0000E+00  0.9600E+02
     44.003  0.0000E+00  0.9600E+02
     44.329  0.0000E+00  0.9600E+02
     44.655  0.0000E+00  0.9600E+02
     44.981  0.0000E+00  0.9600E+02
     45.307  0.0000E+00  0.9600E+02
     45.633  0.0000E+00  0.9600E+02
     45.958  0.0000E+00  0.9600E+02
     46.284  0.0000E+00  0.9600E+02
     46.610  0.0000E+00  0.9600E+02
     46.936  0.0000E+00  0.9600E+02
     47.262  0.0000E+00  0.9600E+02
     47.588  0.0000E+00  0.9600E+02
