    2    2    1    1
  0.2465854E+02  0.3321450E-09  0.3321450E-09  0.5161920E-09  0.5000000E-15
  1.000000000000000E-004
  CAR 
 Sc                                      
     22    133     48
 
  0.0000000E+00  0.0000000E+00  0.0000000E+00  0.5787037E-03
      1        -45.724395   1.000000
      2        -45.652852   1.000000
      3        -24.565373   1.000000
      4        -24.229580   1.000000
      5        -24.229567   1.000000
      6        -24.162753   1.000000
      7        -24.162740   1.000000
      8        -24.129657   1.000000
      9         -1.449428   1.000000
     10          2.049955   1.000000
     11          4.308129   0.000000
     12          5.266619   0.000000
     13          5.266641   0.000000
     14          5.542964   0.000000
     15          5.718522   0.000000
     16          5.718548   0.000000
     17          5.980645   0.000000
     18          5.980647   0.000000
     19          7.323195   0.000000
     20          7.323198   0.000000
     21         10.753883   0.000000
     22         15.627749   0.000000
     23         17.859126   0.000000
     24         18.260114   0.000000
     25         18.678500   0.000000
     26         18.678515   0.000000
     27         20.008958   0.000000
     28         20.008973   0.000000
     29         21.122330   0.000000
     30         21.122340   0.000000
     31         21.605758   0.000000
     32         24.333592   0.000000
     33         24.333596   0.000000
     34         24.338194   0.000000
     35         25.705260   0.000000
     36         26.168158   0.000000
     37         26.168223   0.000000
     38         26.888200   0.000000
     39         26.888265   0.000000
     40         28.363150   0.000000
     41         33.275556   0.000000
     42         37.350110   0.000000
     43         37.350192   0.000000
     44         37.442184   0.000000
     45         37.442257   0.000000
     46         37.478400   0.000000
     47         37.478414   0.000000
     48         40.773391   0.000000
 
  0.8333333E-01 -0.4010463E-17  0.0000000E+00  0.3472222E-02
      1        -45.721190   1.000000
      2        -45.651828   1.000000
      3        -24.556289   1.000000
      4        -24.246553   1.000000
      5        -24.235643   1.000000
      6        -24.180381   1.000000
      7        -24.164376   1.000000
      8        -24.133802   1.000000
      9         -1.298756   1.000000
     10          2.174272   1.000000
     11          4.172984   0.000000
     12          5.008214   0.000000
     13          5.375651   0.000000
     14          5.618277   0.000000
     15          5.732296   0.000000
     16          5.815654   0.000000
     17          5.864241   0.000000
     18          5.888999   0.000000
     19          7.375718   0.000000
     20          7.626477   0.000000
     21         10.736424   0.000000
     22         15.581634   0.000000
     23         17.107578   0.000000
     24         17.635955   0.000000
     25         18.341039   0.000000
     26         18.562952   0.000000
     27         19.410703   0.000000
     28         21.118535   0.000000
     29         21.177631   0.000000
     30         21.213681   0.000000
     31         23.045320   0.000000
     32         23.729896   0.000000
     33         23.806181   0.000000
     34         24.545186   0.000000
     35         24.708940   0.000000
     36         24.957473   0.000000
     37         27.119461   0.000000
     38         27.777686   0.000000
     39         28.313741   0.000000
     40         29.388000   0.000000
     41         33.647696   0.000000
     42         35.738012   0.000000
     43         35.873115   0.000000
     44         36.482888   0.000000
     45         37.490947   0.000000
     46         38.709761   0.000000
     47         39.087593   0.000000
     48         39.673457   0.000000
 
  0.1666667E+00  0.1165760E-16  0.0000000E+00  0.3472222E-02
      1        -45.712235   1.000000
      2        -45.649215   1.000000
      3        -24.530640   1.000000
      4        -24.293316   1.000000
      5        -24.251489   1.000000
      6        -24.228390   1.000000
      7        -24.170897   1.000000
      8        -24.146951   1.000000
      9         -0.861112   1.000000
     10          2.505705   1.000000
     11          3.862550   0.000000
     12          4.567673   0.000000
     13          5.390276   0.000000
     14          5.635997   0.000000
     15          5.671037   0.000000
     16          5.691714   0.000000
     17          6.017610   0.000000
     18          6.091700   0.000000
     19          7.486784   0.000000
     20          8.332466   0.000000
     21         10.683896   0.000000
     22         14.475323   0.000000
     23         16.213198   0.000000
     24         16.737572   0.000000
     25         17.748881   0.000000
     26         18.391721   0.000000
     27         19.081739   0.000000
     28         21.314294   0.000000
     29         21.326608   0.000000
     30         22.262717   0.000000
     31         22.391735   0.000000
     32         23.379302   0.000000
     33         23.431365   0.000000
     34         24.797292   0.000000
     35         25.193302   0.000000
     36         26.037829   0.000000
     37         28.253144   0.000000
     38         29.323178   0.000000
     39         29.821309   0.000000
     40         31.221050   0.000000
     41         33.618136   0.000000
     42         34.743393   0.000000
     43         34.767544   0.000000
     44         35.534147   0.000000
     45         37.511596   0.000000
     46         38.100087   0.000000
     47         39.325517   0.000000
     48         40.802036   0.000000
 
  0.2500000E+00 -0.8584839E-17  0.0000000E+00  0.3472222E-02
      1        -45.699416   1.000000
      2        -45.646243   1.000000
      3        -24.491443   1.000000
      4        -24.357166   1.000000
      5        -24.291840   1.000000
      6        -24.272126   1.000000
      7        -24.180202   1.000000
      8        -24.168206   1.000000
      9         -0.181163   1.000000
     10          2.890445   1.000000
     11          3.526204   0.999990
     12          4.109819   0.000000
     13          5.193221   0.000000
     14          5.393159   0.000000
     15          5.421053   0.000000
     16          6.178555   0.000000
     17          6.383344   0.000000
     18          6.502159   0.000000
     19          7.592700   0.000000
     20          9.224112   0.000000
     21         10.605447   0.000000
     22         12.717109   0.000000
     23         14.861586   0.000000
     24         16.361162   0.000000
     25         16.863162   0.000000
     26         17.993209   0.000000
     27         18.637577   0.000000
     28         20.865072   0.000000
     29         21.200862   0.000000
     30         21.473504   0.000000
     31         22.350135   0.000000
     32         24.452216   0.000000
     33         24.758819   0.000000
     34         25.716519   0.000000
     35         26.295298   0.000000
     36         28.452785   0.000000
     37         28.616094   0.000000
     38         30.687907   0.000000
     39         31.812666   0.000000
     40         31.878072   0.000000
     41         32.988702   0.000000
     42         34.070195   0.000000
     43         34.502458   0.000000
     44         36.600714   0.000000
     45         36.833332   0.000000
     46         37.466302   0.000000
     47         39.601026   0.000000
     48         39.724283   0.000000
 
  0.3333333E+00 -0.1259530E-16  0.0000000E+00  0.3472222E-02
      1        -45.685459   1.000000
      2        -45.644384   1.000000
      3        -24.445534   1.000000
      4        -24.422360   1.000000
      5        -24.352793   1.000000
      6        -24.291966   1.000000
      7        -24.196191   1.000000
      8        -24.190088   1.000000
      9          0.659226   1.000000
     10          3.048509   1.000000
     11          3.250585   1.000000
     12          3.730166   0.065981
     13          5.180374   0.000000
     14          5.204548   0.000000
     15          5.234321   0.000000
     16          6.754307   0.000000
     17          6.862079   0.000000
     18          6.969111   0.000000
     19          7.667399   0.000000
     20         10.182818   0.000000
     21         10.420394   0.000000
     22         11.221141   0.000000
     23         13.666881   0.000000
     24         15.218716   0.000000
     25         15.895439   0.000000
     26         17.272817   0.000000
     27         17.997093   0.000000
     28         19.889555   0.000000
     29         21.609006   0.000000
     30         21.774990   0.000000
     31         23.352377   0.000000
     32         24.722816   0.000000
     33         26.543663   0.000000
     34         27.558579   0.000000
     35         27.839198   0.000000
     36         29.288181   0.000000
     37         30.279681   0.000000
     38         30.699340   0.000000
     39         31.379973   0.000000
     40         31.481794   0.000000
     41         34.594055   0.000000
     42         35.422950   0.000000
     43         35.772604   0.000000
     44         36.054181   0.000000
     45         36.830657   0.000000
     46         37.241355   0.000000
     47         37.329184   0.000000
     48         38.604398   0.000000
 
  0.4166667E+00 -0.3742443E-17  0.0000000E+00  0.3472222E-02
      1        -45.673723   1.000000
      2        -45.644523   1.000000
      3        -24.470386   1.000000
      4        -24.402757   1.000000
      5        -24.396254   1.000000
      6        -24.306621   1.000000
      7        -24.226133   1.000000
      8        -24.197612   1.000000
      9          1.520594   1.000000
     10          2.883738   1.000000
     11          3.074961   1.000000
     12          3.449232   1.000000
     13          5.034745   0.000000
     14          5.060680   0.000000
     15          5.452220   0.000000
     16          7.232243   0.000000
     17          7.402060   0.000000
     18          7.489982   0.000000
     19          7.708787   0.000000
     20          9.425682   0.000000
     21         10.982966   0.000000
     22         11.072169   0.000000
     23         12.767269   0.000000
     24         14.307333   0.000000
     25         14.372522   0.000000
     26         16.675948   0.000000
     27         18.048801   0.000000
     28         18.984629   0.000000
     29         21.697074   0.000000
     30         22.478969   0.000000
     31         24.822309   0.000000
     32         24.850679   0.000000
     33         28.105785   0.000000
     34         28.815465   0.000000
     35         29.123934   0.000000
     36         29.781495   0.000000
     37         30.544670   0.000000
     38         30.611832   0.000000
     39         31.847002   0.000000
     40         32.252035   0.000000
     41         34.604302   0.000000
     42         35.050768   0.000000
     43         35.300379   0.000000
     44         35.679536   0.000000
     45         36.854962   0.000000
     46         37.112110   0.000000
     47         37.863113   0.000000
     48         38.122020   0.000000
 
  0.5000000E+00 -0.1716968E-16  0.0000000E+00  0.1736111E-02
      1        -45.668689   1.000000
      2        -45.645297   1.000000
      3        -24.487600   1.000000
      4        -24.412314   1.000000
      5        -24.382613   1.000000
      6        -24.311989   1.000000
      7        -24.241326   1.000000
      8        -24.200291   1.000000
      9          2.057047   1.000000
     10          2.622022   1.000000
     11          3.015038   1.000000
     12          3.329410   1.000000
     13          4.983294   0.000000
     14          5.010415   0.000000
     15          5.557072   0.000000
     16          7.402782   0.000000
     17          7.615071   0.000000
     18          7.721743   0.000000
     19          8.116638   0.000000
     20          8.572011   0.000000
     21         11.141021   0.000000
     22         11.519692   0.000000
     23         12.410548   0.000000
     24         13.641830   0.000000
     25         13.869001   0.000000
     26         16.452738   0.000000
     27         18.091561   0.000000
     28         18.658479   0.000000
     29         21.727395   0.000000
     30         22.720220   0.000000
     31         24.815336   0.000000
     32         26.197020   0.000000
     33         27.332967   0.000000
     34         28.742686   0.000000
     35         30.008498   0.000000
     36         30.811670   0.000000
     37         31.049294   0.000000
     38         31.856970   0.000000
     39         32.301852   0.000000
     40         32.519493   0.000000
     41         32.592119   0.000000
     42         33.988208   0.000000
     43         34.424340   0.000000
     44         35.935639   0.000000
     45         36.903893   0.000000
     46         37.797748   0.000000
     47         38.071663   0.000000
     48         38.566290   0.000000
 
  0.1666667E+00  0.8333333E-01  0.0000000E+00  0.3472222E-02
      1        -45.715109   1.000000
      2        -45.650011   1.000000
      3        -24.538856   1.000000
      4        -24.274948   1.000000
      5        -24.252916   1.000000
      6        -24.207855   1.000000
      7        -24.171044   1.000000
      8        -24.142466   1.000000
      9         -1.004357   1.000000
     10          2.404282   1.000000
     11          3.955676   0.000000
     12          4.688588   0.000000
     13          5.455398   0.000000
     14          5.607761   0.000000
     15          5.637674   0.000000
     16          5.800422   0.000000
     17          5.875985   0.000000
     18          6.045545   0.000000
     19          7.444790   0.000000
     20          8.126032   0.000000
     21         10.702084   0.000000
     22         15.143611   0.000000
     23         15.713541   0.000000
     24         17.596703   0.000000
     25         18.198296   0.000000
     26         18.402427   0.000000
     27         18.640571   0.000000
     28         21.019899   0.000000
     29         21.989218   0.000000
     30         22.203080   0.000000
     31         22.757501   0.000000
     32         23.024371   0.000000
     33         23.549774   0.000000
     34         24.142110   0.000000
     35         24.859840   0.000000
     36         25.884474   0.000000
     37         28.667836   0.000000
     38         28.669878   0.000000
     39         28.779301   0.000000
     40         30.957640   0.000000
     41         33.911102   0.000000
     42         34.563180   0.000000
     43         35.306421   0.000000
     44         35.543151   0.000000
     45         37.186260   0.000000
     46         38.897774   0.000000
     47         39.556588   0.000000
     48         39.991831   0.000000
 
  0.2500000E+00  0.8333333E-01  0.0000000E+00  0.6944444E-02
      1        -45.704211   1.000000
      2        -45.647230   1.000000
      3        -24.506509   1.000000
      4        -24.325899   1.000000
      5        -24.291280   1.000000
      6        -24.244710   1.000000
      7        -24.182421   1.000000
      8        -24.159816   1.000000
      9         -0.443686   1.000000
     10          2.778938   1.000000
     11          3.651008   0.768074
     12          4.252139   0.000000
     13          5.246832   0.000000
     14          5.350992   0.000000
     15          5.629734   0.000000
     16          6.014403   0.000000
     17          6.129583   0.000000
     18          6.435392   0.000000
     19          7.533204   0.000000
     20          8.913688   0.000000
     21         10.643491   0.000000
     22         13.617111   0.000000
     23         14.558155   0.000000
     24         16.897593   0.000000
     25         17.609111   0.000000
     26         18.142064   0.000000
     27         18.903677   0.000000
     28         20.407925   0.000000
     29         20.950336   0.000000
     30         22.276250   0.000000
     31         23.073608   0.000000
     32         23.436716   0.000000
     33         24.656214   0.000000
     34         24.962964   0.000000
     35         25.003572   0.000000
     36         28.118969   0.000000
     37         28.832686   0.000000
     38         30.148710   0.000000
     39         30.830704   0.000000
     40         32.247179   0.000000
     41         33.548788   0.000000
     42         33.763497   0.000000
     43         34.088072   0.000000
     44         36.073414   0.000000
     45         36.515445   0.000000
     46         38.483560   0.000000
     47         39.773303   0.000000
     48         40.575011   0.000000
 
  0.3333333E+00  0.8333333E-01  0.0000000E+00  0.6944444E-02
      1        -45.690764   1.000000
      2        -45.644875   1.000000
      3        -24.463610   1.000000
      4        -24.389158   1.000000
      5        -24.337913   1.000000
      6        -24.279216   1.000000
      7        -24.194667   1.000000
      8        -24.185014   1.000000
      9          0.322969   1.000000
     10          3.079457   1.000000
     11          3.368220   1.000000
     12          3.841964   0.000002
     13          5.112034   0.000000
     14          5.166815   0.000000
     15          5.402612   0.000000
     16          6.470348   0.000000
     17          6.576634   0.000000
     18          6.918049   0.000000
     19          7.609377   0.000000
     20          9.839036   0.000000
     21         10.578379   0.000000
     22         11.875727   0.000000
     23         13.531959   0.000000
     24         15.751567   0.000000
     25         16.740110   0.000000
     26         17.434659   0.000000
     27         18.780120   0.000000
     28         19.288994   0.000000
     29         21.362117   0.000000
     30         22.516084   0.000000
     31         23.431269   0.000000
     32         24.123975   0.000000
     33         25.501445   0.000000
     34         26.391433   0.000000
     35         26.870658   0.000000
     36         28.878267   0.000000
     37         30.393143   0.000000
     38         31.104751   0.000000
     39         31.791024   0.000000
     40         32.077235   0.000000
     41         33.367226   0.000000
     42         34.208257   0.000000
     43         34.825637   0.000000
     44         35.455052   0.000000
     45         37.047124   0.000000
     46         38.118763   0.000000
     47         38.339471   0.000000
     48         39.329254   0.000000
 
  0.4166667E+00  0.8333333E-01  0.0000000E+00  0.6944444E-02
      1        -45.677697   1.000000
      2        -45.644233   1.000000
      3        -24.445948   1.000000
      4        -24.417990   1.000000
      5        -24.379458   1.000000
      6        -24.304984   1.000000
      7        -24.215304   1.000000
      8        -24.205076   1.000000
      9          1.190104   1.000000
     10          3.060988   1.000000
     11          3.161430   1.000000
     12          3.533832   0.999974
     13          4.965182   0.000000
     14          5.177745   0.000000
     15          5.345093   0.000000
     16          6.932235   0.000000
     17          7.097143   0.000000
     18          7.446033   0.000000
     19          7.658650   0.000000
     20         10.036419   0.000000
     21         10.790677   0.000000
     22         10.976512   0.000000
     23         12.579166   0.000000
     24         14.772958   0.000000
     25         15.141203   0.000000
     26         16.710716   0.000000
     27         18.462602   0.000000
     28         18.793733   0.000000
     29         21.764105   0.000000
     30         23.154028   0.000000
     31         24.367225   0.000000
     32         24.639811   0.000000
     33         26.472557   0.000000
     34         28.087915   0.000000
     35         29.043896   0.000000
     36         29.385571   0.000000
     37         29.935788   0.000000
     38         30.886349   0.000000
     39         32.001137   0.000000
     40         32.362674   0.000000
     41         34.125795   0.000000
     42         34.812299   0.000000
     43         35.640729   0.000000
     44         36.148872   0.000000
     45         37.078216   0.000000
     46         37.360741   0.000000
     47         37.737821   0.000000
     48         38.254488   0.000000
 
  0.5000000E+00  0.8333333E-01  0.0000000E+00  0.6944444E-02
      1        -45.668730   1.000000
      2        -45.645270   1.000000
      3        -24.478359   1.000000
      4        -24.404179   1.000000
      5        -24.382814   1.000000
      6        -24.318690   1.000000
      7        -24.241388   1.000000
      8        -24.210904   1.000000
      9          1.965811   1.000000
     10          2.792633   1.000000
     11          3.053940   1.000000
     12          3.332293   1.000000
     13          4.930571   0.000000
     14          5.007885   0.000000
     15          5.548507   0.000000
     16          7.371143   0.000000
     17          7.420294   0.000000
     18          7.681630   0.000000
     19          7.974240   0.000000
     20          8.953377   0.000000
     21         11.181387   0.000000
     22         11.554147   0.000000
     23         11.953166   0.000000
     24         13.892688   0.000000
     25         14.037530   0.000000
     26         16.285570   0.000000
     27         17.992117   0.000000
     28         18.793834   0.000000
     29         21.934194   0.000000
     30         23.490110   0.000000
     31         24.783638   0.000000
     32         25.767434   0.000000
     33         27.916434   0.000000
     34         28.031520   0.000000
     35         29.300484   0.000000
     36         29.954415   0.000000
     37         30.639426   0.000000
     38         31.140966   0.000000
     39         31.922901   0.000000
     40         32.226590   0.000000
     41         34.315666   0.000000
     42         34.580900   0.000000
     43         35.213426   0.000000
     44         36.251539   0.000000
     45         37.079404   0.000000
     46         37.349629   0.000000
     47         37.824553   0.000000
     48         38.702813   0.000000
 
  0.3333333E+00  0.1666667E+00  0.0000000E+00  0.3472222E-02
      1        -45.692653   1.000000
      2        -45.645113   1.000000
      3        -24.469879   1.000000
      4        -24.359703   1.000000
      5        -24.352261   1.000000
      6        -24.264239   1.000000
      7        -24.203888   1.000000
      8        -24.181125   1.000000
      9          0.208476   1.000000
     10          3.106314   1.000000
     11          3.426673   1.000000
     12          3.864598   0.000000
     13          5.059498   0.000000
     14          5.147311   0.000000
     15          5.493446   0.000000
     16          6.317601   0.000000
     17          6.518269   0.000000
     18          6.912992   0.000000
     19          7.565058   0.000000
     20          9.734775   0.000000
     21         10.626198   0.000000
     22         12.622704   0.000000
     23         12.804054   0.000000
     24         16.046398   0.000000
     25         17.393512   0.000000
     26         17.777001   0.000000
     27         17.867758   0.000000
     28         20.175358   0.000000
     29         21.117018   0.000000
     30         22.114486   0.000000
     31         24.471793   0.000000
     32         24.736973   0.000000
     33         24.836063   0.000000
     34         24.885920   0.000000
     35         26.025047   0.000000
     36         29.074139   0.000000
     37         30.687821   0.000000
     38         31.290669   0.000000
     39         32.213796   0.000000
     40         32.612959   0.000000
     41         32.877939   0.000000
     42         33.256175   0.000000
     43         34.047138   0.000000
     44         35.446678   0.000000
     45         36.492826   0.000000
     46         38.692765   0.000000
     47         38.930574   0.000000
     48         40.771417   0.000000
 
  0.4166667E+00  0.1666667E+00  0.0000000E+00  0.6944444E-02
      1        -45.679897   1.000000
      2        -45.644166   1.000000
      3        -24.426038   1.000000
      4        -24.412943   1.000000
      5        -24.381600   1.000000
      6        -24.295922   1.000000
      7        -24.224214   1.000000
      8        -24.209465   1.000000
      9          1.018973   1.000000
     10          3.249138   1.000000
     11          3.254026   1.000000
     12          3.535043   0.999970
     13          4.859306   0.000000
     14          5.247929   0.000000
     15          5.269886   0.000000
     16          6.616028   0.000000
     17          7.050985   0.000000
     18          7.438079   0.000000
     19          7.589201   0.000000
     20         10.576850   0.000000
     21         10.678903   0.000000
     22         11.154759   0.000000
     23         11.854425   0.000000
     24         15.262512   0.000000
     25         16.103045   0.000000
     26         16.488904   0.000000
     27         17.269910   0.000000
     28         20.454464   0.000000
     29         21.780035   0.000000
     30         23.153544   0.000000
     31         24.711125   0.000000
     32         24.851135   0.000000
     33         25.760354   0.000000
     34         26.278199   0.000000
     35         27.265878   0.000000
     36         29.693075   0.000000
     37         31.166673   0.000000
     38         31.224064   0.000000
     39         32.389091   0.000000
     40         32.879172   0.000000
     41         33.327410   0.000000
     42         34.161462   0.000000
     43         34.270613   0.000000
     44         35.252571   0.000000
     45         37.223122   0.000000
     46         37.651712   0.000000
     47         39.333361   0.000000
     48         39.899546   0.000000
 
  0.5000000E+00  0.1666667E+00  0.0000000E+00  0.6944444E-02
      1        -45.668810   1.000000
      2        -45.645202   1.000000
      3        -24.454267   1.000000
      4        -24.393131   1.000000
      5        -24.383465   1.000000
      6        -24.328261   1.000000
      7        -24.240750   1.000000
      8        -24.237731   1.000000
      9          1.850585   1.000000
     10          3.090488   1.000000
     11          3.140208   1.000000
     12          3.332252   1.000000
     13          4.786776   0.000000
     14          5.034646   0.000000
     15          5.510114   0.000000
     16          6.998444   0.000000
     17          7.403605   0.000000
     18          7.602639   0.000000
     19          7.944356   0.000000
     20          9.503910   0.000000
     21         11.097984   0.000000
     22         11.265152   0.000000
     23         11.618554   0.000000
     24         14.482907   0.000000
     25         14.536306   0.000000
     26         15.847334   0.000000
     27         16.738736   0.000000
     28         20.453051   0.000000
     29         22.394174   0.000000
     30         24.458595   0.000000
     31         24.995585   0.000000
     32         25.475029   0.000000
     33         26.090512   0.000000
     34         27.863161   0.000000
     35         28.275048   0.000000
     36         29.275330   0.000000
     37         30.754828   0.000000
     38         31.265102   0.000000
     39         31.524765   0.000000
     40         31.552152   0.000000
     41         34.233876   0.000000
     42         35.229685   0.000000
     43         36.153373   0.000000
     44         36.204836   0.000000
     45         37.174809   0.000000
     46         38.186985   0.000000
     47         38.578660   0.000000
     48         39.104401   0.000000
 
 -0.4166667E+00  0.1666667E+00  0.0000000E+00  0.3472222E-02
      1        -45.663737   1.000000
      2        -45.646594   1.000000
      3        -24.469038   1.000000
      4        -24.394337   1.000000
      5        -24.361560   1.000000
      6        -24.342866   1.000000
      7        -24.258309   1.000000
      8        -24.242216   1.000000
      9          2.372321   1.000000
     10          2.845526   1.000000
     11          3.104005   1.000000
     12          3.238386   1.000000
     13          4.824609   0.000000
     14          4.884918   0.000000
     15          5.643072   0.000000
     16          7.284810   0.000000
     17          7.459272   0.000000
     18          7.606722   0.000000
     19          8.267147   0.000000
     20          8.842923   0.000000
     21         10.780633   0.000000
     22         11.606048   0.000000
     23         12.146060   0.000000
     24         13.760125   0.000000
     25         14.003472   0.000000
     26         15.636299   0.000000
     27         16.527679   0.000000
     28         20.434577   0.000000
     29         22.610786   0.000000
     30         24.692394   0.000000
     31         25.070193   0.000000
     32         26.224701   0.000000
     33         27.475837   0.000000
     34         27.964273   0.000000
     35         28.008341   0.000000
     36         28.807411   0.000000
     37         29.865857   0.000000
     38         30.763462   0.000000
     39         31.113158   0.000000
     40         33.419267   0.000000
     41         34.813257   0.000000
     42         34.848056   0.000000
     43         35.138453   0.000000
     44         37.265782   0.000000
     45         37.538699   0.000000
     46         37.826610   0.000000
     47         38.304382   0.000000
     48         38.953962   0.000000
 
  0.5000000E+00  0.2500000E+00  0.0000000E+00  0.3472222E-02
      1        -45.668846   1.000000
      2        -45.645165   1.000000
      3        -24.433439   1.000000
      4        -24.400122   1.000000
      5        -24.383852   1.000000
      6        -24.323396   1.000000
      7        -24.257179   1.000000
      8        -24.240581   1.000000