<?xml version="1.0" encoding="ISO-8859-1"?>
<modeling>
 <generator>
  <i name="program" type="string">vasp </i>
  <i name="version" type="string">6.4.3  </i>
  <i name="subversion" type="string">19Mar24 (build Jun 26 2024 13:02:28) complex                          parallel </i>
  <i name="platform" type="string">LinuxIFC </i>
  <i name="date" type="string">2025 08 08 </i>
  <i name="time" type="string">18:16:26 </i>
 </generator>
 <incar>
  <i type="string" name="SYSTEM">Sc</i>
  <i type="int" name="IBRION">    -1</i>
  <i type="int" name="ISYM">     2</i>
  <i name="ENCUT">    289.45800000</i>
  <i type="int" name="ISMEAR">     0</i>
  <i name="SIGMA">      0.05000000</i>
  <i type="logical" name="LWAVE"> T  </i>
  <i type="logical" name="LCHARG"> T  </i>
 </incar>
 <primitive_cell>
  <structure name="primitive_cell" >
   <crystal>
    <varray name="basis" >
     <v>       3.32145000       0.00000000       0.00000000 </v>
     <v>       1.66072500       2.87646008       0.00000000 </v>
     <v>       0.00000000       0.00000000       5.16192000 </v>
    </varray>
    <i name="volume">     49.31707827 </i>
    <varray name="rec_basis" >
     <v>       0.30107333      -0.17382477       0.00000000 </v>
     <v>       0.00000000       0.34764953       0.00000000 </v>
     <v>      -0.00000000      -0.00000000       0.19372637 </v>
    </varray>
   </crystal>
   <varray name="positions" >
    <v>       0.00000000       0.00000000       0.00000000 </v>
    <v>       0.33333333       0.33333333       0.50000000 </v>
   </varray>
  </structure>
  <varray name="primitive_index" >
   <v type="int" >        1 </v>
   <v type="int" >        2 </v>
  </varray>
 </primitive_cell>
 <kpoints>
  <generation param="Gamma">
   <v type="int" name="divisions">      12       12       12 </v>
   <v name="usershift">      0.00000000       0.00000000       0.00000000 </v>
   <v name="genvec1">      0.08333333       0.00000000       0.00000000 </v>
   <v name="genvec2">      0.00000000       0.08333333       0.00000000 </v>
   <v name="genvec3">      0.00000000       0.00000000       0.08333333 </v>
   <v name="shift">      0.00000000       0.00000000       0.00000000 </v>
  </generation>
  <varray name="kpointlist" >
   <v>       0.00000000       0.00000000       0.00000000 </v>
   <v>       0.08333333      -0.00000000       0.00000000 </v>
   <v>       0.16666667       0.00000000       0.00000000 </v>
   <v>       0.25000000      -0.00000000       0.00000000 </v>
   <v>       0.33333333      -0.00000000       0.00000000 </v>
   <v>       0.41666667      -0.00000000       0.00000000 </v>
   <v>       0.50000000      -0.00000000       0.00000000 </v>
   <v>       0.16666667       0.08333333       0.00000000 </v>
   <v>       0.25000000       0.08333333       0.00000000 </v>
   <v>       0.33333333       0.08333333       0.00000000 </v>
   <v>       0.41666667       0.08333333       0.00000000 </v>
   <v>       0.50000000       0.08333333       0.00000000 </v>
   <v>       0.33333333       0.16666667       0.00000000 </v>
   <v>       0.41666667       0.16666667       0.00000000 </v>
   <v>       0.50000000       0.16666667       0.00000000 </v>
   <v>      -0.41666667       0.16666667       0.00000000 </v>
   <v>       0.50000000       0.25000000       0.00000000 </v>
   <v>      -0.41666667       0.25000000       0.00000000 </v>
   <v>      -0.33333333       0.33333333       0.00000000 </v>
   <v>      -0.00000000       0.00000000       0.08333333 </v>
   <v>       0.08333333       0.00000000       0.08333333 </v>
   <v>       0.16666667       0.00000000       0.08333333 </v>
   <v>       0.25000000      -0.00000000       0.08333333 </v>
   <v>       0.33333333      -0.00000000       0.08333333 </v>
   <v>       0.41666667      -0.00000000       0.08333333 </v>
   <v>       0.50000000      -0.00000000       0.08333333 </v>
   <v>       0.16666667       0.08333333       0.08333333 </v>
   <v>       0.25000000       0.08333333       0.08333333 </v>
   <v>       0.33333333       0.08333333       0.08333333 </v>
   <v>       0.41666667       0.08333333       0.08333333 </v>
   <v>       0.50000000       0.08333333       0.08333333 </v>
   <v>       0.33333333       0.16666667       0.08333333 </v>
   <v>       0.41666667       0.16666667       0.08333333 </v>
   <v>       0.50000000       0.16666667       0.08333333 </v>
   <v>      -0.41666667       0.16666667       0.08333333 </v>
   <v>       0.50000000       0.25000000       0.08333333 </v>
   <v>      -0.41666667       0.25000000       0.08333333 </v>
   <v>      -0.33333333       0.33333333       0.08333333 </v>
   <v>      -0.00000000       0.00000000       0.16666667 </v>
   <v>       0.08333333       0.00000000       0.16666667 </v>
   <v>       0.16666667       0.00000000       0.16666667 </v>
   <v>       0.25000000       0.00000000       0.16666667 </v>
   <v>       0.33333333       0.00000000       0.16666667 </v>
   <v>       0.41666667       0.00000000       0.16666667 </v>
   <v>       0.50000000      -0.00000000       0.16666667 </v>
   <v>       0.16666667       0.08333333       0.16666667 </v>
   <v>       0.25000000       0.08333333       0.16666667 </v>
   <v>       0.33333333       0.08333333       0.16666667 </v>
   <v>       0.41666667       0.08333333       0.16666667 </v>
   <v>       0.50000000       0.08333333       0.16666667 </v>
   <v>       0.33333333       0.16666667       0.16666667 </v>
   <v>       0.41666667       0.16666667       0.16666667 </v>
   <v>       0.50000000       0.16666667       0.16666667 </v>
   <v>      -0.41666667       0.16666667       0.16666667 </v>
   <v>       0.50000000       0.25000000       0.16666667 </v>
   <v>      -0.41666667       0.25000000       0.16666667 </v>
   <v>      -0.33333333       0.33333333       0.16666667 </v>
   <v>      -0.00000000       0.00000000       0.25000000 </v>
   <v>       0.08333333      -0.00000000       0.25000000 </v>
   <v>       0.16666667       0.00000000       0.25000000 </v>
   <v>       0.25000000       0.00000000       0.25000000 </v>
   <v>       0.33333333       0.00000000       0.25000000 </v>
   <v>       0.41666667       0.00000000       0.25000000 </v>
   <v>       0.50000000      -0.00000000       0.25000000 </v>
   <v>       0.16666667       0.08333333       0.25000000 </v>
   <v>       0.25000000       0.08333333       0.25000000 </v>
   <v>       0.33333333       0.08333333       0.25000000 </v>
   <v>       0.41666667       0.08333333       0.25000000 </v>
   <v>       0.50000000       0.08333333       0.25000000 </v>
   <v>       0.33333333       0.16666667       0.25000000 </v>
   <v>       0.41666667       0.16666667       0.25000000 </v>
   <v>       0.50000000       0.16666667       0.25000000 </v>
   <v>      -0.41666667       0.16666667       0.25000000 </v>
   <v>       0.50000000       0.25000000       0.25000000 </v>
   <v>      -0.41666667       0.25000000       0.25000000 </v>
   <v>      -0.33333333       0.33333333       0.25000000 </v>
   <v>       0.00000000       0.00000000       0.33333333 </v>
   <v>       0.08333333       0.00000000       0.33333333 </v>
   <v>       0.16666667      -0.00000000       0.33333333 </v>
   <v>       0.25000000       0.00000000       0.33333333 </v>
   <v>       0.33333333       0.00000000       0.33333333 </v>
   <v>       0.41666667       0.00000000       0.33333333 </v>
   <v>       0.50000000       0.00000000       0.33333333 </v>
   <v>       0.16666667       0.08333333       0.33333333 </v>
   <v>       0.25000000       0.08333333       0.33333333 </v>
   <v>       0.33333333       0.08333333       0.33333333 </v>
   <v>       0.41666667       0.08333333       0.33333333 </v>
   <v>       0.50000000       0.08333333       0.33333333 </v>
   <v>       0.33333333       0.16666667       0.33333333 </v>
   <v>       0.41666667       0.16666667       0.33333333 </v>
   <v>       0.50000000       0.16666667       0.33333333 </v>
   <v>      -0.41666667       0.16666667       0.33333333 </v>
   <v>       0.50000000       0.25000000       0.33333333 </v>
   <v>      -0.41666667       0.25000000       0.33333333 </v>
   <v>      -0.33333333       0.33333333       0.33333333 </v>
   <v>      -0.00000000      -0.00000000       0.41666667 </v>
   <v>       0.08333333      -0.00000000       0.41666667 </v>
   <v>       0.16666667      -0.00000000       0.41666667 </v>
   <v>       0.25000000       0.00000000       0.41666667 </v>
   <v>       0.33333333       0.00000000       0.41666667 </v>
   <v>       0.41666667       0.00000000       0.41666667 </v>
   <v>       0.50000000       0.00000000       0.41666667 </v>
   <v>       0.16666667       0.08333333       0.41666667 </v>
   <v>       0.25000000       0.08333333       0.41666667 </v>
   <v>       0.33333333       0.08333333       0.41666667 </v>
   <v>       0.41666667       0.08333333       0.41666667 </v>
   <v>       0.50000000       0.08333333       0.41666667 </v>
   <v>       0.33333333       0.16666667       0.41666667 </v>
   <v>       0.41666667       0.16666667       0.41666667 </v>
   <v>       0.50000000       0.16666667       0.41666667 </v>
   <v>      -0.41666667       0.16666667       0.41666667 </v>
   <v>       0.50000000       0.25000000       0.41666667 </v>
   <v>      -0.41666667       0.25000000       0.41666667 </v>
   <v>      -0.33333333       0.33333333       0.41666667 </v>
   <v>      -0.00000000       0.00000000       0.50000000 </v>
   <v>       0.08333333      -0.00000000       0.50000000 </v>
   <v>       0.16666667      -0.00000000       0.50000000 </v>
   <v>       0.25000000       0.00000000       0.50000000 </v>
   <v>       0.33333333       0.00000000       0.50000000 </v>
   <v>       0.41666667       0.00000000       0.50000000 </v>
   <v>       0.50000000       0.00000000       0.50000000 </v>
   <v>       0.16666667       0.08333333       0.50000000 </v>
   <v>       0.25000000       0.08333333       0.50000000 </v>
   <v>       0.33333333       0.08333333       0.50000000 </v>
   <v>       0.41666667       0.08333333       0.50000000 </v>
   <v>       0.50000000       0.08333333       0.50000000 </v>
   <v>       0.33333333       0.16666667       0.50000000 </v>
   <v>       0.41666667       0.16666667       0.50000000 </v>
   <v>       0.50000000       0.16666667       0.50000000 </v>
   <v>      -0.41666667       0.16666667       0.50000000 </v>
   <v>       0.50000000       0.25000000       0.50000000 </v>
   <v>      -0.41666667       0.25000000       0.50000000 </v>
   <v>      -0.33333333       0.33333333       0.50000000 </v>
  </varray>
  <varray name="weights" >
   <v>       0.00057870 </v>
   <v>       0.00347222 </v>
   <v>       0.00347222 </v>
   <v>       0.00347222 </v>
   <v>       0.00347222 </v>
   <v>       0.00347222 </v>
   <v>       0.00173611 </v>
   <v>       0.00347222 </v>
   <v>       0.00694444 </v>
   <v>       0.00694444 </v>
   <v>       0.00694444 </v>
   <v>       0.00694444 </v>
   <v>       0.00347222 </v>
   <v>       0.00694444 </v>
   <v>       0.00694444 </v>
   <v>       0.00347222 </v>
   <v>       0.00347222 </v>
   <v>       0.00694444 </v>
   <v>       0.00115741 </v>
   <v>       0.00115741 </v>
   <v>       0.00694444 </v>
   <v>       0.00694444 </v>
   <v>       0.00694444 </v>
   <v>       0.00694444 </v>
   <v>       0.00694444 </v>
   <v>       0.00347222 </v>
   <v>       0.00694444 </v>
   <v>       0.01388889 </v>
   <v>       0.01388889 </v>
   <v>       0.01388889 </v>
   <v>       0.01388889 </v>
   <v>       0.00694444 </v>
   <v>       0.01388889 </v>
   <v>       0.01388889 </v>
   <v>       0.00694444 </v>
   <v>       0.00694444 </v>
   <v>       0.01388889 </v>
   <v>       0.00231481 </v>
   <v>       0.00115741 </v>
   <v>       0.00694444 </v>
   <v>       0.00694444 </v>
   <v>       0.00694444 </v>
   <v>       0.00694444 </v>
   <v>       0.00694444 </v>
   <v>       0.00347222 </v>
   <v>       0.00694444 </v>
   <v>       0.01388889 </v>
   <v>       0.01388889 </v>
   <v>       0.01388889 </v>
   <v>       0.01388889 </v>
   <v>       0.00694444 </v>
   <v>       0.01388889 </v>
   <v>       0.01388889 </v>
   <v>       0.00694444 </v>
   <v>       0.00694444 </v>
   <v>       0.01388889 </v>
   <v>       0.00231481 </v>
   <v>       0.00115741 </v>
   <v>       0.00694444 </v>
   <v>       0.00694444 </v>
   <v>       0.00694444 </v>
   <v>       0.00694444 </v>
   <v>       0.00694444 </v>
   <v>       0.00347222 </v>
   <v>       0.00694444 </v>
   <v>       0.01388889 </v>
   <v>       0.01388889 </v>
   <v>       0.01388889 </v>
   <v>       0.01388889 </v>
   <v>       0.00694444 </v>
   <v>       0.01388889 </v>
   <v>       0.01388889 </v>
   <v>       0.00694444 </v>
   <v>       0.00694444 </v>
   <v>       0.01388889 </v>
   <v>       0.00231481 </v>
   <v>       0.00115741 </v>
   <v>       0.00694444 </v>
   <v>       0.00694444 </v>
   <v>       0.00694444 </v>
   <v>       0.00694444 </v>
   <v>       0.00694444 </v>
   <v>       0.00347222 </v>
   <v>       0.00694444 </v>
   <v>       0.01388889 </v>
   <v>       0.01388889 </v>
   <v>       0.01388889 </v>
   <v>       0.01388889 </v>
   <v>       0.00694444 </v>
   <v>       0.01388889 </v>
   <v>       0.01388889 </v>
   <v>       0.00694444 </v>
   <v>       0.00694444 </v>
   <v>       0.01388889 </v>
   <v>       0.00231481 </v>
   <v>       0.00115741 </v>
   <v>       0.00694444 </v>
   <v>       0.00694444 </v>
   <v>       0.00694444 </v>
   <v>       0.00694444 </v>
   <v>       0.00694444 </v>
   <v>       0.00347222 </v>
   <v>       0.00694444 </v>
   <v>       0.01388889 </v>
   <v>       0.01388889 </v>
   <v>       0.01388889 </v>
   <v>       0.01388889 </v>
   <v>       0.00694444 </v>
   <v>       0.01388889 </v>
   <v>       0.01388889 </v>
   <v>       0.00694444 </v>
   <v>       0.00694444 </v>
   <v>       0.01388889 </v>
   <v>       0.00231481 </v>
   <v>       0.00057870 </v>
   <v>       0.00347222 </v>
   <v>       0.00347222 </v>
   <v>       0.00347222 </v>
   <v>       0.00347222 </v>
   <v>       0.00347222 </v>
   <v>       0.00173611 </v>
   <v>       0.00347222 </v>
   <v>       0.00694444 </v>
   <v>       0.00694444 </v>
   <v>       0.00694444 </v>
   <v>       0.00694444 </v>
   <v>       0.00347222 </v>
   <v>       0.00694444 </v>
   <v>       0.00694444 </v>
   <v>       0.00347222 </v>
   <v>       0.00347222 </v>
   <v>       0.00694444 </v>
   <v>       0.00115741 </v>
  </varray>
 </kpoints>
 <parameters>
  <separator name="general" >
   <i type="string" name="SYSTEM">Sc</i>
   <i type="logical" name="LCOMPAT"> F  </i>
  </separator>
  <separator name="electronic" >
   <i type="string" name="PREC">normal</i>
   <i name="ENMAX">    289.45800000</i>
   <i name="ENAUG">    443.06300000</i>
   <i name="EDIFF">      0.00010000</i>
   <i type="int" name="IALGO">    38</i>
   <i type="int" name="IWAVPR">    10</i>
   <i type="int" name="NBANDS">    48</i>
   <i type="int" name="NBANDSLOW">    -1</i>
   <i type="int" name="NBANDSHIGH">    -1</i>
   <i name="NELECT">     22.00000000</i>
   <i type="int" name="TURBO">     0</i>
   <i type="int" name="IRESTART">     0</i>
   <i type="int" name="NREBOOT">     0</i>
   <i type="int" name="NMIN">     0</i>
   <i name="EREF">      0.00000000</i>
   <separator name="electronic smearing" >
    <i type="int" name="ISMEAR">     0</i>
    <i name="SIGMA">      0.05000000</i>
    <i name="KSPACING">      0.50000000</i>
    <i type="logical" name="KGAMMA"> T  </i>
    <i type="logical" name="KBLOWUP"> T  </i>
   </separator>
   <separator name="electronic projectors" >
    <i type="logical" name="LREAL"> F  </i>
    <v name="ROPT">      0.00000000</v>
    <i type="int" name="LMAXPAW">  -100</i>
    <i type="int" name="LMAXMIX">     2</i>
    <i type="logical" name="NLSPLINE"> F  </i>
   </separator>
   <separator name="electronic startup" >
    <i type="int" name="ISTART">     1</i>
    <i type="int" name="ICHARG">     0</i>
    <i type="int" name="INIWAV">     1</i>
   </separator>
   <separator name="electronic spin" >
    <i type="int" name="ISPIN">     1</i>
    <i type="logical" name="LNONCOLLINEAR"> F  </i>
    <v name="MAGMOM">      1.00000000      1.00000000</v>
    <i name="NUPDOWN">     -1.00000000</i>
    <i type="logical" name="LSORBIT"> F  </i>
    <v name="SAXIS">      0.00000000      0.00000000      1.00000000</v>
    <i type="logical" name="LSPIRAL"> F  </i>
    <v name="QSPIRAL">      0.00000000      0.00000000      0.00000000</v>
    <i type="logical" name="LZEROZ"> F  </i>
   </separator>
   <separator name="electronic exchange-correlation" >
    <i type="logical" name="LASPH"> F  </i>
   </separator>
   <separator name="electronic convergence" >
    <i type="int" name="NELM">    60</i>
    <i type="int" name="NELMDL">     0</i>
    <i type="int" name="NELMIN">     2</i>
    <i name="ENINI">    289.45800000</i>
    <separator name="electronic convergence detail" >
     <i type="logical" name="LDIAG"> T  </i>
     <i type="logical" name="LSUBROT"> F  </i>
     <i name="WEIMIN">      0.00000000</i>
     <i name="EBREAK">      0.00000052</i>
     <i name="DEPER">      0.30000000</i>
     <i type="int" name="NRMM">     4</i>
     <i name="TIME">      0.40000000</i>
    </separator>
   </separator>
   <separator name="electronic mixer" >
    <i name="AMIX">      0.40000000</i>
    <i name="BMIX">      1.00000000</i>
    <i name="AMIN">      0.10000000</i>
    <i name="AMIX_MAG">      1.60000000</i>
    <i name="BMIX_MAG">      1.00000000</i>
    <separator name="electronic mixer details" >
     <i type="int" name="IMIX">     4</i>
     <i type="logical" name="MIXFIRST"> F  </i>
     <i type="int" name="MAXMIX">   -45</i>
     <i name="WC">    100.00000000</i>
     <i type="int" name="INIMIX">     1</i>
     <i type="int" name="MIXPRE">     1</i>
     <i type="int" name="MREMOVE">     5</i>
    </separator>
   </separator>
   <separator name="electronic dipolcorrection" >
    <i type="logical" name="LDIPOL"> F  </i>
    <i type="logical" name="LMONO"> F  </i>
    <i type="int" name="IDIPOL">     0</i>
    <i name="EPSILON">      1.00000000</i>
    <v name="DIPOL">   -100.00000000   -100.00000000   -100.00000000</v>
    <i name="EFIELD">      0.00000000</i>
    <i type="logical" name="LVACPOTAV"> F  </i>
   </separator>
  </separator>
  <separator name="grids" >
   <i type="int" name="NGX">    14</i>
   <i type="int" name="NGY">    14</i>
   <i type="int" name="NGZ">    24</i>
   <i type="int" name="NGXF">    28</i>
   <i type="int" name="NGYF">    28</i>
   <i type="int" name="NGZF">    48</i>
   <i type="logical" name="ADDGRID"> F  </i>
  </separator>
  <separator name="ionic" >
   <i type="int" name="NSW">     0</i>
   <i type="int" name="IBRION">    -1</i>
   <i type="int" name="MDALGO">     0</i>
   <i type="int" name="ISIF">     2</i>
   <i name="PSTRESS">      0.00000000</i>
   <i name="EDIFFG">      0.00100000</i>
   <i type="int" name="NFREE">     0</i>
   <i name="POTIM">      0.50000000</i>
   <i name="SMASS">     -3.00000000</i>
   <i name="SCALEE">      1.00000000</i>
  </separator>
  <separator name="ionic md" >
   <i name="TEBEG">      0.00010000</i>
   <i name="TEEND">      0.00010000</i>
   <i type="int" name="NBLOCK">     1</i>
   <i type="int" name="KBLOCK">     1</i>
   <i type="int" name="NPACO">   256</i>
   <i name="APACO">     10.00000000</i>
  </separator>
  <separator name="symmetry" >
   <i type="int" name="ISYM">     2</i>
   <i name="SYMPREC">      0.00001000</i>
  </separator>
  <separator name="dos" >
   <i type="int" name="LORBIT">     0</i>
   <v name="RWIGS">     -1.00000000</v>
   <i type="int" name="NEDOS">   301</i>
   <i name="EMIN">     10.00000000</i>
   <i name="EMAX">    -10.00000000</i>
   <i name="EFERMI">      0.00000000</i>
  </separator>
  <separator name="writing" >
   <i type="int" name="NWRITE">     2</i>
   <i type="logical" name="LWAVE"> T  </i>
   <i type="logical" name="LDOWNSAMPLE"> F  </i>
   <i type="logical" name="LCHARG"> T  </i>
   <i type="logical" name="LPARD"> F  </i>
   <i type="logical" name="LVTOT"> F  </i>
   <i type="logical" name="LVHAR"> F  </i>
   <i type="logical" name="LELF"> F  </i>
   <i type="logical" name="LOPTICS"> F  </i>
   <v name="STM">      0.00000000      0.00000000      0.00000000      0.00000000      0.00000000      0.00000000      0.00000000</v>
  </separator>
  <separator name="performance" >
   <i type="int" name="NPAR">    48</i>
   <i type="int" name="NSIM">     4</i>
   <i type="int" name="NBLK">    -1</i>
   <i type="logical" name="LPLANE"> T  </i>
   <i type="logical" name="LSCALAPACK"> T  </i>
   <i type="logical" name="LSCAAWARE"> T  </i>
   <i type="logical" name="LSCALU"> F  </i>
   <i type="logical" name="LASYNC"> F  </i>
   <i type="logical" name="LORBITALREAL"> F  </i>
  </separator>
  <separator name="miscellaneous" >
   <i type="int" name="IDIOT">     3</i>
   <i type="int" name="PHON_NSTRUCT">    -1</i>
   <i type="logical" name="LMUSIC"> F  </i>
   <v name="POMASS">     44.95600000</v>
   <v name="DARWINR">      0.00000000</v>
   <v name="DARWINV">      1.00000000</v>
   <i type="logical" name="LCORR"> T  </i>
  </separator>
  <i type="logical" name="GGA_COMPAT"> T  </i>
  <i type="logical" name="LBERRY"> F  </i>
  <i type="int" name="ICORELEVEL">     0</i>
  <i type="logical" name="LDAU"> F  </i>
  <i type="int" name="I_CONSTRAINED_M">     0</i>
  <separator name="electronic exchange-correlation" >
   <i type="string" name="GGA    ">PE</i>
   <i type="string" name="XC_C">1</i>
   <i type="int" name="VOSKOWN">     0</i>
   <i type="logical" name="LHFCALC"> F  </i>
   <i type="string" name="PRECFOCK"></i>
   <i type="logical" name="LSYMGRAD"> F  </i>
   <i type="logical" name="LHFONE"> F  </i>
   <i type="logical" name="LRHFCALC"> F  </i>
   <i type="logical" name="LTHOMAS"> F  </i>
   <i type="logical" name="LMODELHF"> F  </i>
   <i type="logical" name="LFOCKACE"> F  </i>
   <i name="ENCUT4O">     -1.00000000</i>
   <i type="int" name="EXXOEP">     0</i>
   <i type="int" name="FOURORBIT">     0</i>
   <i name="AEXX">      0.00000000</i>
   <i name="HFALPHA">      0.00000000</i>
   <i name="MCALPHA">      0.00000000</i>
   <i name="ALDAX">      1.00000000</i>
   <i name="AGGAX">      1.00000000</i>
   <i name="AMGGAX">      1.00000000</i>
   <i name="ALDAC">      1.00000000</i>
   <i name="AGGAC">      1.00000000</i>
   <i name="AMGGAC">      1.00000000</i>
   <i type="int" name="NKREDX">     1</i>
   <i type="int" name="NKREDY">     1</i>
   <i type="int" name="NKREDZ">     1</i>
   <i type="logical" name="SHIFTRED"> F  </i>
   <i type="logical" name="ODDONLY"> F  </i>
   <i type="logical" name="EVENONLY"> F  </i>
   <i type="int" name="LMAXFOCK">     0</i>
   <i type="int" name="NMAXFOCKAE">     0</i>
   <i type="logical" name="LFOCKAEDFT"> F  </i>
   <i name="HFSCREEN">      0.00000000</i>
   <i name="HFSCREENC">      0.00000000</i>
   <i type="int" name="NBANDSGWLOW">     0</i>
  </separator>
  <separator name="vdW DFT" >
   <i type="logical" name="LUSE_VDW"> F  </i>
   <i type="int" name="IVDW_NL">    -1</i>
   <i type="logical" name="LSPIN_VDW"> F  </i>
   <i name="ZAB_VDW">     -0.84910000</i>
   <i name="GAMMA_VDW">      1.39626340</i>
   <i name="ALPHA_VDW">      0.00000000</i>
   <i name="PARAM1">      0.12340000</i>
   <i name="PARAM2">      1.00000000</i>
   <i name="BPARAM">      6.30000000</i>
   <i name="CPARAM">      0.00930000</i>
  </separator>
  <separator name="model GW" >
   <i type="int" name="MODEL_GW">     0</i>
   <i name="MODEL_EPS0">     14.79512348</i>
   <i name="MODEL_ALPHA">      1.00000000</i>
  </separator>
  <separator name="linear response parameters" >
   <i type="logical" name="LEPSILON"> F  </i>
   <i type="logical" name="LRPA"> F  </i>
   <i type="logical" name="LNABLA"> F  </i>
   <i type="logical" name="LVEL"> F  </i>
   <i name="CSHIFT">      0.10000000</i>
   <i name="OMEGAMAX">     -1.00000000</i>
   <i name="DEG_THRESHOLD">      0.00200000</i>
   <i name="RTIME">     -0.10000000</i>
   <i name="WPLASMAI">      0.00000000</i>
   <v name="DFIELD">      0.00000000      0.00000000      0.00000000</v>
   <v name="WPLASMA">      0.00000000      0.00000000      0.00000000      0.00000000      0.00000000      0.00000000      0.00000000      0.00000000      0.00000000</v>
  </separator>
  <separator name="orbital magnetization" >
   <i type="logical" name="NUCIND"> F  </i>
   <v name="MAGPOS">      0.00000000      0.00000000      0.00000000</v>
   <i type="logical" name="LNICSALL"> T  </i>
   <i type="logical" name="ORBITALMAG"> F  </i>
   <i type="logical" name="LMAGBLOCH"> F  </i>
   <i type="logical" name="LCHIMAG"> F  </i>
   <i type="logical" name="LGAUGE"> T  </i>
   <i type="int" name="MAGATOM">     0</i>
   <v name="MAGDIPOL">      0.00000000      0.00000000      0.00000000</v>
   <v name="AVECCONST">      0.00000000      0.00000000      0.00000000</v>
  </separator>
  <separator name="response functions" >
   <i type="logical" name="LALL_IN_ONE"> F  </i>
   <i type="int" name="IALL_IN_ONE">    -1</i>
   <i type="int" name="NBANDS_WAVE">    -1</i>
   <i type="logical" name="LFINITE_TEMPERATURE"> F  </i>
   <i type="logical" name="LADDER"> F  </i>
   <i type="logical" name="LRPAFORCE"> F  </i>
   <i type="logical" name="LFXC"> F  </i>
   <i type="logical" name="LHARTREE"> T  </i>
   <i type="int" name="IBSE">     0</i>
   <v type="int" name="KPOINT">    -1     0     0     0</v>
   <i type="logical" name="LTCTC"> F  </i>
   <i type="logical" name="LTCTE"> F  </i>
   <i type="logical" name="LTETE"> F  </i>
   <i type="logical" name="LTRIPLET"> F  </i>
   <i type="logical" name="LFXCEPS"> F  </i>
   <i type="logical" name="LFXHEG"> F  </i>
   <i type="int" name="NATURALO">     2</i>
   <i type="logical" name="LHOLEGF"> F  </i>
   <i type="logical" name="L2ORDER"> F  </i>
   <i type="logical" name="LDMP1"> F  </i>
   <i type="logical" name="LMP2LT"> F  </i>
   <i type="logical" name="LSMP2LT"> F  </i>
   <i type="logical" name="LGWLF"> F  </i>
   <i name="ENCUTGW">     -1.60000002</i>
   <i name="ENCUTGWSOFT">     -1.60000002</i>
   <i name="ENCUTLF">     -1.00000000</i>
   <i type="logical" name="ESF_SPLINES"> F  </i>
   <i name="ESF_CONV">      0.01000000</i>
   <i type="int" name="ESF_NINTER">    15</i>
   <i type="int" name="LMAXMP2">    -1</i>
   <i name="SCISSOR">      0.00000000</i>
   <i type="int" name="NOMEGA">     0</i>
   <i type="int" name="NOMEGAR">     0</i>
   <i type="int" name="NBANDSGW">    -1</i>
   <i type="int" name="NBANDSO">    -1</i>
   <i type="int" name="NBANDSV">    -1</i>
   <i type="int" name="NELMGW">     1</i>
   <i type="int" name="NELMHF">     1</i>
   <i type="int" name="DIM">     3</i>
   <i type="int" name="IESPILON">     4</i>
   <i type="int" name="ANTIRES">     0</i>
   <i name="OMEGAMAX">    -30.00000000</i>
   <i name="OMEGAMIN">    -30.00000000</i>
   <i name="OMEGATL">   -200.00000000</i>
   <i type="int" name="OMEGAGRID">     0</i>
   <i name="CSHIFT">     -0.10000000</i>
   <i type="logical" name="LSELFENERGY"> F  </i>
   <i type="logical" name="LSPECTRAL"> F  </i>
   <i type="logical" name="LSPECTRALGW"> F  </i>
   <i type="logical" name="LSINGLES"> F  </i>
   <i type="logical" name="LFERMIGW"> F  </i>
   <i type="logical" name="ODDONLYGW"> F  </i>
   <i type="logical" name="EVENONLYGW"> F  </i>
   <i type="int" name="NKREDLFX">     1</i>
   <i type="int" name="NKREDLFY">     1</i>
   <i type="int" name="NKREDLFZ">     1</i>
   <i type="int" name="MAXMEM">  2800</i>
   <i type="int" name="TELESCOPE">     0</i>
   <i type="int" name="NTAUPAR">    -1</i>
   <i type="int" name="NOMEGAPAR">    -1</i>
   <i name="DAMP_NEWTON">      0.80000001</i>
   <i name="LAMBDA">      1.00000000</i>
  </separator>
  <separator name="External order field" >
   <i name="OFIELD_KAPPA">      0.00000000</i>
   <v name="OFIELD_K">      0.00000000      0.00000000      0.00000000</v>
   <i name="OFIELD_Q6_NEAR">      0.00000000</i>
   <i name="OFIELD_Q6_FAR">      0.00000000</i>
   <i name="OFIELD_A">      0.00000000</i>
  </separator>
  <separator name="optional k-points parameters" >
   <i type="int" name="KPOINTS_OPT_MODE">     1</i>
   <i type="logical" name="LKPOINTS_OPT"> T  </i>
  </separator>
 </parameters>
 <atominfo>
  <atoms>       2 </atoms>
  <types>       1 </types>
  <array name="atoms" >
   <dimension dim="1">ion</dimension>
   <field type="string">element</field>
   <field type="int">atomtype</field>
   <set>
    <rc><c>Sc</c><c>   1</c></rc>
    <rc><c>Sc</c><c>   1</c></rc>
   </set>
  </array>
  <array name="atomtypes" >
   <dimension dim="1">type</dimension>
   <field type="int">atomspertype</field>
   <field type="string">element</field>
   <field>mass</field>
   <field>valence</field>
   <field type="string">pseudopotential</field>
   <set>
    <rc><c>   2</c><c>Sc</c><c>     44.95600000</c><c>     11.00000000</c><c>PAW_PBE Sc_sv 07Sep2000                 </c></rc>
   </set>
  </array>
 </atominfo>
 <structure name="initialpos" >
  <crystal>
   <varray name="basis" >
    <v>       3.32145000       0.00000000       0.00000000 </v>
    <v>       1.66072500       2.87646008       0.00000000 </v>
    <v>       0.00000000       0.00000000       5.16192000 </v>
   </varray>
   <i name="volume">     49.31707827 </i>
   <varray name="rec_basis" >
    <v>       0.30107333      -0.17382477       0.00000000 </v>
    <v>       0.00000000       0.34764953       0.00000000 </v>
    <v>      -0.00000000      -0.00000000       0.19372637 </v>
   </varray>
  </crystal>
  <varray name="positions" >
   <v>       0.00000000       0.00000000       0.00000000 </v>
   <v>       0.33333333       0.33333333       0.50000000 </v>
  </varray>
 </structure>
 <calculation>
  <scstep>
   <time name="dav">    0.81    0.81</time>
   <time name="total">    0.83    0.83</time>
   <energy>
    <i name="alphaZ">    120.55047640 </i>
    <i name="ewald">  -1728.32058351 </i>
    <i name="hartreedc">   -602.69516958 </i>
    <i name="XCdc">    100.14323423 </i>
    <i name="pawpsdc">   2144.86116515 </i>
    <i name="pawaedc">  -2133.28981418 </i>
    <i name="eentropy">     -0.00507670 </i>
    <i name="bandstr">   -460.24497379 </i>
    <i name="atom">   2546.50203649 </i>
    <i name="e_fr_energy">    -12.49870549 </i>
    <i name="e_wo_entrp">    -12.49362879 </i>
    <i name="e_0_energy">    -12.49616714 </i>
   </energy>
  </scstep>
  <scstep>
   <time name="dav">    0.80    0.80</time>
   <time name="total">    0.81    0.81</time>
   <energy>
    <i name="alphaZ">    120.55047640 </i>
    <i name="ewald">  -1728.32058351 </i>
    <i name="hartreedc">   -602.71513728 </i>
    <i name="XCdc">    100.14429010 </i>
    <i name="pawpsdc">   2144.82419493 </i>
    <i name="pawaedc">  -2133.25217771 </i>
    <i name="eentropy">     -0.00507533 </i>
    <i name="bandstr">   -460.22672926 </i>
    <i name="atom">   2546.50203649 </i>
    <i name="e_fr_energy">    -12.49870517 </i>
    <i name="e_wo_entrp">    -12.49362983 </i>
    <i name="e_0_energy">    -12.49616750 </i>
   </energy>
  </scstep>
  <structure>
   <crystal>
    <varray name="basis" >
     <v>       3.32145000       0.00000000       0.00000000 </v>
     <v>       1.66072500       2.87646008       0.00000000 </v>
     <v>       0.00000000       0.00000000       5.16192000 </v>
    </varray>
    <i name="volume">     49.31707827 </i>
    <varray name="rec_basis" >
     <v>       0.30107333      -0.17382477       0.00000000 </v>
     <v>       0.00000000       0.34764953       0.00000000 </v>
     <v>      -0.00000000      -0.00000000       0.19372637 </v>
    </varray>
   </crystal>
   <varray name="positions" >
    <v>       0.00000000       0.00000000       0.00000000 </v>
    <v>       0.33333333       0.33333333       0.50000000 </v>
   </varray>
  </structure>
  <varray name="forces" >
   <v>      -0.00000000      -0.00000000      -0.00000000 </v>
   <v>       0.00000000       0.00000000       0.00000000 </v>
  </varray>
  <varray name="stress" >
   <v>      -4.95345178      -0.00000000      -0.00000000 </v>
   <v>      -0.00000000      -4.95345178      -0.00000000 </v>
   <v>      -0.00000000      -0.00000000      -3.44099132 </v>
  </varray>
  <energy>
   <i name="e_fr_energy">    -12.49870517 </i>
   <i name="e_wo_entrp">    -12.49362983 </i>
   <i name="e_0_energy">    -12.49616750 </i>
  </energy>
  <dos comment="kpoints_opt">
   <i name="efermi">      3.67899779 </i>
   <total>
    <array>
     <dimension dim="1">gridpoints</dimension>
     <dimension dim="2">spin</dimension>
     <field>energy</field>
     <field>total</field>
     <field>integrated</field>
     <set>
      <set comment="spin 1">
       <r>   -50.1678     0.0000     0.0000 </r>
       <r>   -49.8420     0.0000     0.0000 </r>
       <r>   -49.5161     0.0000     0.0000 </r>
       <r>   -49.1903     0.0000     0.0000 </r>
       <r>   -48.8644     0.0000     0.0000 </r>
       <r>   -48.5386     0.0000     0.0000 </r>
       <r>   -48.2127     0.0000     0.0000 </r>
       <r>   -47.8869     0.0000     0.0000 </r>
       <r>   -47.5610     0.0000     0.0000 </r>
       <r>   -47.2352     0.0000     0.0000 </r>
       <r>   -46.9093     0.0000     0.0000 </r>
       <r>   -46.5835     0.0000     0.0000 </r>
       <r>   -46.2576     0.0000     0.0000 </r>
       <r>   -45.9318     0.0000     0.0000 </r>
       <r>   -45.6059    11.4333     3.7256 </r>
       <r>   -45.2801     0.8166     4.0000 </r>
       <r>   -44.9542     0.0000     4.0000 </r>
       <r>   -44.6283     0.0000     4.0000 </r>
       <r>   -44.3025     0.0000     4.0000 </r>
       <r>   -43.9766     0.0000     4.0000 </r>
       <r>   -43.6508     0.0000     4.0000 </r>
       <r>   -43.3249     0.0000     4.0000 </r>
       <r>   -42.9991     0.0000     4.0000 </r>
       <r>   -42.6732     0.0000     4.0000 </r>
       <r>   -42.3474     0.0000     4.0000 </r>
       <r>   -42.0215     0.0000     4.0000 </r>
       <r>   -41.6957     0.0000     4.0000 </r>
       <r>   -41.3698     0.0000     4.0000 </r>
       <r>   -41.0440     0.0000     4.0000 </r>
       <r>   -40.7181     0.0000     4.0000 </r>
       <r>   -40.3923     0.0000     4.0000 </r>
       <r>   -40.0664     0.0000     4.0000 </r>
       <r>   -39.7406     0.0000     4.0000 </r>
       <r>   -39.4147     0.0000     4.0000 </r>
       <r>   -39.0889     0.0000     4.0000 </r>
       <r>   -38.7630     0.0000     4.0000 </r>
       <r>   -38.4372     0.0000     4.0000 </r>
       <r>   -38.1113     0.0000     4.0000 </r>
       <r>   -37.7855     0.0000     4.0000 </r>
       <r>   -37.4596     0.0000     4.0000 </r>
       <r>   -37.1338     0.0000     4.0000 </r>
       <r>   -36.8079     0.0000     4.0000 </r>
       <r>   -36.4821     0.0000     4.0000 </r>
       <r>   -36.1562     0.0000     4.0000 </r>
       <r>   -35.8304     0.0000     4.0000 </r>
       <r>   -35.5045     0.0000     4.0000 </r>
       <r>   -35.1787     0.0000     4.0000 </r>
       <r>   -34.8528     0.0000     4.0000 </r>
       <r>   -34.5269     0.0000     4.0000 </r>
       <r>   -34.2011     0.0000     4.0000 </r>
       <r>   -33.8752     0.0000     4.0000 </r>
       <r>   -33.5494     0.0000     4.0000 </r>
       <r>   -33.2235     0.0000     4.0000 </r>
       <r>   -32.8977     0.0000     4.0000 </r>
       <r>   -32.5718     0.0000     4.0000 </r>
       <r>   -32.2460     0.0000     4.0000 </r>
       <r>   -31.9201     0.0000     4.0000 </r>
       <r>   -31.5943     0.0000     4.0000 </r>
       <r>   -31.2684     0.0000     4.0000 </r>
       <r>   -30.9426     0.0000     4.0000 </r>
       <r>   -30.6167     0.0000     4.0000 </r>
       <r>   -30.2909     0.0000     4.0000 </r>
       <r>   -29.9650     0.0000     4.0000 </r>
       <r>   -29.6392     0.0000     4.0000 </r>
       <r>   -29.3133     0.0000     4.0000 </r>
       <r>   -28.9875     0.0000     4.0000 </r>
       <r>   -28.6616     0.0000     4.0000 </r>
       <r>   -28.3358     0.0000     4.0000 </r>
       <r>   -28.0099     0.0000     4.0000 </r>
       <r>   -27.6841     0.0000     4.0000 </r>
       <r>   -27.3582     0.0000     4.0000 </r>
       <r>   -27.0324     0.0000     4.0000 </r>
       <r>   -26.7065     0.0000     4.0000 </r>
       <r>   -26.3807     0.0000     4.0000 </r>
       <r>   -26.0548     0.0000     4.0000 </r>
       <r>   -25.7290     0.0000     4.0000 </r>
       <r>   -25.4031     0.0000     4.0000 </r>
       <r>   -25.0772     0.0000     4.0000 </r>
       <r>   -24.7514     0.0000     4.0000 </r>
       <r>   -24.4255     6.7165     6.1886 </r>
       <r>   -24.0997    29.6564    15.8538 </r>
       <r>   -23.7738     0.4130    16.0000 </r>
       <r>   -23.4480     0.0000    16.0000 </r>
       <r>   -23.1221     0.0000    16.0000 </r>
       <r>   -22.7963     0.0000    16.0000 </r>
       <r>   -22.4704     0.0000    16.0000 </r>
       <r>   -22.1446     0.0000    16.0000 </r>
       <r>   -21.8187     0.0000    16.0000 </r>
       <r>   -21.4929     0.0000    16.0000 </r>
       <r>   -21.1670     0.0000    16.0000 </r>
       <r>   -20.8412     0.0000    16.0000 </r>
       <r>   -20.5153     0.0000    16.0000 </r>
       <r>   -20.1895     0.0000    16.0000 </r>
       <r>   -19.8636     0.0000    16.0000 </r>
       <r>   -19.5378     0.0000    16.0000 </r>
       <r>   -19.2119     0.0000    16.0000 </r>
       <r>   -18.8861     0.0000    16.0000 </r>
       <r>   -18.5602     0.0000    16.0000 </r>
       <r>   -18.2344     0.0000    16.0000 </r>
       <r>   -17.9085     0.0000    16.0000 </r>
       <r>   -17.5827     0.0000    16.0000 </r>
       <r>   -17.2568     0.0000    16.0000 </r>
       <r>   -16.9310     0.0000    16.0000 </r>
       <r>   -16.6051     0.0000    16.0000 </r>
       <r>   -16.2793     0.0000    16.0000 </r>
       <r>   -15.9534     0.0000    16.0000 </r>
       <r>   -15.6276     0.0000    16.0000 </r>
       <r>   -15.3017     0.0000    16.0000 </r>
       <r>   -14.9758     0.0000    16.0000 </r>
       <r>   -14.6500     0.0000    16.0000 </r>
       <r>   -14.3241     0.0000    16.0000 </r>
       <r>   -13.9983     0.0000    16.0000 </r>
       <r>   -13.6724     0.0000    16.0000 </r>
       <r>   -13.3466     0.0000    16.0000 </r>
       <r>   -13.0207     0.0000    16.0000 </r>
       <r>   -12.6949     0.0000    16.0000 </r>
       <r>   -12.3690     0.0000    16.0000 </r>
       <r>   -12.0432     0.0000    16.0000 </r>
       <r>   -11.7173     0.0000    16.0000 </r>
       <r>   -11.3915     0.0000    16.0000 </r>
       <r>   -11.0656     0.0000    16.0000 </r>
       <r>   -10.7398     0.0000    16.0000 </r>
       <r>   -10.4139     0.0000    16.0000 </r>
       <r>   -10.0881     0.0000    16.0000 </r>
       <r>    -9.7622     0.0000    16.0000 </r>
       <r>    -9.4364     0.0000    16.0000 </r>
       <r>    -9.1105     0.0000    16.0000 </r>
       <r>    -8.7847     0.0000    16.0000 </r>
       <r>    -8.4588     0.0000    16.0000 </r>
       <r>    -8.1330     0.0000    16.0000 </r>
       <r>    -7.8071     0.0000    16.0000 </r>
       <r>    -7.4813     0.0000    16.0000 </r>
       <r>    -7.1554     0.0000    16.0000 </r>
       <r>    -6.8296     0.0000    16.0000 </r>
       <r>    -6.5037     0.0000    16.0000 </r>
       <r>    -6.1779     0.0000    16.0000 </r>
       <r>    -5.8520     0.0000    16.0000 </r>
       <r>    -5.5261     0.0000    16.0000 </r>
       <r>    -5.2003     0.0000    16.0000 </r>
       <r>    -4.8744     0.0000    16.0000 </r>
       <r>    -4.5486     0.0000    16.0000 </r>
       <r>    -4.2227     0.0000    16.0000 </r>
       <r>    -3.8969     0.0000    16.0000 </r>
       <r>    -3.5710     0.0000    16.0000 </r>
       <r>    -3.2452     0.0000    16.0000 </r>
       <r>    -2.9193     0.0000    16.0000 </r>
       <r>    -2.5935     0.0000    16.0000 </r>
       <r>    -2.2676     0.0000    16.0000 </r>
       <r>    -1.9418     0.0000    16.0000 </r>
       <r>    -1.6159     0.0000    16.0000 </r>
       <r>    -1.2901     0.8952    16.2917 </r>
       <r>    -0.9642     0.6560    16.5061 </r>
       <r>    -0.6384     0.4619    16.6566 </r>
       <r>    -0.3125     0.3872    16.7828 </r>
       <r>     0.0133     0.3480    16.8962 </r>
       <r>     0.3392     0.3254    17.0023 </r>
       <r>     0.6650     0.8064    17.2651 </r>
       <r>     0.9909     0.6402    17.4738 </r>
       <r>     1.3167     0.4191    17.6105 </r>
       <r>     1.6426     0.3994    17.7406 </r>
       <r>     1.9684     0.4684    17.8934 </r>
       <r>     2.2943     1.5526    18.3994 </r>
       <r>     2.6201     0.8238    18.6682 </r>
       <r>     2.9460     1.6329    19.2004 </r>
       <r>     3.2718     4.4828    20.6614 </r>
       <r>     3.5977     3.5412    21.8160 </r>
       <r>     3.9235     2.2091    22.5364 </r>
       <r>     4.2494     1.6580    23.0770 </r>
       <r>     4.5753     1.1323    23.4465 </r>
       <r>     4.9011     1.2094    23.8407 </r>
       <r>     5.2270     6.6630    26.0119 </r>
       <r>     5.5528     8.3198    28.7237 </r>
       <r>     5.8787     6.6946    30.9063 </r>
       <r>     6.2045     3.9271    32.1874 </r>
       <r>     6.5304     2.0502    32.8560 </r>
       <r>     6.8562     3.1081    33.8692 </r>
       <r>     7.1821     2.3093    34.6226 </r>
       <r>     7.5079     5.0292    36.2617 </r>
       <r>     7.8338     5.9481    38.2010 </r>
       <r>     8.1596     0.9017    38.4950 </r>
       <r>     8.4855     0.3454    38.6077 </r>
       <r>     8.8113     0.6885    38.8322 </r>
       <r>     9.1372     0.5630    39.0157 </r>
       <r>     9.4630     0.5341    39.1897 </r>
       <r>     9.7889     0.5062    39.3548 </r>
       <r>    10.1147     0.5760    39.5427 </r>
       <r>    10.4406     1.3448    39.9810 </r>
       <r>    10.7664     4.4337    41.4261 </r>
       <r>    11.0923     1.8779    42.0390 </r>
       <r>    11.4181     1.8369    42.6384 </r>
       <r>    11.7440     1.1447    43.0118 </r>
       <r>    12.0698     0.7799    43.2660 </r>
       <r>    12.3957     0.8822    43.5534 </r>
       <r>    12.7215     0.6974    43.7808 </r>
       <r>    13.0474     0.4000    43.9112 </r>
       <r>    13.3732     0.3856    44.0370 </r>
       <r>    13.6991     0.8001    44.2978 </r>
       <r>    14.0249     1.2781    44.7143 </r>
       <r>    14.3508     1.0197    45.0474 </r>
       <r>    14.6767     0.8773    45.3334 </r>
       <r>    15.0025     0.8539    45.6117 </r>
       <r>    15.3284     1.1979    46.0022 </r>
       <r>    15.6542     2.3781    46.7773 </r>
       <r>    15.9801     0.9603    47.0904 </r>
       <r>    16.3059     0.9937    47.4145 </r>
       <r>    16.6318     2.5038    48.2307 </r>
       <r>    16.9576     3.0273    49.2173 </r>
       <r>    17.2835     1.5451    49.7220 </r>
       <r>    17.6093     1.3437    50.1605 </r>
       <r>    17.9352     1.5188    50.6558 </r>
       <r>    18.2610     3.1013    51.6671 </r>
       <r>    18.5869     3.8293    52.9154 </r>
       <r>    18.9127     2.1872    53.6289 </r>
       <r>    19.2386     1.4680    54.1074 </r>
       <r>    19.5644     0.5120    54.2751 </r>
       <r>    19.8903     0.6276    54.4797 </r>
       <r>    20.2161     1.2001    54.8707 </r>
       <r>    20.5420     0.9358    55.1762 </r>
       <r>    20.8678     1.5535    55.6826 </r>
       <r>    21.1937     2.2459    56.4148 </r>
       <r>    21.5195     3.1340    57.4365 </r>
       <r>    21.8454     4.0791    58.7662 </r>
       <r>    22.1712     1.4786    59.2486 </r>
       <r>    22.4971     2.0500    59.9170 </r>
       <r>    22.8229     1.6403    60.4520 </r>
       <r>    23.1488     1.5179    60.9470 </r>
       <r>    23.4746     1.4065    61.4058 </r>
       <r>    23.8005     1.5517    61.9119 </r>
       <r>    24.1264     1.5906    62.4307 </r>
       <r>    24.4522     3.0033    63.4099 </r>
       <r>    24.7781     3.6776    64.6089 </r>
       <r>    25.1039     3.7134    65.8199 </r>
       <r>    25.4298     1.4702    66.2991 </r>
       <r>    25.7556     2.1400    66.9972 </r>
       <r>    26.0815     2.1670    67.7036 </r>
       <r>    26.4073     1.6623    68.2456 </r>
       <r>    26.7332     1.1946    68.6351 </r>
       <r>    27.0590     1.4937    69.1224 </r>
       <r>    27.3849     1.6071    69.6463 </r>
       <r>    27.7107     2.0823    70.3250 </r>
       <r>    28.0366     1.6285    70.8566 </r>
       <r>    28.3624     1.7474    71.4263 </r>
       <r>    28.6883     2.2825    72.1705 </r>
       <r>    29.0141     1.8984    72.7892 </r>
       <r>    29.3400     1.7772    73.3690 </r>
       <r>    29.6658     1.5205    73.8651 </r>
       <r>    29.9917     1.6257    74.3950 </r>
       <r>    30.3175     1.4904    74.8808 </r>
       <r>    30.6434     1.6877    75.4310 </r>
       <r>    30.9692     3.0609    76.4291 </r>
       <r>    31.2951     1.6819    76.9775 </r>
       <r>    31.6209     2.5117    77.7960 </r>
       <r>    31.9468     2.2694    78.5358 </r>
       <r>    32.2726     1.5584    79.0442 </r>
       <r>    32.5985     2.4283    79.8359 </r>
       <r>    32.9243     0.9322    80.1405 </r>
       <r>    33.2502     0.8788    80.4271 </r>
       <r>    33.5760     1.9906    81.0759 </r>
       <r>    33.9019     1.9265    81.7041 </r>
       <r>    34.2278     1.7562    82.2769 </r>
       <r>    34.5536     3.2409    83.3331 </r>
       <r>    34.8795     2.0418    83.9995 </r>
       <r>    35.2053     1.5538    84.5060 </r>
       <r>    35.5312     2.2870    85.2518 </r>
       <r>    35.8570     2.2123    85.9730 </r>
       <r>    36.1829     2.5716    86.8117 </r>
       <r>    36.5087     1.6961    87.3650 </r>
       <r>    36.8346     2.3472    88.1301 </r>
       <r>    37.1604     2.4796    88.9384 </r>
       <r>    37.4863     4.4528    90.3897 </r>
       <r>    37.8121     3.5849    91.5585 </r>
       <r>    38.1380     2.2913    92.3055 </r>
       <r>    38.4638     2.0106    92.9611 </r>
       <r>    38.7897     1.9746    93.6051 </r>
       <r>    39.1155     1.3970    94.0612 </r>
       <r>    39.4414     1.5934    94.5808 </r>
       <r>    39.7672     1.7943    95.1660 </r>
       <r>    40.0931     0.5740    95.3532 </r>
       <r>    40.4189     0.6809    95.5751 </r>
       <r>    40.7448     0.6129    95.7751 </r>
       <r>    41.0706     0.6087    95.9736 </r>
       <r>    41.3965     0.0796    96.0000 </r>
       <r>    41.7223     0.0000    96.0000 </r>
       <r>    42.0482     0.0000    96.0000 </r>
       <r>    42.3740     0.0000    96.0000 </r>
       <r>    42.6999     0.0000    96.0000 </r>
       <r>    43.0257     0.0000    96.0000 </r>
       <r>    43.3516     0.0000    96.0000 </r>
       <r>    43.6775     0.0000    96.0000 </r>
       <r>    44.0033     0.0000    96.0000 </r>
       <r>    44.3292     0.0000    96.0000 </r>
       <r>    44.6550     0.0000    96.0000 </r>
       <r>    44.9809     0.0000    96.0000 </r>
       <r>    45.3067     0.0000    96.0000 </r>
       <r>    45.6326     0.0000    96.0000 </r>
       <r>    45.9584     0.0000    96.0000 </r>
       <r>    46.2843     0.0000    96.0000 </r>
       <r>    46.6101     0.0000    96.0000 </r>
       <r>    46.9360     0.0000    96.0000 </r>
       <r>    47.2618     0.0000    96.0000 </r>
       <r>    47.5877     0.0000    96.0000 </r>
      </set>
     </set>
    </array>
   </total>
  </dos>
  <eigenvalues_kpoints_opt comment="kpoints_opt">
   <kpoints>
    <varray name="kpointlist" >
     <v>       0.00000000       0.00000000       0.00000000 </v>
     <v>       0.01041667       0.00000000       0.00000000 </v>
     <v>       0.02083333       0.00000000       0.00000000 </v>
     <v>       0.03125000       0.00000000       0.00000000 </v>
     <v>       0.04166667       0.00000000       0.00000000 </v>
     <v>       0.05208333       0.00000000       0.00000000 </v>
     <v>       0.06250000       0.00000000       0.00000000 </v>
     <v>       0.07291667       0.00000000       0.00000000 </v>
     <v>       0.08333333       0.00000000       0.00000000 </v>
     <v>       0.09375000       0.00000000       0.00000000 </v>
     <v>       0.10416667       0.00000000       0.00000000 </v>
     <v>       0.11458333       0.00000000       0.00000000 </v>
     <v>       0.12500000       0.00000000       0.00000000 </v>
     <v>       0.13541667       0.00000000       0.00000000 </v>
     <v>       0.14583333       0.00000000       0.00000000 </v>
     <v>       0.15625000       0.00000000       0.00000000 </v>
     <v>       0.16666667       0.00000000       0.00000000 </v>
     <v>       0.17708333       0.00000000       0.00000000 </v>
     <v>       0.18750000       0.00000000       0.00000000 </v>
     <v>       0.19791667       0.00000000       0.00000000 </v>
     <v>       0.20833333       0.00000000       0.00000000 </v>
     <v>       0.21875000       0.00000000       0.00000000 </v>
     <v>       0.22916667       0.00000000       0.00000000 </v>
     <v>       0.23958333       0.00000000       0.00000000 </v>
     <v>       0.25000000       0.00000000       0.00000000 </v>
     <v>       0.26041667       0.00000000       0.00000000 </v>
     <v>       0.27083333       0.00000000       0.00000000 </v>
     <v>       0.28125000       0.00000000       0.00000000 </v>
     <v>       0.29166667       0.00000000       0.00000000 </v>
     <v>       0.30208333       0.00000000       0.00000000 </v>
     <v>       0.31250000       0.00000000       0.00000000 </v>
     <v>       0.32291667       0.00000000       0.00000000 </v>
     <v>       0.33333333       0.00000000       0.00000000 </v>
     <v>       0.34375000       0.00000000       0.00000000 </v>
     <v>       0.35416667       0.00000000       0.00000000 </v>
     <v>       0.36458333       0.00000000       0.00000000 </v>
     <v>       0.37500000       0.00000000       0.00000000 </v>
     <v>       0.38541667       0.00000000       0.00000000 </v>
     <v>       0.39583333       0.00000000       0.00000000 </v>
     <v>       0.40625000       0.00000000       0.00000000 </v>
     <v>       0.41666667       0.00000000       0.00000000 </v>
     <v>       0.42708333       0.00000000       0.00000000 </v>
     <v>       0.43750000       0.00000000       0.00000000 </v>
     <v>       0.44791667       0.00000000       0.00000000 </v>
     <v>       0.45833333       0.00000000       0.00000000 </v>
     <v>       0.46875000       0.00000000       0.00000000 </v>
     <v>       0.47916667       0.00000000       0.00000000 </v>
     <v>       0.48958333       0.00000000       0.00000000 </v>
     <v>       0.50000000       0.00000000       0.00000000 </v>
     <v>       0.50000000       0.00000000       0.00000000 </v>
     <v>       0.49652778       0.00694444       0.00000000 </v>
     <v>       0.49305556       0.01388889       0.00000000 </v>
     <v>       0.48958333       0.02083333       0.00000000 </v>
     <v>       0.48611111       0.02777778       0.00000000 </v>
     <v>       0.48263889       0.03472222       0.00000000 </v>
     <v>       0.47916667       0.04166667       0.00000000 </v>
     <v>       0.47569444       0.04861111       0.00000000 </v>
     <v>       0.47222222       0.05555556       0.00000000 </v>
     <v>       0.46875000       0.06250000       0.00000000 </v>
     <v>       0.46527778       0.06944444       0.00000000 </v>
     <v>       0.46180556       0.07638889       0.00000000 </v>
     <v>       0.45833333       0.08333333       0.00000000 </v>
     <v>       0.45486111       0.09027778       0.00000000 </v>
     <v>       0.45138889       0.09722222       0.00000000 </v>
     <v>       0.44791667       0.10416667       0.00000000 </v>
     <v>       0.44444444       0.11111111       0.00000000 </v>
     <v>       0.44097222       0.11805556       0.00000000 </v>
     <v>       0.43750000       0.12500000       0.00000000 </v>
     <v>       0.43402778       0.13194444       0.00000000 </v>
     <v>       0.43055556       0.13888889       0.00000000 </v>
     <v>       0.42708333       0.14583333       0.00000000 </v>
     <v>       0.42361111       0.15277778       0.00000000 </v>
     <v>       0.42013889       0.15972222       0.00000000 </v>
     <v>       0.41666667       0.16666667       0.00000000 </v>
     <v>       0.41319444       0.17361111       0.00000000 </v>
     <v>       0.40972222       0.18055556       0.00000000 </v>
     <v>       0.40625000       0.18750000       0.00000000 </v>
     <v>       0.40277778       0.19444444       0.00000000 </v>
     <v>       0.39930556       0.20138889       0.00000000 </v>
     <v>       0.39583333       0.20833333       0.00000000 </v>
     <v>       0.39236111       0.21527778       0.00000000 </v>
     <v>       0.38888889       0.22222222       0.00000000 </v>
     <v>       0.38541667       0.22916667       0.00000000 </v>
     <v>       0.38194444       0.23611111       0.00000000 </v>
     <v>       0.37847222       0.24305556       0.00000000 </v>
     <v>       0.37500000       0.25000000       0.00000000 </v>
     <v>       0.37152778       0.25694444       0.00000000 </v>
     <v>       0.36805556       0.26388889       0.00000000 </v>
     <v>       0.36458333       0.27083333       0.00000000 </v>
     <v>       0.36111111       0.27777778       0.00000000 </v>
     <v>       0.35763889       0.28472222       0.00000000 </v>
     <v>       0.35416667       0.29166667       0.00000000 </v>
     <v>       0.35069444       0.29861111       0.00000000 </v>
     <v>       0.34722222       0.30555556       0.00000000 </v>
     <v>       0.34375000       0.31250000       0.00000000 </v>
     <v>       0.34027778       0.31944444       0.00000000 </v>
     <v>       0.33680556       0.32638889       0.00000000 </v>
     <v>       0.33333333       0.33333333       0.00000000 </v>
     <v>       0.33333333       0.33333333       0.00000000 </v>
     <v>       0.32638889       0.32638889       0.00000000 </v>
     <v>       0.31944444       0.31944444       0.00000000 </v>
     <v>       0.31250000       0.31250000       0.00000000 </v>
     <v>       0.30555556       0.30555556       0.00000000 </v>
     <v>       0.29861111       0.29861111       0.00000000 </v>
     <v>       0.29166667       0.29166667       0.00000000 </v>
     <v>       0.28472222       0.28472222       0.00000000 </v>
     <v>       0.27777778       0.27777778       0.00000000 </v>
     <v>       0.27083333       0.27083333       0.00000000 </v>
     <v>       0.26388889       0.26388889       0.00000000 </v>
     <v>       0.25694444       0.25694444       0.00000000 </v>
     <v>       0.25000000       0.25000000       0.00000000 </v>
     <v>       0.24305556       0.24305556       0.00000000 </v>
     <v>       0.23611111       0.23611111       0.00000000 </v>
     <v>       0.22916667       0.22916667       0.00000000 </v>
     <v>       0.22222222       0.22222222       0.00000000 </v>
     <v>       0.21527778       0.21527778       0.00000000 </v>
     <v>       0.20833333       0.20833333       0.00000000 </v>
     <v>       0.20138889       0.20138889       0.00000000 </v>
     <v>       0.19444444       0.19444444       0.00000000 </v>
     <v>       0.18750000       0.18750000       0.00000000 </v>
     <v>       0.18055556       0.18055556       0.00000000 </v>
     <v>       0.17361111       0.17361111       0.00000000 </v>
     <v>       0.16666667       0.16666667       0.00000000 </v>
     <v>       0.15972222       0.15972222       0.00000000 </v>
     <v>       0.15277778       0.15277778       0.00000000 </v>
     <v>       0.14583333       0.14583333       0.00000000 </v>
     <v>       0.13888889       0.13888889       0.00000000 </v>
     <v>       0.13194444       0.13194444       0.00000000 </v>
     <v>       0.12500000       0.12500000       0.00000000 </v>
     <v>       0.11805556       0.11805556       0.00000000 </v>
     <v>       0.11111111       0.11111111       0.00000000 </v>
     <v>       0.10416667       0.10416667       0.00000000 </v>
     <v>       0.09722222       0.09722222       0.00000000 </v>
     <v>       0.09027778       0.09027778       0.00000000 </v>
     <v>       0.08333333       0.08333333       0.00000000 </v>
     <v>       0.07638889       0.07638889       0.00000000 </v>
     <v>       0.06944444       0.06944444       0.00000000 </v>
     <v>       0.06250000       0.06250000       0.00000000 </v>
     <v>       0.05555556       0.05555556       0.00000000 </v>
     <v>       0.04861111       0.04861111       0.00000000 </v>
     <v>       0.04166667       0.04166667       0.00000000 </v>
     <v>       0.03472222       0.03472222       0.00000000 </v>
     <v>       0.02777778       0.02777778       0.00000000 </v>
     <v>       0.02083333       0.02083333       0.00000000 </v>
     <v>       0.01388889       0.01388889       0.00000000 </v>
     <v>       0.00694444       0.00694444       0.00000000 </v>
     <v>       0.00000000       0.00000000       0.00000000 </v>
    </varray>
    <varray name="weights" >
     <v>       0.00680272 </v>
     <v>       0.00680272 </v>
     <v>       0.00680272 </v>
     <v>       0.00680272 </v>
     <v>       0.00680272 </v>
     <v>       0.00680272 </v>
     <v>       0.00680272 </v>
     <v>       0.00680272 </v>
     <v>       0.00680272 </v>
     <v>       0.00680272 </v>
     <v>       0.00680272 </v>
     <v>       0.00680272 </v>
     <v>       0.00680272 </v>
     <v>       0.00680272 </v>
     <v>       0.00680272 </v>
     <v>       0.00680272 </v>
     <v>       0.00680272 </v>
     <v>       0.00680272 </v>
     <v>       0.00680272 </v>
     <v>       0.00680272 </v>
     <v>       0.00680272 </v>
     <v>       0.00680272 </v>
     <v>       0.00680272 </v>
     <v>       0.00680272 </v>
     <v>       0.00680272 </v>
     <v>       0.00680272 </v>
     <v>       0.00680272 </v>
     <v>       0.00680272 </v>
     <v>       0.00680272 </v>
     <v>       0.00680272 </v>
     <v>       0.00680272 </v>
     <v>       0.00680272 </v>
     <v>       0.00680272 </v>
     <v>       0.00680272 </v>
     <v>       0.00680272 </v>
     <v>       0.00680272 </v>
     <v>       0.00680272 </v>
     <v>       0.00680272 </v>
     <v>       0.00680272 </v>
     <v>       0.00680272 </v>
     <v>       0.00680272 </v>
     <v>       0.00680272 </v>
     <v>       0.00680272 </v>
     <v>       0.00680272 </v>
     <v>       0.00680272 </v>
     <v>       0.00680272 </v>
     <v>       0.00680272 </v>
     <v>       0.00680272 </v>
     <v>       0.00680272 </v>
     <v>       0.00680272 </v>
     <v>       0.00680272 </v>
     <v>       0.00680272 </v>
     <v>       0.00680272 </v>
     <v>       0.00680272 </v>
     <v>       0.00680272 </v>
     <v>       0.00680272 </v>
     <v>       0.00680272 </v>
     <v>       0.00680272 </v>
     <v>       0.00680272 </v>
     <v>       0.00680272 </v>
     <v>       0.00680272 </v>
     <v>       0.00680272 </v>
     <v>       0.00680272 </v>
     <v>       0.00680272 </v>
     <v>       0.00680272 </v>
     <v>       0.00680272 </v>
     <v>       0.00680272 </v>
     <v>       0.00680272 </v>
     <v>       0.00680272 </v>
     <v>       0.00680272 </v>
     <v>       0.00680272 </v>
     <v>       0.00680272 </v>
     <v>       0.00680272 </v>
     <v>       0.00680272 </v>
     <v>       0.00680272 </v>
     <v>       0.00680272 </v>
     <v>       0.00680272 </v>
     <v>       0.00680272 </v>
     <v>       0.00680272 </v>
     <v>       0.00680272 </v>
     <v>       0.00680272 </v>
     <v>       0.00680272 </v>
     <v>       0.00680272 </v>
     <v>       0.00680272 </v>
     <v>       0.00680272 </v>
     <v>       0.00680272 </v>
     <v>       0.00680272 </v>
     <v>       0.00680272 </v>
     <v>       0.00680272 </v>
     <v>       0.00680272 </v>
     <v>       0.00680272 </v>
     <v>       0.00680272 </v>
     <v>       0.00680272 </v>
     <v>       0.00680272 </v>
     <v>       0.00680272 </v>
     <v>       0.00680272 </v>
     <v>       0.00680272 </v>
     <v>       0.00680272 </v>
     <v>       0.00680272 </v>
     <v>       0.00680272 </v>
     <v>       0.00680272 </v>
     <v>       0.00680272 </v>
     <v>       0.00680272 </v>
     <v>       0.00680272 </v>
     <v>       0.00680272 </v>
     <v>       0.00680272 </v>
     <v>       0.00680272 </v>
     <v>       0.00680272 </v>
     <v>       0.00680272 </v>
     <v>       0.00680272 </v>
     <v>       0.00680272 </v>
     <v>       0.00680272 </v>
     <v>       0.00680272 </v>
     <v>       0.00680272 </v>
     <v>       0.00680272 </v>
     <v>       0.00680272 </v>
     <v>       0.00680272 </v>
     <v>       0.00680272 </v>
     <v>       0.00680272 </v>
     <v>       0.00680272 </v>
     <v>       0.00680272 </v>
     <v>       0.00680272 </v>
     <v>       0.00680272 </v>
     <v>       0.00680272 </v>
     <v>       0.00680272 </v>
     <v>       0.00680272 </v>
     <v>       0.00680272 </v>
     <v>       0.00680272 </v>
     <v>       0.00680272 </v>
     <v>       0.00680272 </v>
     <v>       0.00680272 </v>
     <v>       0.00680272 </v>
     <v>       0.00680272 </v>
     <v>       0.00680272 </v>
     <v>       0.00680272 </v>
     <v>       0.00680272 </v>
     <v>       0.00680272 </v>
     <v>       0.00680272 </v>
     <v>       0.00680272 </v>
     <v>       0.00680272 </v>
     <v>       0.00680272 </v>
     <v>       0.00680272 </v>
     <v>       0.00680272 </v>
     <v>       0.00680272 </v>
     <v>       0.00680272 </v>
     <v>       0.00680272 </v>
     <v>       0.00680272 </v>
    </varray>
   </kpoints>
   <eigenvalues>
    <array>
     <dimension dim="1">band</dimension>
     <dimension dim="2">kpoint</dimension>
     <dimension dim="3">spin</dimension>
     <field>eigene</field>
     <set>
      <set comment="spin 1">
       <set comment="kpoint 1">
        <r>  -45.7241 </r>
        <r>  -45.6525 </r>
        <r>  -24.5651 </r>
        <r>  -24.2293 </r>
        <r>  -24.2293 </r>
        <r>  -24.1624 </r>
        <r>  -24.1624 </r>
        <r>  -24.1294 </r>
        <r>   -1.4494 </r>
        <r>    2.0500 </r>
        <r>    4.3081 </r>
        <r>    5.2668 </r>
        <r>    5.2668 </r>
        <r>    5.5431 </r>
        <r>    5.7187 </r>
        <r>    5.7187 </r>
        <r>    5.9808 </r>
        <r>    5.9808 </r>
        <r>    7.3234 </r>
        <r>    7.3234 </r>
        <r>   10.7541 </r>
        <r>   15.6277 </r>
        <r>   17.8591 </r>
        <r>   18.2601 </r>
        <r>   18.6786 </r>
        <r>   18.6786 </r>
        <r>   20.0091 </r>
        <r>   20.0091 </r>
        <r>   21.1223 </r>
        <r>   21.1224 </r>
        <r>   21.6057 </r>
        <r>   24.3337 </r>
        <r>   24.3337 </r>
        <r>   24.3383 </r>
        <r>   25.7053 </r>
        <r>   26.1683 </r>
        <r>   26.1683 </r>
        <r>   26.8883 </r>
        <r>   26.8884 </r>
        <r>   28.3632 </r>
        <r>   33.2756 </r>
        <r>   37.3502 </r>
        <r>   37.3502 </r>
        <r>   37.4422 </r>
        <r>   37.4423 </r>
        <r>   37.4785 </r>
        <r>   37.4785 </r>
        <r>   40.7734 </r>
       </set>
       <set comment="kpoint 2">
        <r>  -45.7240 </r>
        <r>  -45.6525 </r>
        <r>  -24.5649 </r>
        <r>  -24.2296 </r>
        <r>  -24.2294 </r>
        <r>  -24.1628 </r>
        <r>  -24.1625 </r>
        <r>  -24.1294 </r>
        <r>   -1.4470 </r>
        <r>    2.0520 </r>
        <r>    4.3059 </r>
        <r>    5.2604 </r>
        <r>    5.2685 </r>
        <r>    5.5482 </r>
        <r>    5.7172 </r>
        <r>    5.7203 </r>
        <r>    5.9787 </r>
        <r>    5.9793 </r>
        <r>    7.3243 </r>
        <r>    7.3287 </r>
        <r>   10.7538 </r>
        <r>   15.6284 </r>
        <r>   17.8481 </r>
        <r>   18.2616 </r>
        <r>   18.6492 </r>
        <r>   18.6597 </r>
        <r>   20.0396 </r>
        <r>   20.0435 </r>
        <r>   21.0128 </r>
        <r>   21.1233 </r>
        <r>   21.7181 </r>
        <r>   24.3013 </r>
        <r>   24.3323 </r>
        <r>   24.3370 </r>
        <r>   25.7443 </r>
        <r>   26.0973 </r>
        <r>   26.1041 </r>
        <r>   26.9497 </r>
        <r>   26.9519 </r>
        <r>   28.3797 </r>
        <r>   33.2821 </r>
        <r>   37.1836 </r>
        <r>   37.1884 </r>
        <r>   37.4577 </r>
        <r>   37.4787 </r>
        <r>   37.6024 </r>
        <r>   37.6065 </r>
        <r>   40.7952 </r>
       </set>
       <set comment="kpoint 3">
        <r>  -45.7239 </r>
        <r>  -45.6525 </r>
        <r>  -24.5645 </r>
        <r>  -24.2304 </r>
        <r>  -24.2298 </r>
        <r>  -24.1633 </r>
        <r>  -24.1626 </r>
        <r>  -24.1296 </r>
        <r>   -1.4399 </r>
        <r>    2.0580 </r>
        <r>    4.2991 </r>
        <r>    5.2425 </r>
        <r>    5.2736 </r>
        <r>    5.5622 </r>
        <r>    5.7127 </r>
        <r>    5.7249 </r>
        <r>    5.9724 </r>
        <r>    5.9747 </r>
        <r>    7.3270 </r>
        <r>    7.3443 </r>
        <r>   10.7530 </r>
        <r>   15.6303 </r>
        <r>   17.8132 </r>
        <r>   18.2661 </r>
        <r>   18.5679 </r>
        <r>   18.6131 </r>
        <r>   20.1242 </r>
        <r>   20.1389 </r>
        <r>   20.8024 </r>
        <r>   21.1260 </r>
        <r>   21.9365 </r>
        <r>   24.2142 </r>
        <r>   24.3137 </r>
        <r>   24.3468 </r>
        <r>   25.8518 </r>
        <r>   25.9334 </r>
        <r>   25.9530 </r>
        <r>   27.0855 </r>
        <r>   27.1013 </r>
        <r>   28.4298 </r>
        <r>   33.3016 </r>
        <r>   36.9743 </r>
        <r>   36.9910 </r>
        <r>   37.3974 </r>
        <r>   37.4793 </r>
        <r>   37.7928 </r>
        <r>   37.8113 </r>
        <r>   40.6802 </r>
       </set>
       <set comment="kpoint 4">
        <r>  -45.7236 </r>
        <r>  -45.6524 </r>
        <r>  -24.5638 </r>
        <r>  -24.2317 </r>
        <r>  -24.2302 </r>
        <r>  -24.1646 </r>
        <r>  -24.1626 </r>
        <r>  -24.1298 </r>
        <r>   -1.4281 </r>
        <r>    2.0679 </r>
        <r>    4.2878 </r>
        <r>    5.2156 </r>
        <r>    5.2822 </r>
        <r>    5.5827 </r>
        <r>    5.7053 </r>
        <r>    5.7327 </r>
        <r>    5.9620 </r>
        <r>    5.9672 </r>
        <r>    7.3315 </r>
        <r>    7.3699 </r>
        <r>   10.7516 </r>
        <r>   15.6326 </r>
        <r>   17.7497 </r>
        <r>   18.2733 </r>
        <r>   18.4493 </r>
        <r>   18.5606 </r>
        <r>   20.2484 </r>
        <r>   20.2781 </r>
        <r>   20.5708 </r>
        <r>   21.1305 </r>
        <r>   22.1804 </r>
        <r>   24.0927 </r>
        <r>   24.2801 </r>
        <r>   24.3633 </r>
        <r>   25.7358 </r>
        <r>   25.7652 </r>
        <r>   26.0084 </r>
        <r>   27.2369 </r>
        <r>   27.2867 </r>
        <r>   28.5151 </r>
        <r>   33.3338 </r>
        <r>   36.7609 </r>
        <r>   36.7952 </r>
        <r>   37.3015 </r>
        <r>   37.4805 </r>
        <r>   37.9752 </r>
        <r>   38.0200 </r>
        <r>   40.5284 </r>
       </set>
       <set comment="kpoint 5">
        <r>  -45.7233 </r>
        <r>  -45.6523 </r>
        <r>  -24.5628 </r>
        <r>  -24.2336 </r>
        <r>  -24.2309 </r>
        <r>  -24.1666 </r>
        <r>  -24.1628 </r>
        <r>  -24.1303 </r>
        <r>   -1.4115 </r>
        <r>    2.0817 </r>
        <r>    4.2724 </r>
        <r>    5.1821 </r>
        <r>    5.2942 </r>
        <r>    5.6069 </r>
        <r>    5.6953 </r>
        <r>    5.7434 </r>
        <r>    5.9479 </r>
        <r>    5.9567 </r>
        <r>    7.3376 </r>
        <r>    7.4050 </r>
        <r>   10.7497 </r>
        <r>   15.6342 </r>
        <r>   17.6556 </r>
        <r>   18.2832 </r>
        <r>   18.3068 </r>
        <r>   18.5210 </r>
        <r>   20.3350 </r>
        <r>   20.3986 </r>
        <r>   20.4455 </r>
        <r>   21.1367 </r>
        <r>   22.4300 </r>
        <r>   23.9562 </r>
        <r>   24.2273 </r>
        <r>   24.3863 </r>
        <r>   25.5345 </r>
        <r>   25.5618 </r>
        <r>   26.1975 </r>
        <r>   27.3786 </r>
        <r>   27.4863 </r>
        <r>   28.6356 </r>
        <r>   33.3779 </r>
        <r>   36.5467 </r>
        <r>   36.6024 </r>
        <r>   37.1756 </r>
        <r>   37.4819 </r>
        <r>   38.1471 </r>
        <r>   38.2307 </r>
        <r>   40.3694 </r>
       </set>
       <set comment="kpoint 6">
        <r>  -45.7228 </r>
        <r>  -45.6521 </r>
        <r>  -24.5615 </r>
        <r>  -24.2360 </r>
        <r>  -24.2318 </r>
        <r>  -24.1693 </r>
        <r>  -24.1631 </r>
        <r>  -24.1309 </r>
        <r>   -1.3903 </r>
        <r>    2.0993 </r>
        <r>    4.2528 </r>
        <r>    5.1436 </r>
        <r>    5.3096 </r>
        <r>    5.6321 </r>
        <r>    5.6839 </r>
        <r>    5.7571 </r>
        <r>    5.9307 </r>
        <r>    5.9435 </r>
        <r>    7.3452 </r>
        <r>    7.4490 </r>
        <r>   10.7473 </r>
        <r>   15.6332 </r>
        <r>   17.5343 </r>
        <r>   18.1496 </r>
        <r>   18.2954 </r>
        <r>   18.5028 </r>
        <r>   20.0997 </r>
        <r>   20.5656 </r>
        <r>   20.6296 </r>
        <r>   21.1446 </r>
        <r>   22.6743 </r>
        <r>   23.8221 </r>
        <r>   24.1494 </r>
        <r>   24.4160 </r>
        <r>   25.3464 </r>
        <r>   25.3514 </r>
        <r>   26.4084 </r>
        <r>   27.5021 </r>
        <r>   27.6918 </r>
        <r>   28.7891 </r>
        <r>   33.4331 </r>
        <r>   36.3343 </r>
        <r>   36.4134 </r>
        <r>   37.0260 </r>
        <r>   37.4837 </r>
        <r>   38.3069 </r>
        <r>   38.4431 </r>
        <r>   40.2040 </r>
       </set>
       <set comment="kpoint 7">
        <r>  -45.7223 </r>
        <r>  -45.6519 </r>
        <r>  -24.5599 </r>
        <r>  -24.2389 </r>
        <r>  -24.2328 </r>
        <r>  -24.1724 </r>
        <r>  -24.1632 </r>
        <r>  -24.1316 </r>
        <r>   -1.3644 </r>
        <r>    2.1207 </r>
        <r>    4.2296 </r>
        <r>    5.1015 </r>
        <r>    5.3284 </r>
        <r>    5.6482 </r>
        <r>    5.6810 </r>
        <r>    5.7738 </r>
        <r>    5.9107 </r>
        <r>    5.9278 </r>
        <r>    7.3543 </r>
        <r>    7.5010 </r>
        <r>   10.7443 </r>
        <r>   15.6269 </r>
        <r>   17.3953 </r>
        <r>   17.9833 </r>
        <r>   18.3095 </r>
        <r>   18.5062 </r>
        <r>   19.8667 </r>
        <r>   20.7435 </r>
        <r>   20.8228 </r>
        <r>   21.1542 </r>
        <r>   22.8934 </r>
        <r>   23.7153 </r>
        <r>   24.0408 </r>
        <r>   24.4524 </r>
        <r>   25.1379 </r>
        <r>   25.1841 </r>
        <r>   26.6346 </r>
        <r>   27.6077 </r>
        <r>   27.8994 </r>
        <r>   28.9701 </r>
        <r>   33.4983 </r>
        <r>   36.1263 </r>
        <r>   36.2285 </r>
        <r>   36.8579 </r>
        <r>   37.4860 </r>
        <r>   38.4542 </r>
        <r>   38.6569 </r>
        <r>   40.0326 </r>
       </set>
       <set comment="kpoint 8">
        <r>  -45.7216 </r>
        <r>  -45.6517 </r>
        <r>  -24.5581 </r>
        <r>  -24.2423 </r>
        <r>  -24.2340 </r>
        <r>  -24.1760 </r>
        <r>  -24.1636 </r>
        <r>  -24.1325 </r>
        <r>   -1.3338 </r>
        <r>    2.1458 </r>
        <r>    4.2029 </r>
        <r>    5.0562 </r>
        <r>    5.3504 </r>
        <r>    5.6382 </r>
        <r>    5.7026 </r>
        <r>    5.7934 </r>
        <r>    5.8885 </r>
        <r>    5.9096 </r>
        <r>    7.3646 </r>
        <r>    7.5605 </r>
        <r>   10.7407 </r>
        <r>   15.6114 </r>
        <r>   17.2494 </r>
        <r>   17.8114 </r>
        <r>   18.3249 </r>
        <r>   18.5274 </r>
        <r>   19.6369 </r>
        <r>   20.9287 </r>
        <r>   21.0193 </r>
        <r>   21.1652 </r>
        <r>   23.0364 </r>
        <r>   23.6899 </r>
        <r>   23.8993 </r>
        <r>   24.4955 </r>
        <r>   24.9233 </r>
        <r>   25.0544 </r>
        <r>   26.8724 </r>
        <r>   27.6982 </r>
        <r>   28.1072 </r>
        <r>   29.1719 </r>
        <r>   33.5709 </r>
        <r>   35.9262 </r>
        <r>   36.0482 </r>
        <r>   36.6758 </r>
        <r>   37.4884 </r>
        <r>   38.5885 </r>
        <r>   38.8719 </r>
        <r>   39.8557 </r>
       </set>
       <set comment="kpoint 9">
        <r>  -45.7209 </r>
        <r>  -45.6515 </r>
        <r>  -24.5560 </r>
        <r>  -24.2462 </r>
        <r>  -24.2353 </r>
        <r>  -24.1801 </r>
        <r>  -24.1641 </r>
        <r>  -24.1335 </r>
        <r>   -1.2987 </r>
        <r>    2.1743 </r>
        <r>    4.1730 </r>
        <r>    5.0084 </r>
        <r>    5.3758 </r>
        <r>    5.6185 </r>
        <r>    5.7325 </r>
        <r>    5.8159 </r>
        <r>    5.8644 </r>
        <r>    5.8892 </r>
        <r>    7.3760 </r>
        <r>    7.6267 </r>
        <r>   10.7366 </r>
        <r>   15.5817 </r>
        <r>   17.1076 </r>
        <r>   17.6360 </r>
        <r>   18.3410 </r>
        <r>   18.5630 </r>
        <r>   19.4107 </r>
        <r>   21.1186 </r>
        <r>   21.1777 </r>
        <r>   21.2138 </r>
        <r>   23.0454 </r>
        <r>   23.7300 </r>
        <r>   23.8062 </r>
        <r>   24.5453 </r>
        <r>   24.7090 </r>
        <r>   24.9576 </r>
        <r>   27.1195 </r>
        <r>   27.7778 </r>
        <r>   28.3138 </r>
        <r>   29.3881 </r>
        <r>   33.6477 </r>
        <r>   35.7380 </r>
        <r>   35.8731 </r>
        <r>   36.4829 </r>
        <r>   37.4910 </r>
        <r>   38.7098 </r>
        <r>   39.0876 </r>
        <r>   39.6735 </r>
       </set>
       <set comment="kpoint 10">
        <r>  -45.7200 </r>
        <r>  -45.6512 </r>
        <r>  -24.5536 </r>
        <r>  -24.2506 </r>
        <r>  -24.2369 </r>
        <r>  -24.1847 </r>
        <r>  -24.1646 </r>
        <r>  -24.1347 </r>
        <r>   -1.2591 </r>
        <r>    2.2063 </r>
        <r>    4.1404 </r>
        <r>    4.9583 </r>
        <r>    5.4045 </r>
        <r>    5.5953 </r>
        <r>    5.7644 </r>
        <r>    5.8388 </r>
        <r>    5.8412 </r>
        <r>    5.8668 </r>
        <r>    7.3882 </r>
        <r>    7.6990 </r>
        <r>   10.7319 </r>
        <r>   15.5317 </r>
        <r>   16.9798 </r>
        <r>   17.4587 </r>
        <r>   18.3572 </r>
        <r>   18.6099 </r>
        <r>   19.1885 </r>
        <r>   21.1914 </r>
        <r>   21.3113 </r>
        <r>   21.3999 </r>
        <r>   22.9625 </r>
        <r>   23.5446 </r>
        <r>   24.0238 </r>
        <r>   24.4964 </r>
        <r>   24.6019 </r>
        <r>   24.8885 </r>
        <r>   27.3744 </r>
        <r>   27.8498 </r>
        <r>   28.5184 </r>
        <r>   29.6136 </r>
        <r>   33.7237 </r>
        <r>   35.5678 </r>
        <r>   35.7038 </r>
        <r>   36.2821 </r>
        <r>   37.4938 </r>
        <r>   38.8188 </r>
        <r>   39.3040 </r>
        <r>   39.4867 </r>
       </set>
       <set comment="kpoint 11">
        <r>  -45.7191 </r>
        <r>  -45.6510 </r>
        <r>  -24.5510 </r>
        <r>  -24.2555 </r>
        <r>  -24.2386 </r>
        <r>  -24.1898 </r>
        <r>  -24.1656 </r>
        <r>  -24.1360 </r>
        <r>   -1.2150 </r>
        <r>    2.2414 </r>
        <r>    4.1053 </r>
        <r>    4.9064 </r>
        <r>    5.4363 </r>
        <r>    5.5697 </r>
        <r>    5.7975 </r>
        <r>    5.8120 </r>
        <r>    5.8426 </r>
        <r>    5.8691 </r>
        <r>    7.4013 </r>
        <r>    7.7767 </r>
        <r>   10.7266 </r>
        <r>   15.4559 </r>
        <r>   16.8740 </r>
        <r>   17.2802 </r>
        <r>   18.3725 </r>
        <r>   18.6658 </r>
        <r>   18.9704 </r>
        <r>   21.2064 </r>
        <r>   21.5048 </r>
        <r>   21.5678 </r>
        <r>   22.8488 </r>
        <r>   23.3603 </r>
        <r>   24.2831 </r>
        <r>   24.2867 </r>
        <r>   24.6654 </r>
        <r>   24.8403 </r>
        <r>   27.6361 </r>
        <r>   27.9163 </r>
        <r>   28.7199 </r>
        <r>   29.8447 </r>
        <r>   33.7909 </r>
        <r>   35.4237 </r>
        <r>   35.5408 </r>
        <r>   36.0751 </r>
        <r>   37.4967 </r>
        <r>   38.9162 </r>
        <r>   39.2957 </r>
        <r>   39.5207 </r>
       </set>
       <set comment="kpoint 12">
        <r>  -45.7181 </r>
        <r>  -45.6507 </r>
        <r>  -24.5481 </r>
        <r>  -24.2608 </r>
        <r>  -24.2404 </r>
        <r>  -24.1952 </r>
        <r>  -24.1663 </r>
        <r>  -24.1374 </r>
        <r>   -1.1666 </r>
        <r>    2.2796 </r>
        <r>    4.0682 </r>
        <r>    4.8527 </r>
        <r>    5.4714 </r>
        <r>    5.5424 </r>
        <r>    5.7842 </r>
        <r>    5.8168 </r>
        <r>    5.8317 </r>
        <r>    5.9000 </r>
        <r>    7.4149 </r>
        <r>    7.8595 </r>
        <r>   10.7208 </r>
        <r>   15.3507 </r>
        <r>   16.7955 </r>
        <r>   17.1013 </r>
        <r>   18.3857 </r>
        <r>   18.7290 </r>
        <r>   18.7567 </r>
        <r>   21.2224 </r>
        <r>   21.6973 </r>
        <r>   21.7011 </r>
        <r>   22.7293 </r>
        <r>   23.2002 </r>
        <r>   24.0819 </r>
        <r>   24.5603 </r>
        <r>   24.7358 </r>
        <r>   24.8078 </r>
        <r>   27.9040 </r>
        <r>   27.9790 </r>
        <r>   28.9178 </r>
        <r>   30.0787 </r>
        <r>   33.8392 </r>
        <r>   35.3166 </r>
        <r>   35.3850 </r>
        <r>   35.8636 </r>
        <r>   37.4997 </r>
        <r>   39.0031 </r>
        <r>   39.1013 </r>
        <r>   39.7375 </r>
       </set>
       <set comment="kpoint 13">
        <r>  -45.7170 </r>
        <r>  -45.6503 </r>
        <r>  -24.5450 </r>
        <r>  -24.2665 </r>
        <r>  -24.2423 </r>
        <r>  -24.2011 </r>
        <r>  -24.1670 </r>
        <r>  -24.1389 </r>
        <r>   -1.1138 </r>
        <r>    2.3205 </r>
        <r>    4.0294 </r>
        <r>    4.7977 </r>
        <r>    5.5095 </r>
        <r>    5.5136 </r>
        <r>    5.7556 </r>
        <r>    5.7896 </r>
        <r>    5.8668 </r>
        <r>    5.9334 </r>
        <r>    7.4290 </r>
        <r>    7.9467 </r>
        <r>   10.7145 </r>
        <r>   15.2164 </r>
        <r>   16.7447 </r>
        <r>   16.9225 </r>
        <r>   18.3950 </r>
        <r>   18.5485 </r>
        <r>   18.7978 </r>
        <r>   21.2394 </r>
        <r>   21.7735 </r>
        <r>   21.8856 </r>
        <r>   22.6138 </r>
        <r>   23.0955 </r>
        <r>   23.8849 </r>
        <r>   24.7872 </r>
        <r>   24.8132 </r>
        <r>   24.8471 </r>
        <r>   28.0387 </r>
        <r>   28.1775 </r>
        <r>   29.1113 </r>
        <r>   30.3134 </r>
        <r>   33.8570 </r>
        <r>   35.2369 </r>
        <r>   35.2585 </r>
        <r>   35.6487 </r>
        <r>   37.5026 </r>
        <r>   38.9039 </r>
        <r>   39.0809 </r>
        <r>   39.9541 </r>
       </set>
       <set comment="kpoint 14">
        <r>  -45.7158 </r>
        <r>  -45.6500 </r>
        <r>  -24.5417 </r>
        <r>  -24.2725 </r>
        <r>  -24.2444 </r>
        <r>  -24.2074 </r>
        <r>  -24.1678 </r>
        <r>  -24.1406 </r>
        <r>   -1.0567 </r>
        <r>    2.3639 </r>
        <r>    3.9891 </r>
        <r>    4.7414 </r>
        <r>    5.4836 </r>
        <r>    5.5507 </r>
        <r>    5.7264 </r>
        <r>    5.7613 </r>
[...]
       <r>   33.0152    0.0000 </r>
       <r>   33.0152    0.0000 </r>
       <r>   34.6359    0.0000 </r>
       <r>   34.6359    0.0000 </r>
       <r>   37.6344    0.0000 </r>
       <r>   37.6344    0.0000 </r>
       <r>   37.7383    0.0000 </r>
       <r>   37.7383    0.0000 </r>
       <r>   38.6830    0.0000 </r>
       <r>   38.6830    0.0000 </r>
      </set>
      <set comment="kpoint 132">
       <r>  -45.6541    1.0000 </r>
       <r>  -45.6540    1.0000 </r>
       <r>  -24.4860    1.0000 </r>
       <r>  -24.4860    1.0000 </r>
       <r>  -24.3513    1.0000 </r>
       <r>  -24.3513    1.0000 </r>
       <r>  -24.2062    1.0000 </r>
       <r>  -24.2062    1.0000 </r>
       <r>    2.8904    1.0000 </r>
       <r>    2.8904    1.0000 </r>
       <r>    3.8086    0.0001 </r>
       <r>    3.8086    0.0001 </r>
       <r>    4.0375    0.0000 </r>
       <r>    4.0375    0.0000 </r>
       <r>    6.0397    0.0000 </r>
       <r>    6.0397    0.0000 </r>
       <r>    7.3559    0.0000 </r>
       <r>    7.3559    0.0000 </r>
       <r>    8.8854    0.0000 </r>
       <r>    8.8855    0.0000 </r>
       <r>   11.0531    0.0000 </r>
       <r>   11.0531    0.0000 </r>
       <r>   11.8424    0.0000 </r>
       <r>   11.8424    0.0000 </r>
       <r>   17.3002    0.0000 </r>
       <r>   17.3002    0.0000 </r>
       <r>   19.5733    0.0000 </r>
       <r>   19.5733    0.0000 </r>
       <r>   20.8769    0.0000 </r>
       <r>   20.8769    0.0000 </r>
       <r>   24.0605    0.0000 </r>
       <r>   24.0605    0.0000 </r>
       <r>   26.9269    0.0000 </r>
       <r>   26.9270    0.0000 </r>
       <r>   29.0319    0.0000 </r>
       <r>   29.0319    0.0000 </r>
       <r>   31.9255    0.0000 </r>
       <r>   31.9255    0.0000 </r>
       <r>   33.9049    0.0000 </r>
       <r>   33.9049    0.0000 </r>
       <r>   35.7401    0.0000 </r>
       <r>   35.7401    0.0000 </r>
       <r>   36.8422    0.0000 </r>
       <r>   36.8422    0.0000 </r>
       <r>   37.7901    0.0000 </r>
       <r>   37.7901    0.0000 </r>
       <r>   39.3677    0.0000 </r>
       <r>   39.3677    0.0000 </r>
      </set>
      <set comment="kpoint 133">
       <r>  -45.6530    1.0000 </r>
       <r>  -45.6530    1.0000 </r>
       <r>  -24.4771    1.0000 </r>
       <r>  -24.4771    1.0000 </r>
       <r>  -24.3717    1.0000 </r>
       <r>  -24.3717    1.0000 </r>
       <r>  -24.2037    1.0000 </r>
       <r>  -24.2037    1.0000 </r>
       <r>    3.2732    1.0000 </r>
       <r>    3.2732    1.0000 </r>
       <r>    3.5497    0.9998 </r>
       <r>    3.5497    0.9998 </r>
       <r>    3.9416    0.0000 </r>
       <r>    3.9416    0.0000 </r>
       <r>    6.0728    0.0000 </r>
       <r>    6.0728    0.0000 </r>
       <r>    7.2788    0.0000 </r>
       <r>    7.2788    0.0000 </r>
       <r>    9.4657    0.0000 </r>
       <r>    9.4657    0.0000 </r>
       <r>   10.7994    0.0000 </r>
       <r>   10.7994    0.0000 </r>
       <r>   11.2417    0.0000 </r>
       <r>   11.2417    0.0000 </r>
       <r>   18.2189    0.0000 </r>
       <r>   18.2189    0.0000 </r>
       <r>   18.5881    0.0000 </r>
       <r>   18.5881    0.0000 </r>
       <r>   20.8703    0.0000 </r>
       <r>   20.8703    0.0000 </r>
       <r>   25.7152    0.0000 </r>
       <r>   25.7152    0.0000 </r>
       <r>   25.9224    0.0000 </r>
       <r>   25.9225    0.0000 </r>
       <r>   27.9832    0.0000 </r>
       <r>   27.9833    0.0000 </r>
       <r>   33.4982    0.0000 </r>
       <r>   33.4982    0.0000 </r>
       <r>   34.4475    0.0000 </r>
       <r>   34.4475    0.0000 </r>
       <r>   34.6349    0.0000 </r>
       <r>   34.6349    0.0000 </r>
       <r>   37.3640    0.0000 </r>
       <r>   37.3641    0.0000 </r>
       <r>   37.8664    0.0000 </r>
       <r>   37.8665    0.0000 </r>
       <r>   38.1143    0.0000 </r>
       <r>   38.1143    0.0000 </r>
      </set>
     </set>
    </set>
   </array>
  </eigenvalues>
  <separator name="orbital magnetization" >
   <v name="MAGDIPOLOUT">      0.00000000      0.00000000      0.00000000</v>
  </separator>
  <dos>
   <i name="efermi">      3.67690607 </i>
   <total>
    <array>
     <dimension dim="1">gridpoints</dimension>
     <dimension dim="2">spin</dimension>
     <field>energy</field>
     <field>total</field>
     <field>integrated</field>
     <set>
      <set comment="spin 1">
       <r>   -50.1678     0.0000     0.0000 </r>
       <r>   -49.8420     0.0000     0.0000 </r>
       <r>   -49.5161     0.0000     0.0000 </r>
       <r>   -49.1903     0.0000     0.0000 </r>
       <r>   -48.8644     0.0000     0.0000 </r>
       <r>   -48.5386     0.0000     0.0000 </r>
       <r>   -48.2127     0.0000     0.0000 </r>
       <r>   -47.8869     0.0000     0.0000 </r>
       <r>   -47.5610     0.0000     0.0000 </r>
       <r>   -47.2352     0.0000     0.0000 </r>
       <r>   -46.9093     0.0000     0.0000 </r>
       <r>   -46.5835     0.0000     0.0000 </r>
       <r>   -46.2576     0.0000     0.0000 </r>
       <r>   -45.9318     0.0000     0.0000 </r>
       <r>   -45.6059    11.4857     3.7426 </r>
       <r>   -45.2801     0.7745     4.0000 </r>
       <r>   -44.9542     0.0000     4.0000 </r>
       <r>   -44.6283     0.0000     4.0000 </r>
       <r>   -44.3025     0.0000     4.0000 </r>
       <r>   -43.9766     0.0000     4.0000 </r>
       <r>   -43.6508     0.0000     4.0000 </r>
       <r>   -43.3249     0.0000     4.0000 </r>
       <r>   -42.9991     0.0000     4.0000 </r>
       <r>   -42.6732     0.0000     4.0000 </r>
       <r>   -42.3474     0.0000     4.0000 </r>
       <r>   -42.0215     0.0000     4.0000 </r>
       <r>   -41.6957     0.0000     4.0000 </r>
       <r>   -41.3698     0.0000     4.0000 </r>
       <r>   -41.0440     0.0000     4.0000 </r>
       <r>   -40.7181     0.0000     4.0000 </r>
       <r>   -40.3923     0.0000     4.0000 </r>
       <r>   -40.0664     0.0000     4.0000 </r>
       <r>   -39.7406     0.0000     4.0000 </r>
       <r>   -39.4147     0.0000     4.0000 </r>
       <r>   -39.0889     0.0000     4.0000 </r>
       <r>   -38.7630     0.0000     4.0000 </r>
       <r>   -38.4372     0.0000     4.0000 </r>
       <r>   -38.1113     0.0000     4.0000 </r>
       <r>   -37.7855     0.0000     4.0000 </r>
       <r>   -37.4596     0.0000     4.0000 </r>
       <r>   -37.1338     0.0000     4.0000 </r>
       <r>   -36.8079     0.0000     4.0000 </r>
       <r>   -36.4821     0.0000     4.0000 </r>
       <r>   -36.1562     0.0000     4.0000 </r>
       <r>   -35.8304     0.0000     4.0000 </r>
       <r>   -35.5045     0.0000     4.0000 </r>
       <r>   -35.1787     0.0000     4.0000 </r>
       <r>   -34.8528     0.0000     4.0000 </r>
       <r>   -34.5269     0.0000     4.0000 </r>
       <r>   -34.2011     0.0000     4.0000 </r>
       <r>   -33.8752     0.0000     4.0000 </r>
       <r>   -33.5494     0.0000     4.0000 </r>
       <r>   -33.2235     0.0000     4.0000 </r>
       <r>   -32.8977     0.0000     4.0000 </r>
       <r>   -32.5718     0.0000     4.0000 </r>
       <r>   -32.2460     0.0000     4.0000 </r>
       <r>   -31.9201     0.0000     4.0000 </r>
       <r>   -31.5943     0.0000     4.0000 </r>
       <r>   -31.2684     0.0000     4.0000 </r>
       <r>   -30.9426     0.0000     4.0000 </r>
       <r>   -30.6167     0.0000     4.0000 </r>
       <r>   -30.2909     0.0000     4.0000 </r>
       <r>   -29.9650     0.0000     4.0000 </r>
       <r>   -29.6392     0.0000     4.0000 </r>
       <r>   -29.3133     0.0000     4.0000 </r>
       <r>   -28.9875     0.0000     4.0000 </r>
       <r>   -28.6616     0.0000     4.0000 </r>
       <r>   -28.3358     0.0000     4.0000 </r>
       <r>   -28.0099     0.0000     4.0000 </r>
       <r>   -27.6841     0.0000     4.0000 </r>
       <r>   -27.3582     0.0000     4.0000 </r>
       <r>   -27.0324     0.0000     4.0000 </r>
       <r>   -26.7065     0.0000     4.0000 </r>
       <r>   -26.3807     0.0000     4.0000 </r>
       <r>   -26.0548     0.0000     4.0000 </r>
       <r>   -25.7290     0.0000     4.0000 </r>
       <r>   -25.4031     0.0000     4.0000 </r>
       <r>   -25.0772     0.0000     4.0000 </r>
       <r>   -24.7514     0.0000     4.0000 </r>
       <r>   -24.4255     8.0829     6.6338 </r>
       <r>   -24.0997    28.6561    15.9756 </r>
       <r>   -23.7738     0.0502    16.0000 </r>
       <r>   -23.4480     0.0000    16.0000 </r>
       <r>   -23.1221     0.0000    16.0000 </r>
       <r>   -22.7963     0.0000    16.0000 </r>
       <r>   -22.4704     0.0000    16.0000 </r>
       <r>   -22.1446     0.0000    16.0000 </r>
       <r>   -21.8187     0.0000    16.0000 </r>
       <r>   -21.4929     0.0000    16.0000 </r>
       <r>   -21.1670     0.0000    16.0000 </r>
       <r>   -20.8412     0.0000    16.0000 </r>
       <r>   -20.5153     0.0000    16.0000 </r>
       <r>   -20.1895     0.0000    16.0000 </r>
       <r>   -19.8636     0.0000    16.0000 </r>
       <r>   -19.5378     0.0000    16.0000 </r>
       <r>   -19.2119     0.0000    16.0000 </r>
       <r>   -18.8861     0.0000    16.0000 </r>
       <r>   -18.5602     0.0000    16.0000 </r>
       <r>   -18.2344     0.0000    16.0000 </r>
       <r>   -17.9085     0.0000    16.0000 </r>
       <r>   -17.5827     0.0000    16.0000 </r>
       <r>   -17.2568     0.0000    16.0000 </r>
       <r>   -16.9310     0.0000    16.0000 </r>
       <r>   -16.6051     0.0000    16.0000 </r>
       <r>   -16.2793     0.0000    16.0000 </r>
       <r>   -15.9534     0.0000    16.0000 </r>
       <r>   -15.6276     0.0000    16.0000 </r>
       <r>   -15.3017     0.0000    16.0000 </r>
       <r>   -14.9758     0.0000    16.0000 </r>
       <r>   -14.6500     0.0000    16.0000 </r>
       <r>   -14.3241     0.0000    16.0000 </r>
       <r>   -13.9983     0.0000    16.0000 </r>
       <r>   -13.6724     0.0000    16.0000 </r>
       <r>   -13.3466     0.0000    16.0000 </r>
       <r>   -13.0207     0.0000    16.0000 </r>
       <r>   -12.6949     0.0000    16.0000 </r>
       <r>   -12.3690     0.0000    16.0000 </r>
       <r>   -12.0432     0.0000    16.0000 </r>
       <r>   -11.7173     0.0000    16.0000 </r>
       <r>   -11.3915     0.0000    16.0000 </r>
       <r>   -11.0656     0.0000    16.0000 </r>
       <r>   -10.7398     0.0000    16.0000 </r>
       <r>   -10.4139     0.0000    16.0000 </r>
       <r>   -10.0881     0.0000    16.0000 </r>
       <r>    -9.7622     0.0000    16.0000 </r>
       <r>    -9.4364     0.0000    16.0000 </r>
       <r>    -9.1105     0.0000    16.0000 </r>
       <r>    -8.7847     0.0000    16.0000 </r>
       <r>    -8.4588     0.0000    16.0000 </r>
       <r>    -8.1330     0.0000    16.0000 </r>
       <r>    -7.8071     0.0000    16.0000 </r>
       <r>    -7.4813     0.0000    16.0000 </r>
       <r>    -7.1554     0.0000    16.0000 </r>
       <r>    -6.8296     0.0000    16.0000 </r>
       <r>    -6.5037     0.0000    16.0000 </r>
       <r>    -6.1779     0.0000    16.0000 </r>
       <r>    -5.8520     0.0000    16.0000 </r>
       <r>    -5.5261     0.0000    16.0000 </r>
       <r>    -5.2003     0.0000    16.0000 </r>
       <r>    -4.8744     0.0000    16.0000 </r>
       <r>    -4.5486     0.0000    16.0000 </r>
       <r>    -4.2227     0.0000    16.0000 </r>
       <r>    -3.8969     0.0000    16.0000 </r>
       <r>    -3.5710     0.0000    16.0000 </r>
       <r>    -3.2452     0.0000    16.0000 </r>
       <r>    -2.9193     0.0000    16.0000 </r>
       <r>    -2.5935     0.0000    16.0000 </r>
       <r>    -2.2676     0.0000    16.0000 </r>
       <r>    -1.9418     0.0000    16.0000 </r>
       <r>    -1.6159     0.0000    16.0000 </r>
       <r>    -1.2901     0.0308    16.0100 </r>
       <r>    -0.9642     0.1384    16.0551 </r>
       <r>    -0.6384     0.2300    16.1301 </r>
       <r>    -0.3125     0.2872    16.2237 </r>
       <r>     0.0133     0.3716    16.3449 </r>
       <r>     0.3392     0.3958    16.4741 </r>
       <r>     0.6650     0.5456    16.6520 </r>
       <r>     0.9909     0.4868    16.8106 </r>
       <r>     1.3167     0.7856    17.0667 </r>
       <r>     1.6426     0.8299    17.3371 </r>
       <r>     1.9684     1.1662    17.7172 </r>
       <r>     2.2943     1.7030    18.2722 </r>
       <r>     2.6201     1.8096    18.8623 </r>
       <r>     2.9460     1.9668    19.5035 </r>
       <r>     3.2718     2.9271    20.4578 </r>
       <r>     3.5977     3.7216    21.6716 </r>
       <r>     3.9235     4.1348    23.0201 </r>
       <r>     4.2494     1.8941    23.6382 </r>
       <r>     4.5753     1.8890    24.2541 </r>
       <r>     4.9011     4.5894    25.7502 </r>
       <r>     5.2270     5.0773    27.4055 </r>
       <r>     5.5528     5.2490    29.1167 </r>
       <r>     5.8787     3.3684    30.2154 </r>
       <r>     6.2045     2.3531    30.9827 </r>
       <r>     6.5304     2.3899    31.7622 </r>
       <r>     6.8562     2.5989    32.6097 </r>
       <r>     7.1821     4.0853    33.9414 </r>
       <r>     7.5079     7.1548    36.2737 </r>
       <r>     7.8338     4.6528    37.7919 </r>
       <r>     8.1596     1.8752    38.4031 </r>
       <r>     8.4855     1.2684    38.8167 </r>
       <r>     8.8113     1.1869    39.2037 </r>
       <r>     9.1372     1.2687    39.6176 </r>
       <r>     9.4630     0.5994    39.8133 </r>
       <r>     9.7889     0.3332    39.9219 </r>
       <r>    10.1147     0.3802    40.0462 </r>
       <r>    10.4406     0.1439    40.0933 </r>
       <r>    10.7664     1.0563    40.4375 </r>
       <r>    11.0923     2.3586    41.2062 </r>
       <r>    11.4181     1.8410    41.8074 </r>
       <r>    11.7440     1.6571    42.3481 </r>
       <r>    12.0698     1.5720    42.8604 </r>
       <r>    12.3957     1.5358    43.3610 </r>
       <r>    12.7215     1.1695    43.7425 </r>
       <r>    13.0474     1.1747    44.1254 </r>
       <r>    13.3732     1.1397    44.4969 </r>
       <r>    13.6991     0.9327    44.8009 </r>
       <r>    14.0249     1.3992    45.2571 </r>
       <r>    14.3508     1.8003    45.8443 </r>
       <r>    14.6767     2.0361    46.5086 </r>
       <r>    15.0025     1.8830    47.1233 </r>
       <r>    15.3284     1.8514    47.7275 </r>
       <r>    15.6542     1.6571    48.2682 </r>
       <r>    15.9801     1.9173    48.8931 </r>
       <r>    16.3059     1.7851    49.4751 </r>
       <r>    16.6318     1.6860    50.0248 </r>
       <r>    16.9576     2.0818    50.7041 </r>
       <r>    17.2835     0.9873    51.0265 </r>
       <r>    17.6093     1.7725    51.6042 </r>
       <r>    17.9352     1.4141    52.0662 </r>
       <r>    18.2610     1.6287    52.5971 </r>
       <r>    18.5869     1.4604    53.0731 </r>
       <r>    18.9127     2.3969    53.8543 </r>
       <r>    19.2386     1.4748    54.3350 </r>
       <r>    19.5644     1.0053    54.6627 </r>
       <r>    19.8903     0.8163    54.9287 </r>
       <r>    20.2161     1.2772    55.3449 </r>
       <r>    20.5420     1.4456    55.8162 </r>
       <r>    20.8678     2.0643    56.4892 </r>
       <r>    21.1937     1.1779    56.8733 </r>
       <r>    21.5195     1.4315    57.3405 </r>
       <r>    21.8454     1.8465    57.9423 </r>
       <r>    22.1712     2.0212    58.6011 </r>
       <r>    22.4971     2.1097    59.2893 </r>
       <r>    22.8229     1.4347    59.7572 </r>
       <r>    23.1488     1.5233    60.2537 </r>
       <r>    23.4746     2.1926    60.9692 </r>
       <r>    23.8005     2.1119    61.6577 </r>
       <r>    24.1264     1.9726    62.3007 </r>
       <r>    24.4522     1.6931    62.8531 </r>
       <r>    24.7781     1.7226    63.4159 </r>
       <r>    25.1039     1.6935    63.9680 </r>
       <r>    25.4298     1.9426    64.6015 </r>
       <r>    25.7556     1.5155    65.0957 </r>
       <r>    26.0815     2.1855    65.8081 </r>
       <r>    26.4073     1.8909    66.4244 </r>
       <r>    26.7332     1.5221    66.9207 </r>
       <r>    27.0590     1.4878    67.4059 </r>
       <r>    27.3849     1.7167    67.9654 </r>
       <r>    27.7107     2.1895    68.6790 </r>
       <r>    28.0366     1.8418    69.2796 </r>
       <r>    28.3624     2.0045    69.9329 </r>
       <r>    28.6883     2.1022    70.6183 </r>
       <r>    29.0141     2.4040    71.4017 </r>
       <r>    29.3400     2.0362    72.0654 </r>
       <r>    29.6658     2.2880    72.8117 </r>
       <r>    29.9917     1.5723    73.3244 </r>
       <r>    30.3175     2.1705    74.0319 </r>
       <r>    30.6434     2.1389    74.7300 </r>
       <r>    30.9692     1.5705    75.2422 </r>
       <r>    31.2951     2.7170    76.1279 </r>
       <r>    31.6209     2.8798    77.0669 </r>
       <r>    31.9468     2.1243    77.7597 </r>
       <r>    32.2726     1.9800    78.4055 </r>
       <r>    32.5985     1.8330    79.0033 </r>
       <r>    32.9243     1.6706    79.5477 </r>
       <r>    33.2502     1.6629    80.0900 </r>
       <r>    33.5760     2.3702    80.8626 </r>
       <r>    33.9019     1.9820    81.5092 </r>
       <r>    34.2278     2.3360    82.2708 </r>
       <r>    34.5536     2.2075    82.9903 </r>
       <r>    34.8795     2.2764    83.7326 </r>
       <r>    35.2053     1.7607    84.3070 </r>
       <r>    35.5312     2.0504    84.9759 </r>
       <r>    35.8570     2.6500    85.8402 </r>
       <r>    36.1829     2.5113    86.6593 </r>
       <r>    36.5087     2.0585    87.3304 </r>
       <r>    36.8346     2.3238    88.0883 </r>
       <r>    37.1604     2.4537    88.8883 </r>
       <r>    37.4863     2.7409    89.7825 </r>
       <r>    37.8121     2.7899    90.6921 </r>
       <r>    38.1380     2.7403    91.5864 </r>
       <r>    38.4638     1.8818    92.2000 </r>
       <r>    38.7897     2.0686    92.8746 </r>
       <r>    39.1155     1.5162    93.3691 </r>
       <r>    39.4414     1.8991    93.9881 </r>
       <r>    39.7672     1.8928    94.6052 </r>
       <r>    40.0931     1.7014    95.1605 </r>
       <r>    40.4189     0.9694    95.4766 </r>
       <r>    40.7448     0.7065    95.7068 </r>
       <r>    41.0706     0.2090    95.7751 </r>
       <r>    41.3965     0.1873    95.8362 </r>
       <r>    41.7223     0.1628    95.8892 </r>
       <r>    42.0482     0.0701    95.9120 </r>
       <r>    42.3740     0.0110    95.9156 </r>
       <r>    42.6999     0.1828    95.9752 </r>
       <r>    43.0257     0.0198    95.9816 </r>
       <r>    43.3516     0.0563    96.0000 </r>
       <r>    43.6775     0.0000    96.0000 </r>
       <r>    44.0033     0.0000    96.0000 </r>
       <r>    44.3292     0.0000    96.0000 </r>
       <r>    44.6550     0.0000    96.0000 </r>
       <r>    44.9809     0.0000    96.0000 </r>
       <r>    45.3067     0.0000    96.0000 </r>
       <r>    45.6326     0.0000    96.0000 </r>
       <r>    45.9584     0.0000    96.0000 </r>
       <r>    46.2843     0.0000    96.0000 </r>
       <r>    46.6101     0.0000    96.0000 </r>
       <r>    46.9360     0.0000    96.0000 </r>
       <r>    47.2618     0.0000    96.0000 </r>
       <r>    47.5877     0.0000    96.0000 </r>
      </set>
     </set>
    </array>
   </total>
  </dos>
 </calculation>
 <structure name="finalpos" >
  <crystal>
   <varray name="basis" >
    <v>       3.32145000       0.00000000       0.00000000 </v>
    <v>       1.66072500       2.87646008       0.00000000 </v>
    <v>       0.00000000       0.00000000       5.16192000 </v>
   </varray>
   <i name="volume">     49.31707827 </i>
   <varray name="rec_basis" >
    <v>       0.30107333      -0.17382477       0.00000000 </v>
    <v>       0.00000000       0.34764953       0.00000000 </v>
    <v>      -0.00000000      -0.00000000       0.19372637 </v>
   </varray>
  </crystal>
  <varray name="positions" >
   <v>       0.00000000       0.00000000       0.00000000 </v>
   <v>       0.33333333       0.33333333       0.50000000 </v>
  </varray>
 </structure>
</modeling>
