C                                       
   1.00000000000000     
     2.468570    0.000000    0.000000
    -1.234285    2.137844    0.000000
     0.000000    0.000000    8.840790
   C 
     4
Direct
  0.000000  0.000000  0.250000
  0.000000  0.000000  0.750000
  0.333333  0.666667  0.250000
  0.666667  0.333333  0.750000
 
   28   28  100
 0.26538     0.26455     0.26211     0.25823     0.25316     0.24719     0.24064     0.23382     0.22708     0.22075    
 0.21515     0.21056     0.20716     0.20508     0.20437     0.20508     0.20716     0.21056     0.21515     0.22075    
 0.22708     0.23382     0.24064     0.24719     0.25316     0.25823     0.26211     0.26455     0.26455     0.26455    
 0.26292     0.25976     0.25527     0.24974     0.24350     0.23686     0.23014     0.22364     0.21768     0.21257    
 0.20854     0.20579     0.20441     0.20445     0.20588     0.20863     0.21260     0.21764     0.22355     0.23005    
 0.23683     0.24352     0.24978     0.25529     0.25976     0.26292     0.26212     0.26292     0.26212     0.25977    
 0.25602     0.25109     0.24528     0.23895     0.23242     0.22598     0.21992     0.21452     0.21003     0.20667    
 0.20460     0.20393     0.20466     0.20675     0.21008     0.21452     0.21987     0.22591     0.23238     0.23897    
 0.24533     0.25112     0.25602     0.25977     0.25825     0.25977     0.25976     0.25824     0.25532     0.25114    
 0.24594     0.24007     0.23385     0.22759     0.22158     0.21611     0.21141     0.20765     0.20502     0.20366    
 0.20366     0.20500     0.20760     0.21138     0.21614     0.22163     0.22762     0.23387     0.24010     0.24595    
 0.25110     0.25528     0.25316     0.25531     0.25601     0.25526     0.25316     0.24980     0.24536     0.24013    
 0.23441     0.22848     0.22264     0.21719     0.21242     0.20848     0.20550     0.20363     0.20299     0.20359    
 0.20539     0.20837     0.21242     0.21730     0.22273     0.22851     0.23441     0.24012     0.24532     0.24974    
 0.24715     0.24978     0.25113     0.25108     0.24972     0.24717     0.24352     0.23900     0.23393     0.22857    
 0.22310     0.21781     0.21305     0.20904     0.20586     0.20364     0.20253     0.20255     0.20365     0.20578    
 0.20898     0.21311     0.21789     0.22308     0.22850     0.23393     0.23901     0.24348     0.24056     0.24350    
 0.24537     0.24596     0.24529     0.24348     0.24060     0.23679     0.23238     0.22766     0.22279     0.21791    
 0.21333     0.20936     0.20611     0.20365     0.20215     0.20172     0.20228     0.20373     0.20608     0.20936    
 0.21337     0.21785     0.22266     0.22763     0.23246     0.23683     0.23376     0.23679     0.23902     0.24015    
 0.24010     0.23897     0.23686     0.23379     0.23000     0.22587     0.22162     0.21732     0.21314     0.20940    
 0.20626     0.20373     0.20194     0.20109     0.20119     0.20210     0.20376     0.20622     0.20943     0.21314    
 0.21720     0.22155     0.22598     0.23012     0.22708     0.23003     0.23241     0.23394     0.23441     0.23387    
 0.23246     0.23017     0.22708     0.22351     0.21981     0.21609     0.21242     0.20904     0.20617     0.20383    
 0.20198     0.20081     0.20049     0.20092     0.20198     0.20372     0.20616     0.20913     0.21242     0.21602    
 0.21986     0.22365     0.22083     0.22356     0.22590     0.22766     0.22853     0.22845     0.22758     0.22602    
 0.22370     0.22079     0.21764     0.21448     0.21134     0.20835     0.20580     0.20376     0.20212     0.20091    
 0.20030     0.20034     0.20089     0.20196     0.20365     0.20590     0.20849     0.21132     0.21444     0.21772    
 0.21526     0.21768     0.21982     0.22160     0.22275     0.22306     0.22260     0.22156     0.21993     0.21772    
 0.21521     0.21264     0.21009     0.20757     0.20534     0.20359     0.20224     0.20120     0.20054     0.20038    
 0.20060     0.20113     0.20209     0.20361     0.20551     0.20762     0.20998     0.21261     0.21063     0.21264    
 0.21444     0.21605     0.21731     0.21793     0.21783     0.21718     0.21607     0.21448     0.21256     0.21060    
 0.20868     0.20678     0.20499     0.20354     0.20248     0.20168     0.20112     0.20091     0.20100     0.20123    
 0.20164     0.20243     0.20363     0.20506     0.20667     0.20855     0.20716     0.20864     0.21002     0.21129    
 0.21242     0.21320     0.21341     0.21310     0.21242     0.21136     0.20997     0.20850     0.20716     0.20591    
 0.20471     0.20369     0.20299     0.20251     0.20213     0.20194     0.20198     0.20211     0.20223     0.20246    
 0.20299     0.20375     0.20465     0.20577     0.20500     0.20586     0.20674     0.20757     0.20837     0.20907    
 0.20943     0.20939     0.20907     0.20850     0.20765     0.20663     0.20573     0.20504     0.20445     0.20397    
 0.20373     0.20369     0.20366     0.20361     0.20365     0.20374     0.20372     0.20361     0.20359     0.20375    
 0.20400     0.20437     0.20427     0.20441     0.20471     0.20503     0.20540     0.20582     0.20613     0.20619    
 0.20607     0.20588     0.20556     0.20507     0.20461     0.20437     0.20432     0.20437     0.20461     0.20507    
 0.20556     0.20588     0.20607     0.20619     0.20613     0.20582     0.20540     0.20503     0.20471     0.20441    
 0.20500     0.20437     0.20400     0.20375     0.20359     0.20361     0.20372     0.20374     0.20365     0.20361    
 0.20366     0.20369     0.20373     0.20397     0.20445     0.20504     0.20573     0.20663     0.20765     0.20850    
 0.20907     0.20939     0.20943     0.20907     0.20837     0.20757     0.20674     0.20586     0.20716     0.20577    
 0.20465     0.20375     0.20299     0.20246     0.20223     0.20211     0.20198     0.20194     0.20213     0.20251    
 0.20299     0.20369     0.20471     0.20591     0.20716     0.20850     0.20997     0.21136     0.21242     0.21310    
 0.21341     0.21320     0.21242     0.21129     0.21002     0.20864     0.21063     0.20855     0.20667     0.20506    
 0.20363     0.20243     0.20164     0.20123     0.20100     0.20091     0.20112     0.20168     0.20248     0.20354    
 0.20499     0.20678     0.20868     0.21060     0.21256     0.21448     0.21607     0.21718     0.21783     0.21793    
 0.21731     0.21605     0.21444     0.21264     0.21526     0.21261     0.20998     0.20762     0.20551     0.20361    
 0.20209     0.20113     0.20060     0.20038     0.20054     0.20120     0.20224     0.20359     0.20534     0.20757    
 0.21009     0.21264     0.21521     0.21772     0.21993     0.22156     0.22260     0.22306     0.22275     0.22160    
 0.21982     0.21768     0.22083     0.21772     0.21444     0.21132     0.20849     0.20590     0.20365     0.20196    
 0.20089     0.20034     0.20030     0.20091     0.20212     0.20376     0.20580     0.20835     0.21134     0.21448    
 0.21764     0.22079     0.22370     0.22602     0.22758     0.22845     0.22853     0.22766     0.22590     0.22356    
 0.22708     0.22365     0.21986     0.21602     0.21242     0.20913     0.20616     0.20372     0.20198     0.20092    
 0.20049     0.20081     0.20198     0.20383     0.20617     0.20904     0.21242     0.21609     0.21981     0.22351    
 0.22708     0.23017     0.23246     0.23387     0.23441     0.23394     0.23241     0.23003     0.23376     0.23012    
 0.22598     0.22155     0.21720     0.21314     0.20943     0.20622     0.20376     0.20210     0.20119     0.20109    
 0.20194     0.20373     0.20626     0.20940     0.21314     0.21732     0.22162     0.22587     0.23000     0.23379    
 0.23686     0.23897     0.24010     0.24015     0.23902     0.23679     0.24056     0.23683     0.23246     0.22763    
 0.22266     0.21785     0.21337     0.20936     0.20608     0.20373     0.20228     0.20172     0.20215     0.20365    
 0.20611     0.20936     0.21333     0.21791     0.22279     0.22766     0.23238     0.23679     0.24060     0.24348    
 0.24529     0.24596     0.24537     0.24350     0.24715     0.24348     0.23901     0.23393     0.22850     0.22308    
 0.21789     0.21311     0.20898     0.20578     0.20365     0.20255     0.20253     0.20364     0.20586     0.20904    
 0.21305     0.21781     0.22310     0.22857     0.23393     0.23900     0.24352     0.24717     0.24972     0.25108    
 0.25113     0.24978     0.25316     0.24974     0.24532     0.24012     0.23441     0.22851     0.22273     0.21730    
 0.21242     0.20837     0.20539     0.20359     0.20299     0.20363     0.20550     0.20848     0.21242     0.21719    
 0.22264     0.22848     0.23441     0.24013     0.24536     0.24980     0.25316     0.25526     0.25601     0.25531    
 0.25825     0.25528     0.25110     0.24595     0.24010     0.23387     0.22762     0.22163     0.21614     0.21138    
 0.20760     0.20500     0.20366     0.20366     0.20502     0.20765     0.21141     0.21611     0.22158     0.22759    
 0.23385     0.24007     0.24594     0.25114     0.25532     0.25824     0.25976     0.25977     0.26212     0.25977    
 0.25602     0.25112     0.24533     0.23897     0.23238     0.22591     0.21987     0.21452     0.21008     0.20675    
 0.20466     0.20393     0.20460     0.20667     0.21003     0.21452     0.21992     0.22598     0.23242     0.23895    
 0.24528     0.25109     0.25602     0.25977     0.26212     0.26292     0.26455     0.26292     0.25976     0.25529    
 0.24978     0.24352     0.23683     0.23005     0.22355     0.21764     0.21260     0.20863     0.20588     0.20445    
 0.20441     0.20579     0.20854     0.21257     0.21768     0.22364     0.23014     0.23686     0.24350     0.24974    
 0.25527     0.25976     0.26292     0.26455     0.27887     0.27799     0.27545     0.27138     0.26604     0.25974    
 0.25283     0.24562     0.23845     0.23170     0.22575     0.22087     0.21725     0.21502     0.21428     0.21504    
 0.21725     0.22086     0.22576     0.23173     0.23845     0.24560     0.25282     0.25976     0.26604     0.27136    
 0.27544     0.27800     0.27800     0.27799     0.27616     0.27262     0.26758     0.26133     0.25429     0.24681    
 0.23922     0.23187     0.22514     0.21938     0.21484     0.21172     0.21016     0.21021     0.21182     0.21491    
 0.21941     0.22512     0.23179     0.23912     0.24676     0.25433     0.26139     0.26759     0.27261     0.27617    
 0.27546     0.27641     0.27543     0.27262     0.26812     0.26219     0.25520     0.24759     0.23975     0.23200    
 0.22472     0.21825     0.21288     0.20885     0.20637     0.20557     0.20644     0.20892     0.21291     0.21824    
 0.22468     0.23193     0.23968     0.24761     0.25526     0.26222     0.26811     0.27263     0.27140     0.27336    
 0.27333     0.27137     0.26761     0.26224     0.25556     0.24803     0.24006     0.23204     0.22435     0.21734    
 0.21133     0.20651     0.20314     0.20141     0.20141     0.20312     0.20645     0.21128     0.21737     0.22440    
 0.23206     0.24008     0.24807     0.25558     0.26219     0.26758     0.26604     0.26900     0.26998     0.26895    
 0.26604     0.26140     0.25529     0.24809     0.24024     0.23213     0.22413     0.21666     0.21009     0.20464    
 0.20050     0.19789     0.19701     0.19787     0.20039     0.20452     0.21009     0.21678     0.22423     0.23215    
 0.24024     0.24809     0.25524     0.26133     0.25970     0.26358     0.26557     0.26553     0.26353     0.25973    
 0.25432     0.24764     0.24015     0.23221     0.22416     0.21638     0.20932     0.20328     0.19845     0.19505    
 0.19332     0.19335     0.19506     0.19837     0.20323     0.20938     0.21646     0.22414     0.23215     0.24014    
 0.24765     0.25427     0.25275     0.25740     0.26035     0.26131     0.26028     0.25738     0.25278     0.24674    
 0.23970     0.23212     0.22429     0.21649     0.20912     0.20261     0.19717     0.19302     0.19043     0.18962    
 0.19056     0.19309     0.19715     0.20261     0.20916     0.21642     0.22416     0.23209     0.23978     0.24678    
 0.24555     0.25079     0.25456     0.25649     0.25644     0.25452     0.25084     0.24557     0.23907     0.23188    
 0.22439     0.21680     0.20942     0.20265     0.19680     0.19203     0.18862     0.18690     0.18700     0.18876    
 0.19205     0.19676     0.20267     0.20940     0.21668     0.22432     0.23199     0.23920     0.23845     0.24408    
 0.24849     0.25129     0.25219     0.25122     0.24853     0.24421     0.23845     0.23174     0.22461     0.21732    
 0.21009     0.20328     0.19724     0.19211     0.18809     0.18553     0.18472     0.18563     0.18809     0.19201    
 0.19722     0.20336     0.21009     0.21725     0.22466     0.23188     0.23178     0.23762     0.24247     0.24597    
 0.24775     0.24767     0.24591     0.24257     0.23776     0.23176     0.22511     0.21820     0.21124     0.20451    
 0.19839     0.19312     0.18878     0.18561     0.18398     0.18401     0.18560     0.18863     0.19302     0.19849    
 0.20464     0.21123     0.21817     0.22518     0.22587     0.23174     0.23680     0.24081     0.24335     0.24414    
 0.24321     0.24077     0.23691     0.23179     0.22582     0.21946     0.21292     0.20643     0.20034     0.19500    
 0.19052     0.18701     0.18477     0.18405     0.18482     0.18694     0.19038     0.19502     0.20050     0.20648    
 0.21283     0.21942     0.22095     0.22670     0.23180     0.23607     0.23919     0.24078     0.24069     0.23907    
 0.23608     0.23183     0.22663     0.22091     0.21498     0.20896     0.20311     0.19781     0.19328     0.18959    
 0.18694     0.18561     0.18570     0.18704     0.18955     0.19324     0.19790     0.20317     0.20885     0.21486    
 0.21725     0.22270     0.22768     0.23200     0.23545     0.23768     0.23839     0.23759     0.23545     0.23206    
 0.22762     0.22255     0.21725     0.21185     0.20648     0.20144     0.19701     0.19331     0.19042     0.18861    
 0.18809     0.18878     0.19050     0.19326     0.19701     0.20149     0.20642     0.21170     0.21495     0.21990    
 0.22462     0.22882     0.23237     0.23499     0.23636     0.23632     0.23500     0.23250     0.22890     0.22451    
 0.21978     0.21499     0.21020     0.20560     0.20147     0.19795     0.19507     0.19298     0.19195     0.19203    
 0.19309     0.19502     0.19787     0.20150     0.20564     0.21013     0.21418     0.21845     0.22272     0.22667    
 0.23013     0.23293     0.23474     0.23530     0.23467     0.23299     0.23029     0.22671     0.22263     0.21842    
 0.21423     0.21013     0.20638     0.20318     0.20055     0.19847     0.19714     0.19673     0.19720     0.19841    
 0.20040     0.20316     0.20649     0.21018     0.21496     0.21843     0.22207     0.22559     0.22879     0.23156    
 0.23364     0.23468     0.23458     0.23352     0.23161     0.22889     0.22557     0.22203     0.21850     0.21499    
 0.21168     0.20881     0.20650     0.20466     0.20331     0.20264     0.20268     0.20331     0.20452     0.20642    
 0.20892     0.21181     0.21725     0.21982     0.22268     0.22560     0.22835     0.23085     0.23298     0.23438    
 0.23476     0.23419     0.23288     0.23090     0.22835     0.22553     0.22273     0.21996     0.21725     0.21479    
 0.21282     0.21128     0.21009     0.20937     0.20920     0.20947     0.21009     0.21119     0.21286     0.21493    
 0.22094     0.22260     0.22454     0.22670     0.22883     0.23082     0.23268     0.23420     0.23497     0.23487    
 0.23407     0.23272     0.23087     0.22873     0.22662     0.22466     0.22274     0.22090     0.21937     0.21821    
 0.21731     0.21666     0.21640     0.21651     0.21679     0.21728     0.21817     0.21945     0.22588     0.22666    
 0.22762     0.22887     0.23024     0.23155     0.23284     0.23408     0.23498     0.23525     0.23492     0.23416    
 0.23300     0.23154     0.23007     0.22883     0.22774     0.22670     0.22580     0.22519     0.22473     0.22433    
 0.22409     0.22412     0.22425     0.22437     0.22462     0.22516     0.23181     0.23179     0.23179     0.23201    
 0.23248     0.23301     0.23356     0.23421     0.23486     0.23521     0.23517     0.23487     0.23439     0.23368    
 0.23290     0.23234     0.23205     0.23184     0.23170     0.23175     0.23193     0.23203     0.23203     0.23209    
 0.23217     0.23211     0.23191     0.23180     0.23845     0.23772     0.23686     0.23604     0.23545     0.23506    
 0.23476     0.23465     0.23476     0.23489     0.23486     0.23477     0.23476     0.23477     0.23477     0.23496    
 0.23545     0.23612     0.23681     0.23757     0.23845     0.23925     0.23977     0.24007     0.24024     0.24016    
 0.23972     0.23909     0.24553     0.24415     0.24254     0.24077     0.23909     0.23763     0.23636     0.23534    
 0.23470     0.23437     0.23415     0.23404     0.23420     0.23467     0.23537     0.23632     0.23762     0.23921    
 0.24084     0.24243     0.24404     0.24558     0.24681     0.24761     0.24806     0.24812     0.24766     0.24673    
 0.25275     0.25081     0.24853     0.24595     0.24326     0.24070     0.23835     0.23629     0.23469     0.23364    
 0.23304     0.23277     0.23290     0.23356     0.23471     0.23629     0.23831     0.24076     0.24339     0.24598    
 0.24845     0.25078     0.25279     0.25428     0.25521     0.25559     0.25530     0.25431     0.25972     0.25739    
 0.25455     0.25127     0.24773     0.24416     0.24074     0.23759     0.23490     0.23288     0.23159     0.23095    
 0.23092     0.23159     0.23297     0.23496     0.23754     0.24067     0.24418     0.24778     0.25127     0.25454    
 0.25742     0.25973     0.26132     0.26217     0.26223     0.26139     0.26604     0.26355     0.26031     0.25646    
 0.25219     0.24773     0.24334     0.23919     0.23545     0.23236     0.23012     0.22878     0.22835     0.22883    
 0.23023     0.23247     0.23545     0.23909     0.24325     0.24771     0.25219     0.25647     0.26035     0.26360    
 0.26604     0.26756     0.26810     0.26759     0.27138     0.26897     0.26555     0.26130     0.25644     0.25122    
 0.24594     0.24085     0.23616     0.23209     0.22886     0.22663     0.22550     0.22551     0.22666     0.22890    
 0.23211     0.23613     0.24080     0.24591     0.25120     0.25642     0.26130     0.26558     0.26900     0.27139    
 0.27262     0.27262     0.27545     0.27334     0.26998     0.26556     0.26031     0.25451     0.24845     0.24247    
 0.23686     0.23188     0.22775     0.22463     0.22267     0.22199     0.22263     0.22455     0.22768     0.23187    
 0.23691     0.24254     0.24849     0.25450     0.26028     0.26553     0.26998     0.27336     0.27546     0.27617    
 0.27800     0.27641     0.27335     0.26899     0.26358     0.25742     0.25082     0.24409     0.23760     0.23170    
 0.22667     0.22269     0.21992     0.21849     0.21846     0.21984     0.22259     0.22662     0.23175     0.23770    
 0.24417     0.25084     0.25741     0.26355     0.26895     0.27333     0.27642     0.27801     0.32024     0.31925    
 0.31639     0.31177     0.30562     0.29830     0.29022     0.28173     0.27323     0.26522     0.25817     0.25239    
 0.24809     0.24545     0.24459     0.24548     0.24809     0.25236     0.25819     0.26527     0.27323     0.28169    
 0.29022     0.29834     0.30562     0.31172     0.31636     0.31926     0.31926     0.31924     0.31707     0.31287    
 0.30681     0.29923     0.29061     0.28139     0.27198     0.26283     0.25446     0.24732     0.24171     0.23785    
 0.23593     0.23600     0.23797     0.24177     0.24734     0.25446     0.26276     0.27186     0.28133     0.29066    
 0.29930     0.30681     0.31284     0.31709     0.31640     0.31757     0.31635     0.31286     0.30723     0.29973    
 0.29084     0.28108     0.27095     0.26091     0.25146     0.24310     0.23620     0.23103     0.22786     0.22684    
 0.22795     0.23110     0.23620     0.24309     0.25143     0.26083     0.27088     0.28110     0.29092     0.29977    
 0.30721     0.31287     0.31179     0.31433     0.31429     0.31174     0.30683     0.29979     0.29098     0.28096    
 0.27030     0.25952     0.24915     0.23973     0.23168     0.22529     0.22084     0.21858     0.21859     0.22084    
 0.22522     0.23162     0.23976     0.24921     0.25954     0.27031     0.28101     0.29100     0.29974     0.30680    
 0.30562     0.30963     0.31096     0.30957     0.30562     0.29930     0.29094     0.28103     0.27016     0.25887    
 0.24774     0.23735     0.22824     0.22073     0.21508     0.21157     0.21039     0.21155     0.21498     0.22061    
 0.22824     0.23747     0.24784     0.25889     0.27016     0.28103     0.29088     0.29922     0.29826     0.30371    
 0.30651     0.30647     0.30367     0.29830     0.29064     0.28114     0.27039     0.25896     0.24737     0.23620    
 0.22609     0.21751     0.21071     0.20598     0.20359     0.20361     0.20599     0.21064     0.21746     0.22617    
 0.23629     0.24735     0.25890     0.27039     0.28114     0.29059     0.29014     0.29691     0.30118     0.30259    
 0.30111     0.29690     0.29017     0.28130     0.27090     0.25960     0.24791     0.23631     0.22545     0.21589    
 0.20801     0.20207     0.19841     0.19724     0.19853     0.20214     0.20799     0.21590     0.22548     0.23625    
 0.24777     0.25957     0.27099     0.28135     0.28167     0.28959     0.29522     0.29811     0.29806     0.29518    
 0.28963     0.28167     0.27181     0.26078     0.24920     0.23750     0.22621     0.21594     0.20715     0.20013    
 0.19520     0.19273     0.19282     0.19534     0.20015     0.20712     0.21596     0.22618     0.23737     0.24912    
 0.26089     0.27194     0.27323     0.28209     0.28893     0.29323     0.29464     0.29316     0.28896     0.28221    
 0.27323     0.26270     0.25135     0.23970     0.22824     0.21752     0.20807     0.20021     0.19421     0.19045    
 0.18923     0.19054     0.19421     0.20012     0.20806     0.21759     0.22824     0.23964     0.25139     0.26282    
 0.26530     0.27483     0.28263     0.28819     0.29101     0.29094     0.28812     0.28273     0.27497     0.26530    
 0.25444     0.24304     0.23158     0.22059     0.21066     0.20217     0.19536     0.19053     0.18805     0.18808    
 0.19051     0.19522     0.20207     0.21075     0.22072     0.23159     0.24302     0.25450     0.25828     0.26821    
 0.27668     0.28325     0.28738     0.28870     0.28724     0.28321     0.27678     0.26827     0.25825     0.24740    
 0.23622     0.22520     0.21493     0.20594     0.19849     0.19283     0.18928     0.18812     0.18932     0.19276    
 0.19836     0.20595     0.21507     0.22525     0.23615     0.24737     0.25247     0.26255     0.27141     0.27868    
 0.28388     0.28653     0.28645     0.28376     0.27868     0.27143     0.26247     0.25243     0.24185     0.23114    
 0.22082     0.21149     0.20355     0.19721     0.19276     0.19052     0.19060     0.19285     0.19718     0.20351    
 0.21156     0.22087     0.23104     0.24174     0.24809     0.25804     0.26707     0.27474     0.28069     0.28445    
 0.28569     0.28438     0.28069     0.27478     0.26699     0.25789     0.24809     0.23799     0.22798     0.21861    
 0.21039     0.20357     0.19840     0.19520     0.19421     0.19535     0.19848     0.20353     0.21039     0.21866    
 0.22791     0.23785     0.24538     0.25490     0.26382     0.27163     0.27801     0.28258     0.28492     0.28489    
 0.28259     0.27814     0.27170     0.26370     0.25478     0.24543     0.23598     0.22688     0.21864     0.21162    
 0.20600     0.20204     0.20005     0.20014     0.20214     0.20596     0.21155     0.21868     0.22691     0.23590    
 0.24449     0.25328     0.26180     0.26950     0.27603     0.28108     0.28426     0.28528     0.28420     0.28115    
 0.27620     0.26955     0.26171     0.25325     0.24454     0.23591     0.22788     0.22089     0.21513     0.21072    
 0.20797     0.20709     0.20804     0.21067     0.21498     0.22087     0.22800     0.23596     0.24541     0.25326    
 0.26112     0.26844     0.27483     0.28006     0.28380     0.28566     0.28556     0.28367     0.28012     0.27494    
 0.26842     0.26108     0.25333     0.24544     0.23782     0.23100     0.22528     0.22074     0.21753     0.21592    
 0.21597     0.21754     0.22060     0.22518     0.23111     0.23796     0.24809     0.25482     0.26177     0.26846    
 0.27444     0.27952     0.28350     0.28600     0.28674     0.28580     0.28339     0.27957     0.27444     0.26838    
 0.26181     0.25497     0.24809     0.24166     0.23613     0.23163     0.22824     0.22614     0.22552     0.22626    
 0.22824     0.23153     0.23616     0.24180     0.25244     0.25793     0.26374     0.26955     0.27489     0.27950    
 0.28331     0.28611     0.28752     0.28741     0.28599     0.28336     0.27955     0.27477     0.26946     0.26386    
 0.25808     0.25240     0.24731     0.24307     0.23971     0.23735     0.23622     0.23634     0.23749     0.23967    
 0.24301     0.24739     0.25830     0.26249     0.26698     0.27167     0.27615     0.28006     0.28335     0.28599    
 0.28771     0.28824     0.28764     0.28608     0.28353     0.28004     0.27596     0.27163     0.26713     0.26254    
 0.25821     0.25451     0.25148     0.24914     0.24770     0.24733     0.24787     0.24918     0.25137     0.25449    
 0.26535     0.26828     0.27140     0.27474     0.27812     0.28117     0.28371     0.28582     0.28740     0.28819    
 0.28814     0.28741     0.28601     0.28385     0.28105     0.27798     0.27479     0.27146     0.26817     0.26527    
 0.26289     0.26094     0.25951     0.25883     0.25892     0.25958     0.26081     0.26276     0.27323     0.27495    
 0.27674     0.27865     0.28069     0.28264     0.28429     0.28564     0.28674     0.28743     0.28757     0.28730    
 0.28674     0.28576     0.28430     0.28253     0.28069     0.27874     0.27669     0.27478     0.27323     0.27199    
 0.27097     0.27031     0.27016     0.27040     0.27091     0.27183     0.28162     0.28215     0.28270     0.28321    
 0.28378     0.28441     0.28493     0.28532     0.28569     0.28599     0.28607     0.28595     0.28581     0.28566    
 0.28536     0.28489     0.28440     0.28390     0.28328     0.28259     0.28204     0.28169     0.28138     0.28111    
 0.28100     0.28107     0.28116     0.28129     0.29014     0.28959     0.28895     0.28815     0.28729     0.28646    
 0.28565     0.28485     0.28421     0.28381     0.28357     0.28340     0.28342     0.28372     0.28424     0.28486    
 0.28561     0.28651     0.28742     0.28819     0.28888     0.28958     0.29019     0.29060     0.29086     0.29101    
 0.29096     0.29063     0.29830     0.29691     0.29521     0.29320     0.29099     0.28872     0.28650     0.28437    
 0.28248     0.28103     0.28010     0.27962     0.27960     0.28010     0.28112     0.28255     0.28432     0.28643    
 0.28874     0.29105     0.29321     0.29520     0.29694     0.29830     0.29922     0.29972     0.29977     0.29929    
 0.30562     0.30370     0.30116     0.29809     0.29464     0.29100     0.28737     0.28388     0.28069     0.27800    
 0.27601     0.27482     0.27444     0.27488     0.27613     0.27810     0.28069     0.28379     0.28728     0.29097    
 0.29464     0.29809     0.30118     0.30374     0.30562     0.30678     0.30719     0.30681     0.31173     0.30958    
 0.30649     0.30259     0.29807     0.29316     0.28815     0.28328     0.27877     0.27483     0.27167     0.26946    
 0.26834     0.26836     0.26950     0.27170     0.27483     0.27874     0.28324     0.28812     0.29314     0.29805    
 0.30259     0.30651     0.30962     0.31177     0.31286     0.31284     0.31637     0.31429     0.31095     0.30649    
 0.30114     0.29517     0.28889     0.28262     0.27673     0.27150     0.26714     0.26383     0.26175     0.26104    
 0.26172     0.26375     0.26705     0.27148     0.27679     0.28269     0.28891     0.29516     0.30112     0.30647    
 0.31094     0.31432     0.31641     0.31710     0.31927     0.31758     0.31431     0.30961     0.30370     0.29693    
 0.28961     0.28210     0.27480     0.26816     0.26251     0.25804     0.25492     0.25332     0.25330     0.25485    
 0.25793     0.26246     0.26823     0.27492     0.28216     0.28962     0.29693     0.30369     0.30956     0.31427    
 0.31759     0.31928     0.39458     0.39333     0.38969     0.38379     0.37587     0.36641     0.35594     0.34493    
 0.33393     0.32360     0.31456     0.30720     0.30174     0.29840     0.29731     0.29844     0.30174     0.30716    
 0.31459     0.32368     0.33393     0.34486     0.35593     0.36647     0.37587     0.38371     0.38965     0.39334    
 0.39333     0.39330     0.39049     0.38501     0.37704     0.36702     0.35556     0.34327     0.33071     0.31852    
 0.30743     0.29801     0.29064     0.28558     0.28307     0.28314     0.28571     0.29069     0.29802     0.30744    
 0.31847     0.33057     0.34319     0.35562     0.36711     0.37703     0.38496     0.39051     0.38970     0.39125    
 0.38963     0.38498     0.37745     0.36737     0.35533     0.34206     0.32822     0.31450     0.30163     0.29029    
 0.28097     0.27403     0.26979     0.26842     0.26990     0.27410     0.28096     0.29027     0.30161     0.31442    
 0.32813     0.34207     0.35543     0.36741     0.37743     0.38500     0.38380     0.38725     0.38719     0.38374    
 0.37706     0.36743     0.35532     0.34148     0.32668     0.31167     0.29725     0.28418     0.27306     0.26429    