C                                       
   1.00000000000000     
     2.468570    0.000000    0.000000
    -1.234285    2.137844    0.000000
     0.000000    0.000000    8.840790
   C 
     4
Direct
  0.000000  0.000000  0.250000
  0.000000  0.000000  0.750000
  0.333333  0.666667  0.250000
  0.666667  0.333333  0.750000
 
   28   28  100
 0.26537853145E+00 0.26454734708E+00 0.26210995245E+00 0.25822952493E+00 0.25315556794E+00
 0.24718695218E+00 0.24063721772E+00 0.23382417309E+00 0.22707904106E+00 0.22074514825E+00
 0.21514820558E+00 0.21055596581E+00 0.20715835260E+00 0.20507539045E+00 0.20437379742E+00
 0.20507539045E+00 0.20715835260E+00 0.21055596581E+00 0.21514820558E+00 0.22074514825E+00
 0.22707904106E+00 0.23382417309E+00 0.24063721772E+00 0.24718695218E+00 0.25315556794E+00
 0.25822952493E+00 0.26210995245E+00 0.26454734708E+00 0.26455060217E+00 0.26454904754E+00
 0.26291623207E+00 0.25975729667E+00 0.25527091193E+00 0.24974063937E+00 0.24349637706E+00
 0.23686210264E+00 0.23014115278E+00 0.22364080629E+00 0.21768156689E+00 0.21256586926E+00
 0.20854097277E+00 0.20578573150E+00 0.20440913572E+00 0.20444842795E+00 0.20587812236E+00
 0.20863009759E+00 0.21260187141E+00 0.21764485380E+00 0.22355115880E+00 0.23005203781E+00
 0.23682594848E+00 0.24351962360E+00 0.24978291380E+00 0.25529468890E+00 0.25976197613E+00
 0.26291771948E+00 0.26212156082E+00 0.26291948716E+00 0.26211576291E+00 0.25977161719E+00
 0.25602186257E+00 0.25108763985E+00 0.24528238623E+00 0.23895487446E+00 0.23242470565E+00
 0.22598259147E+00 0.21992005824E+00 0.21452119501E+00 0.21003470632E+00 0.20667130207E+00
 0.20460267119E+00 0.20393042795E+00 0.20466434848E+00 0.20674659370E+00 0.21008020445E+00
 0.21452184396E+00 0.21987456243E+00 0.22590975356E+00 0.23237523359E+00 0.23896783210E+00
 0.24533187857E+00 0.25111560134E+00 0.25601604960E+00 0.25976523122E+00 0.25824552848E+00
 0.25977004514E+00 0.25975561364E+00 0.25823741499E+00 0.25531523303E+00 0.25113557394E+00
 0.24594300788E+00 0.24007081218E+00 0.23385427574E+00 0.22759264528E+00 0.22158208174E+00
 0.21611114998E+00 0.21140965837E+00 0.20765379045E+00 0.20501878043E+00 0.20366431807E+00
 0.20366322405E+00 0.20499544138E+00 0.20760176105E+00 0.21138053717E+00 0.21614085946E+00
 0.22163100977E+00 0.22761658825E+00 0.23387126596E+00 0.24010068453E+00 0.24595094971E+00
 0.25109959779E+00 0.25528194043E+00 0.25315556794E+00 0.25530562270E+00 0.25601025420E+00
 0.25526126362E+00 0.25315553461E+00 0.24980121261E+00 0.24536394334E+00 0.24012561547E+00
 0.23440696371E+00 0.22848429291E+00 0.22263736915E+00 0.21719069188E+00 0.21242062819E+00
 0.20848359051E+00 0.20549964211E+00 0.20362825987E+00 0.20299002946E+00 0.20359093785E+00
 0.20539246214E+00 0.20836967065E+00 0.21242062164E+00 0.21730086386E+00 0.22273236066E+00
 0.22850621194E+00 0.23440692620E+00 0.24012264683E+00 0.24532027019E+00 0.24974169285E+00
 0.24714704551E+00 0.24978380113E+00 0.25112754652E+00 0.25107966371E+00 0.24972334008E+00
 0.24716704330E+00 0.24351800356E+00 0.23900070237E+00 0.23393219310E+00 0.22856511305E+00
 0.22309534397E+00 0.21780864209E+00 0.21304991603E+00 0.20903880135E+00 0.20586312107E+00
 0.20364156876E+00 0.20252698169E+00 0.20255312290E+00 0.20364550755E+00 0.20578330208E+00
 0.20898192903E+00 0.21310996533E+00 0.21788780476E+00 0.22307537865E+00 0.22850427112E+00
 0.23392717618E+00 0.23900773876E+00 0.24347646184E+00 0.24056149262E+00 0.24349963215E+00
 0.24536971971E+00 0.24595901144E+00 0.24528821824E+00 0.24347809689E+00 0.24059939133E+00
 0.23679468040E+00 0.23238099697E+00 0.22766448292E+00 0.22278946198E+00 0.21790718190E+00
 0.21332984560E+00 0.20935911677E+00 0.20611037404E+00 0.20365133210E+00 0.20214957845E+00
 0.20172036713E+00 0.20228240263E+00 0.20372728174E+00 0.20608474716E+00 0.20936222801E+00
 0.21336767355E+00 0.21784789809E+00 0.22265663556E+00 0.22763259180E+00 0.23246256707E+00
 0.23682920357E+00 0.23375838833E+00 0.23679306279E+00 0.23902065921E+00 0.24015260049E+00
 0.24009779657E+00 0.23897482429E+00 0.23686046516E+00 0.23379126750E+00 0.23000070560E+00
 0.22586982792E+00 0.22162301759E+00 0.21732117012E+00 0.21314306792E+00 0.20939820732E+00
 0.20625660104E+00 0.20373344394E+00 0.20194205799E+00 0.20108682635E+00 0.20119189214E+00
 0.20210083025E+00 0.20375661043E+00 0.20622372280E+00 0.20942801276E+00 0.21313584342E+00
 0.21719711325E+00 0.22154922146E+00 0.22597553832E+00 0.23012107765E+00 0.22707904106E+00
 0.23003199307E+00 0.23241309728E+00 0.23394417680E+00 0.23440696371E+00 0.23386619516E+00
 0.23245672208E+00 0.23017239497E+00 0.22707905093E+00 0.22350962916E+00 0.21981167845E+00
 0.21609355380E+00 0.21242058522E+00 0.20903785495E+00 0.20617267928E+00 0.20382551986E+00
 0.20197956655E+00 0.20081357502E+00 0.20048772995E+00 0.20091882747E+00 0.20197954830E+00
 0.20371649057E+00 0.20616047226E+00 0.20912774031E+00 0.21242062164E+00 0.21601895129E+00
 0.21986295406E+00 0.22365380833E+00 0.22082500735E+00 0.22356420228E+00 0.22590273237E+00
 0.22765650083E+00 0.22852618615E+00 0.22844534728E+00 0.22758462381E+00 0.22601547178E+00
 0.22369539288E+00 0.22078509645E+00 0.21764323746E+00 0.21448254832E+00 0.21133544991E+00
 0.20835264173E+00 0.20580326389E+00 0.20376330170E+00 0.20212102069E+00 0.20090516507E+00
 0.20030104597E+00 0.20034097643E+00 0.20089278195E+00 0.20195518639E+00 0.20364742264E+00
 0.20590306785E+00 0.20848749560E+00 0.21131668162E+00 0.21444198486E+00 0.21772145781E+00
 0.21526239364E+00 0.21768482198E+00 0.21981747855E+00 0.22159808530E+00 0.22275155721E+00
 0.22305543730E+00 0.22259954882E+00 0.22155723284E+00 0.21992586651E+00 0.21772309656E+00
 0.21520527548E+00 0.21264278763E+00 0.21008603029E+00 0.20757378722E+00 0.20534240871E+00
 0.20358956262E+00 0.20224453619E+00 0.20119827180E+00 0.20054480984E+00 0.20038090507E+00
 0.20060191801E+00 0.20112610738E+00 0.20209248947E+00 0.20360560088E+00 0.20550665020E+00
 0.20761776461E+00 0.20997762477E+00 0.21260512650E+00 0.21063453965E+00 0.21264118801E+00
 0.21444262117E+00 0.21604857970E+00 0.21730723158E+00 0.21792712260E+00 0.21782860806E+00
 0.21717681152E+00 0.21606622302E+00 0.21448126306E+00 0.21256421379E+00 0.21059522533E+00
 0.20868479616E+00 0.20678262872E+00 0.20498747816E+00 0.20353596617E+00 0.20248008147E+00
 0.20168105016E+00 0.20111969795E+00 0.20090645033E+00 0.20099805348E+00 0.20123118495E+00
 0.20164179328E+00 0.20243464238E+00 0.20363154583E+00 0.20505801167E+00 0.20666801986E+00
 0.20855477884E+00 0.20715835260E+00 0.20864385457E+00 0.21002309794E+00 0.21128751792E+00
 0.21242062819E+00 0.21319595959E+00 0.21340557070E+00 0.21310271578E+00 0.21242058522E+00
 0.21136172770E+00 0.20997184224E+00 0.20850008542E+00 0.20715835119E+00 0.20591247772E+00
 0.20470860278E+00 0.20369121722E+00 0.20299002535E+00 0.20250764452E+00 0.20213034813E+00
 0.20193502469E+00 0.20197956655E+00 0.20211397964E+00 0.20222530355E+00 0.20246075147E+00
 0.20299002946E+00 0.20375335739E+00 0.20465274010E+00 0.20576873038E+00 0.20500339029E+00
 0.20586098675E+00 0.20674330224E+00 0.20756578673E+00 0.20837362449E+00 0.20907089485E+00
 0.20943111694E+00 0.20939199191E+00 0.20907175940E+00 0.20850450099E+00 0.20764578739E+00
 0.20663205472E+00 0.20573434067E+00 0.20503940667E+00 0.20444676612E+00 0.20396637095E+00
 0.20372535395E+00 0.20368654018E+00 0.20366156278E+00 0.20361144243E+00 0.20364761508E+00
 0.20373965935E+00 0.20372333226E+00 0.20360947526E+00 0.20359422557E+00 0.20375232179E+00
 0.20400242812E+00 0.20437317270E+00 0.20427365476E+00 0.20441239081E+00 0.20471442223E+00
 0.20503478399E+00 0.20539949945E+00 0.20582321440E+00 0.20613479160E+00 0.20619081628E+00
 0.20607253661E+00 0.20588312299E+00 0.20555673943E+00 0.20506605200E+00 0.20460846012E+00
 0.20437476596E+00 0.20432373923E+00 0.20437476596E+00 0.20460846012E+00 0.20506605200E+00
 0.20555673943E+00 0.20588312299E+00 0.20607253661E+00 0.20619081628E+00 0.20613479160E+00
 0.20582321440E+00 0.20539949945E+00 0.20503478399E+00 0.20471442223E+00 0.20441239081E+00
 0.20500339029E+00 0.20437317270E+00 0.20400242812E+00 0.20375232179E+00 0.20359422557E+00
 0.20360947526E+00 0.20372333226E+00 0.20373965935E+00 0.20364761508E+00 0.20361144243E+00
 0.20366156278E+00 0.20368654018E+00 0.20372535395E+00 0.20396637095E+00 0.20444676612E+00
 0.20503940667E+00 0.20573434067E+00 0.20663205472E+00 0.20764578739E+00 0.20850450099E+00
 0.20907175940E+00 0.20939199191E+00 0.20943111694E+00 0.20907089485E+00 0.20837362449E+00
 0.20756578673E+00 0.20674330224E+00 0.20586098675E+00 0.20715835260E+00 0.20576873038E+00
 0.20465274010E+00 0.20375335739E+00 0.20299002946E+00 0.20246075147E+00 0.20222530355E+00
 0.20211397964E+00 0.20197956655E+00 0.20193502469E+00 0.20213034813E+00 0.20250764452E+00
 0.20299002535E+00 0.20369121722E+00 0.20470860278E+00 0.20591247772E+00 0.20715835119E+00
 0.20850008542E+00 0.20997184224E+00 0.21136172770E+00 0.21242058522E+00 0.21310271578E+00
 0.21340557070E+00 0.21319595959E+00 0.21242062819E+00 0.21128751792E+00 0.21002309794E+00
 0.20864385457E+00 0.21063453965E+00 0.20855477884E+00 0.20666801986E+00 0.20505801167E+00
 0.20363154583E+00 0.20243464238E+00 0.20164179328E+00 0.20123118495E+00 0.20099805348E+00
 0.20090645033E+00 0.20111969795E+00 0.20168105016E+00 0.20248008147E+00 0.20353596617E+00
 0.20498747816E+00 0.20678262872E+00 0.20868479616E+00 0.21059522533E+00 0.21256421379E+00
 0.21448126306E+00 0.21606622302E+00 0.21717681152E+00 0.21782860806E+00 0.21792712260E+00
 0.21730723158E+00 0.21604857970E+00 0.21444262117E+00 0.21264118801E+00 0.21526239364E+00
 0.21260512650E+00 0.20997762477E+00 0.20761776461E+00 0.20550665020E+00 0.20360560088E+00
 0.20209248947E+00 0.20112610738E+00 0.20060191801E+00 0.20038090507E+00 0.20054480984E+00
 0.20119827180E+00 0.20224453619E+00 0.20358956262E+00 0.20534240871E+00 0.20757378722E+00
 0.21008603029E+00 0.21264278763E+00 0.21520527548E+00 0.21772309656E+00 0.21992586651E+00
 0.22155723284E+00 0.22259954882E+00 0.22305543730E+00 0.22275155721E+00 0.22159808530E+00
 0.21981747855E+00 0.21768482198E+00 0.22082500735E+00 0.21772145781E+00 0.21444198486E+00
 0.21131668162E+00 0.20848749560E+00 0.20590306785E+00 0.20364742264E+00 0.20195518639E+00
 0.20089278195E+00 0.20034097643E+00 0.20030104597E+00 0.20090516507E+00 0.20212102069E+00
 0.20376330170E+00 0.20580326389E+00 0.20835264173E+00 0.21133544991E+00 0.21448254832E+00
 0.21764323746E+00 0.22078509645E+00 0.22369539288E+00 0.22601547178E+00 0.22758462381E+00
 0.22844534728E+00 0.22852618615E+00 0.22765650083E+00 0.22590273237E+00 0.22356420228E+00
 0.22707904106E+00 0.22365380833E+00 0.21986295406E+00 0.21601895129E+00 0.21242062164E+00
 0.20912774031E+00 0.20616047226E+00 0.20371649057E+00 0.20197954830E+00 0.20091882747E+00
 0.20048772995E+00 0.20081357502E+00 0.20197956655E+00 0.20382551986E+00 0.20617267928E+00
 0.20903785495E+00 0.21242058522E+00 0.21609355380E+00 0.21981167845E+00 0.22350962916E+00
 0.22707905093E+00 0.23017239497E+00 0.23245672208E+00 0.23386619516E+00 0.23440696371E+00
 0.23394417680E+00 0.23241309728E+00 0.23003199307E+00 0.23375838833E+00 0.23012107765E+00
 0.22597553832E+00 0.22154922146E+00 0.21719711325E+00 0.21313584342E+00 0.20942801276E+00
 0.20622372280E+00 0.20375661043E+00 0.20210083025E+00 0.20119189214E+00 0.20108682635E+00
 0.20194205799E+00 0.20373344394E+00 0.20625660104E+00 0.20939820732E+00 0.21314306792E+00
 0.21732117012E+00 0.22162301759E+00 0.22586982792E+00 0.23000070560E+00 0.23379126750E+00
 0.23686046516E+00 0.23897482429E+00 0.24009779657E+00 0.24015260049E+00 0.23902065921E+00
 0.23679306279E+00 0.24056149262E+00 0.23682920357E+00 0.23246256707E+00 0.22763259180E+00
 0.22265663556E+00 0.21784789809E+00 0.21336767355E+00 0.20936222801E+00 0.20608474716E+00
 0.20372728174E+00 0.20228240263E+00 0.20172036713E+00 0.20214957845E+00 0.20365133210E+00
 0.20611037404E+00 0.20935911677E+00 0.21332984560E+00 0.21790718190E+00 0.22278946198E+00
 0.22766448292E+00 0.23238099697E+00 0.23679468040E+00 0.24059939133E+00 0.24347809689E+00
 0.24528821824E+00 0.24595901144E+00 0.24536971971E+00 0.24349963215E+00 0.24714704551E+00
 0.24347646184E+00 0.23900773876E+00 0.23392717618E+00 0.22850427112E+00 0.22307537865E+00
 0.21788780476E+00 0.21310996533E+00 0.20898192903E+00 0.20578330208E+00 0.20364550755E+00
 0.20255312290E+00 0.20252698169E+00 0.20364156876E+00 0.20586312107E+00 0.20903880135E+00
 0.21304991603E+00 0.21780864209E+00 0.22309534397E+00 0.22856511305E+00 0.23393219310E+00
 0.23900070237E+00 0.24351800356E+00 0.24716704330E+00 0.24972334008E+00 0.25107966371E+00
 0.25112754652E+00 0.24978380113E+00 0.25315556794E+00 0.24974169285E+00 0.24532027019E+00
 0.24012264683E+00 0.23440692620E+00 0.22850621194E+00 0.22273236066E+00 0.21730086386E+00
 0.21242062164E+00 0.20836967065E+00 0.20539246214E+00 0.20359093785E+00 0.20299002946E+00
 0.20362825987E+00 0.20549964211E+00 0.20848359051E+00 0.21242062819E+00 0.21719069188E+00
 0.22263736915E+00 0.22848429291E+00 0.23440696371E+00 0.24012561547E+00 0.24536394334E+00
 0.24980121261E+00 0.25315553461E+00 0.25526126362E+00 0.25601025420E+00 0.25530562270E+00
 0.25824552848E+00 0.25528194043E+00 0.25109959779E+00 0.24595094971E+00 0.24010068453E+00
 0.23387126596E+00 0.22761658825E+00 0.22163100977E+00 0.21614085946E+00 0.21138053717E+00
 0.20760176105E+00 0.20499544138E+00 0.20366322405E+00 0.20366431807E+00 0.20501878043E+00
 0.20765379045E+00 0.21140965837E+00 0.21611114998E+00 0.22158208174E+00 0.22759264528E+00
 0.23385427574E+00 0.24007081218E+00 0.24594300788E+00 0.25113557394E+00 0.25531523303E+00
 0.25823741499E+00 0.25975561364E+00 0.25977004514E+00 0.26212156082E+00 0.25976523122E+00
 0.25601604960E+00 0.25111560134E+00 0.24533187857E+00 0.23896783210E+00 0.23237523359E+00
 0.22590975356E+00 0.21987456243E+00 0.21452184396E+00 0.21008020445E+00 0.20674659370E+00
 0.20466434848E+00 0.20393042795E+00 0.20460267119E+00 0.20667130207E+00 0.21003470632E+00
 0.21452119501E+00 0.21992005824E+00 0.22598259147E+00 0.23242470565E+00 0.23895487446E+00
 0.24528238623E+00 0.25108763985E+00 0.25602186257E+00 0.25977161719E+00 0.26211576291E+00
 0.26291948716E+00 0.26455060217E+00 0.26291771948E+00 0.25976197613E+00 0.25529468890E+00
 0.24978291380E+00 0.24351962360E+00 0.23682594848E+00 0.23005203781E+00 0.22355115880E+00
 0.21764485380E+00 0.21260187141E+00 0.20863009759E+00 0.20587812236E+00 0.20444842795E+00
 0.20440913572E+00 0.20578573150E+00 0.20854097277E+00 0.21256586926E+00 0.21768156689E+00
 0.22364080629E+00 0.23014115278E+00 0.23686210264E+00 0.24349637706E+00 0.24974063937E+00
 0.25527091193E+00 0.25975729667E+00 0.26291623207E+00 0.26454904754E+00 0.27886746736E+00
 0.27799423877E+00 0.27545045272E+00 0.27138441095E+00 0.26603717401E+00 0.25973699513E+00
 0.25282661418E+00 0.24561953554E+00 0.23844884463E+00 0.23170221433E+00 0.22575181924E+00
 0.22087105725E+00 0.21724586076E+00 0.21501983594E+00 0.21428047263E+00 0.21503510610E+00
 0.21724587045E+00 0.22085965247E+00 0.22576206491E+00 0.23172723638E+00 0.23844885620E+00
 0.24559723440E+00 0.25282378176E+00 0.25975582242E+00 0.26603714756E+00 0.27135904974E+00
 0.27543598909E+00 0.27800002606E+00 0.27799750567E+00 0.27798686371E+00 0.27615836917E+00
 0.27262343327E+00 0.26757636057E+00 0.26133373673E+00 0.25429060768E+00 0.24681382164E+00
 0.23922440516E+00 0.23187120910E+00 0.22514130468E+00 0.21937784677E+00 0.21483680361E+00
 0.21171738507E+00 0.21016208148E+00 0.21021213272E+00 0.21181979731E+00 0.21491429152E+00
 0.21940516113E+00 0.22512011124E+00 0.23179418710E+00 0.23912094482E+00 0.24676337578E+00
 0.25432638619E+00 0.26139057229E+00 0.26758886956E+00 0.27261240833E+00 0.27616590760E+00
 0.27546208288E+00 0.27640927523E+00 0.27543456683E+00 0.27262420130E+00 0.26812472776E+00
 0.26218649729E+00 0.25519781353E+00 0.24759237580E+00 0.23974613048E+00 0.23199990112E+00
 0.22471742190E+00 0.21825047234E+00 0.21288214649E+00 0.20884951511E+00 0.20636708156E+00
 0.20556550639E+00 0.20644334163E+00 0.20892303278E+00 0.21290815730E+00 0.21824431811E+00
 0.22468116016E+00 0.23192554467E+00 0.23968350276E+00 0.24760709701E+00 0.25526329215E+00
 0.26221777095E+00 0.26811168118E+00 0.27262759850E+00 0.27140043099E+00 0.27335983385E+00
 0.27333180678E+00 0.27137205504E+00 0.26761227426E+00 0.26223718055E+00 0.25556390567E+00
 0.24802917324E+00 0.24006390299E+00 0.23204408907E+00 0.22434644128E+00 0.21734342912E+00
 0.21132648225E+00 0.20651486962E+00 0.20313650695E+00 0.20140573404E+00 0.20141434119E+00
 0.20312394022E+00 0.20645389509E+00 0.21128273667E+00 0.21737313742E+00 0.22440079317E+00
 0.23206408218E+00 0.24007724588E+00 0.24806588873E+00 0.25557572653E+00 0.26219410026E+00
 0.26758038905E+00 0.26603714756E+00 0.26900301813E+00 0.26998092023E+00 0.26895011701E+00
 0.26603714209E+00 0.26140237883E+00 0.25528959580E+00 0.24808935079E+00 0.24024127687E+00
 0.23212869526E+00 0.22412933679E+00 0.21666392240E+00 0.21009321015E+00 0.20464129643E+00
 0.20049658642E+00 0.19789470964E+00 0.19701300647E+00 0.19786802568E+00 0.20039430707E+00
 0.20452322587E+00 0.21009319721E+00 0.21678151486E+00 0.22422824681E+00 0.23214855138E+00
 0.24024123462E+00 0.24808659565E+00 0.25523719836E+00 0.26133100452E+00 0.25969698230E+00
 0.26358119098E+00 0.26557452678E+00 0.26552921829E+00 0.26352858908E+00 0.25972758686E+00
 0.25431881249E+00 0.24764235121E+00 0.24014665292E+00 0.23221437161E+00 0.22416068961E+00
 0.21637971554E+00 0.20931514817E+00 0.20327866769E+00 0.19845152552E+00 0.19505146256E+00
 0.19332154571E+00 0.19334899904E+00 0.19505775188E+00 0.19837401962E+00 0.20322626680E+00
 0.20938202901E+00 0.21646335376E+00 0.22414014602E+00 0.23215179943E+00 0.24014204612E+00
 0.24764822657E+00 0.25427006646E+00 0.25275072304E+00 0.25740003506E+00 0.26034679650E+00
 0.26130879339E+00 0.26027516073E+00 0.25738497007E+00 0.25278446193E+00 0.24673571432E+00
 0.23969650615E+00 0.23211953228E+00 0.22429057708E+00 0.21648535077E+00 0.20912207780E+00
 0.20260638166E+00 0.19717206065E+00 0.19301667775E+00 0.19043066350E+00 0.18962353142E+00
 0.19055580928E+00 0.19308789807E+00 0.19714919745E+00 0.20261301679E+00 0.20915856711E+00
 0.21642222420E+00 0.22415518810E+00 0.23208775286E+00 0.23978265527E+00 0.24677856595E+00
 0.24555362082E+00 0.25078759930E+00 0.25455755611E+00 0.25648814512E+00 0.25643845884E+00
 0.25451562054E+00 0.25084455954E+00 0.24557081748E+00 0.23907094243E+00 0.23188189441E+00
 0.22438898954E+00 0.21680187659E+00 0.20941791784E+00 0.20265027311E+00 0.19679508770E+00
 0.19202549204E+00 0.18861589689E+00 0.18690455513E+00 0.18700208791E+00 0.18876347684E+00
 0.19204757187E+00 0.19676448073E+00 0.20267434093E+00 0.20940222359E+00 0.21667581312E+00
 0.22431579835E+00 0.23198686880E+00 0.23919745912E+00 0.23844885620E+00 0.24407931194E+00
 0.24849224570E+00 0.25129019282E+00 0.25218757364E+00 0.25121673413E+00 0.24853014491E+00
 0.24420727367E+00 0.23844887383E+00 0.23174296970E+00 0.22460581766E+00 0.21731879072E+00
 0.21009317036E+00 0.20328409002E+00 0.19723587181E+00 0.19211307475E+00 0.18809255891E+00
 0.18552974588E+00 0.18471540340E+00 0.18562665008E+00 0.18809255356E+00 0.19201184237E+00
 0.19722225617E+00 0.20336445000E+00 0.21009319721E+00 0.21725241309E+00 0.22465506638E+00
 0.23187605057E+00 0.23178224351E+00 0.23762187034E+00 0.24246615662E+00 0.24597382211E+00
 0.24774920576E+00 0.24767292779E+00 0.24590532548E+00 0.24257415304E+00 0.23775653240E+00
 0.23176205319E+00 0.22511251399E+00 0.21820177975E+00 0.21123809130E+00 0.20450810808E+00
 0.19839460925E+00 0.19312278494E+00 0.18878273552E+00 0.18561433589E+00 0.18397707670E+00
 0.18401344120E+00 0.18560231412E+00 0.18862943502E+00 0.19301518039E+00 0.19848786687E+00
 0.20464032116E+00 0.21123368967E+00 0.21817160043E+00 0.22517763876E+00 0.22586623985E+00
 0.23174258668E+00 0.23680484231E+00 0.24081019106E+00 0.24335469153E+00 0.24413771736E+00
 0.24321120324E+00 0.24077076656E+00 0.23691042773E+00 0.23179054812E+00 0.22582436421E+00
 0.21945526066E+00 0.21292120681E+00 0.20642844959E+00 0.20034416835E+00 0.19500237785E+00
 0.19051929740E+00 0.18700762735E+00 0.18476746922E+00 0.18404979439E+00 0.18481957835E+00
 0.18694076377E+00 0.19037857561E+00 0.19501662232E+00 0.20049848201E+00 0.20647756578E+00
 0.21283007614E+00 0.21942035130E+00 0.22094979173E+00 0.22670237620E+00 0.23180091935E+00
 0.23606584606E+00 0.23919002670E+00 0.24077765942E+00 0.24068579968E+00 0.23906646592E+00
 0.23607645275E+00 0.23182965869E+00 0.22662559649E+00 0.22091102389E+00 0.21497835213E+00
 0.20896035394E+00 0.20311212587E+00 0.19781099424E+00 0.19327852134E+00 0.18958729327E+00
 0.18693519865E+00 0.18561462488E+00 0.18569922821E+00 0.18703830796E+00 0.18955110273E+00
 0.19323544078E+00 0.19789607677E+00 0.20317269823E+00 0.20885060409E+00 0.21485705300E+00
 0.21724587045E+00 0.22269877538E+00 0.22768329018E+00 0.23199812161E+00 0.23544965399E+00
 0.23767867158E+00 0.23838998712E+00 0.23759467600E+00 0.23544962384E+00 0.23205845986E+00
 0.22761957359E+00 0.22255215052E+00 0.21724586690E+00 0.21184948773E+00 0.20648045642E+00
 0.20143733689E+00 0.19701298359E+00 0.19330588613E+00 0.19041512245E+00 0.18861022436E+00
 0.18809255891E+00 0.18877701451E+00 0.19050372222E+00 0.19326288179E+00 0.19701300647E+00
 0.20149046399E+00 0.20641724784E+00 0.21170481366E+00 0.21494770460E+00 0.21990273895E+00
 0.22461875430E+00 0.22882261213E+00 0.23236805192E+00 0.23499445080E+00 0.23635594648E+00
 0.23632152374E+00 0.23500180522E+00 0.23249729284E+00 0.22889652960E+00 0.22450655947E+00
 0.21978093173E+00 0.21498894498E+00 0.21020451893E+00 0.20560032309E+00 0.20146743943E+00
 0.19795311388E+00 0.19507206879E+00 0.19298037631E+00 0.19194633017E+00 0.19203385885E+00
 0.19308636869E+00 0.19502290118E+00 0.19786939630E+00 0.20149909567E+00 0.20563519733E+00
 0.21012725161E+00 0.21418013481E+00 0.21845445112E+00 0.22272416544E+00 0.22666927674E+00
 0.23012736725E+00 0.23292643090E+00 0.23473549362E+00 0.23530362368E+00 0.23467453924E+00
 0.23298954728E+00 0.23029003815E+00 0.22670757795E+00 0.22262523838E+00 0.21842150056E+00
 0.21423031437E+00 0.21013482799E+00 0.20638011861E+00 0.20318455456E+00 0.20054868110E+00
 0.19846732693E+00 0.19713553399E+00 0.19673376357E+00 0.19719933975E+00 0.19841039596E+00
 0.20039624861E+00 0.20316017763E+00 0.20649351316E+00 0.21017727165E+00 0.21496295511E+00
 0.21842583731E+00 0.22206859032E+00 0.22558891436E+00 0.22878554460E+00 0.23155564332E+00
 0.23363697849E+00 0.23467625576E+00 0.23457931699E+00 0.23351869863E+00 0.23161078579E+00
 0.22888678815E+00 0.22556657801E+00 0.22203130083E+00 0.21849609195E+00 0.21499384543E+00
 0.21167510286E+00 0.20881333385E+00 0.20650304099E+00 0.20465541716E+00 0.20330655227E+00
 0.20263700586E+00 0.20268097305E+00 0.20331212953E+00 0.20452232744E+00 0.20641660755E+00
 0.20892410650E+00 0.21180716663E+00 0.21724586076E+00 0.21982013262E+00 0.22267684828E+00
 0.22559967568E+00 0.22834644753E+00 0.23084843633E+00 0.23297999414E+00 0.23437950883E+00
 0.23475790059E+00 0.23418766030E+00 0.23287828997E+00 0.23089940251E+00 0.22834646411E+00
 0.22552826823E+00 0.22272557620E+00 0.21996352384E+00 0.21724586690E+00 0.21479302227E+00
 0.21281703187E+00 0.21127827478E+00 0.21009317036E+00 0.20936634082E+00 0.20919513652E+00
 0.20946917890E+00 0.21009321015E+00 0.21118991040E+00 0.21285605271E+00 0.21493451460E+00
 0.22093838184E+00 0.22259769354E+00 0.22454140108E+00 0.22670339625E+00 0.22883365308E+00
 0.23082352094E+00 0.23268231714E+00 0.23419512476E+00 0.23497170308E+00 0.23487273949E+00
 0.23407484421E+00 0.23272485381E+00 0.23087153650E+00 0.22872716161E+00 0.22662254279E+00
 0.22466128557E+00 0.22273697915E+00 0.22089841743E+00 0.21937022550E+00 0.21821409722E+00
 0.21730677223E+00 0.21665551729E+00 0.21640031561E+00 0.21650588026E+00 0.21679333515E+00
 0.21728206465E+00 0.21816543719E+00 0.21944769176E+00 0.22587648571E+00 0.22665747457E+00
 0.22761811338E+00 0.22886583899E+00 0.23023986405E+00 0.23155409741E+00 0.23283896572E+00
 0.23408210193E+00 0.23498428289E+00 0.23525245334E+00 0.23492196451E+00 0.23415987937E+00
 0.23300295644E+00 0.23153619440E+00 0.23006503386E+00 0.22882683866E+00 0.22774424007E+00
 0.22669802519E+00 0.22580387267E+00 0.22518523168E+00 0.22473048413E+00 0.22432766540E+00
 0.22409285189E+00 0.22411956005E+00 0.22425400327E+00 0.22437011196E+00 0.22461884920E+00
 0.22515649485E+00 0.23180725348E+00 0.23179489751E+00 0.23179345538E+00 0.23201273952E+00
 0.23247826684E+00 0.23300896991E+00 0.23355602798E+00 0.23420888089E+00 0.23485766280E+00
 0.23520878393E+00 0.23516512475E+00 0.23487044606E+00 0.23438789006E+00 0.23368061861E+00
 0.23290221868E+00 0.23234027331E+00 0.23204599497E+00 0.23184455859E+00 0.23170321953E+00
 0.23174744228E+00 0.23192735193E+00 0.23203054714E+00 0.23203220369E+00 0.23208591346E+00
 0.23217164625E+00 0.23210774698E+00 0.23191257253E+00 0.23179907068E+00 0.23844884463E+00
 0.23772447071E+00 0.23685975828E+00 0.23603608609E+00 0.23544967736E+00 0.23505608944E+00
 0.23476403368E+00 0.23465183837E+00 0.23475788949E+00 0.23488552589E+00 0.23485961642E+00
 0.23477147624E+00 0.23475790059E+00 0.23476910006E+00 0.23477487705E+00 0.23495630448E+00
 0.23544962384E+00 0.23611921574E+00 0.23680625279E+00 0.23756862303E+00 0.23844887383E+00
 0.23924745825E+00 0.23976956487E+00 0.24007259079E+00 0.24024127687E+00 0.24015542399E+00
 0.23972003670E+00 0.23909402331E+00 0.24553130994E+00 0.24415440257E+00 0.24253777371E+00
 0.24076658139E+00 0.23908688590E+00 0.23762519807E+00 0.23635635398E+00 0.23533882182E+00
 0.23469651502E+00 0.23436672452E+00 0.23415261696E+00 0.23403957457E+00 0.23419609263E+00
 0.23467217940E+00 0.23537413872E+00 0.23632069965E+00 0.23762395444E+00 0.23920940965E+00
 0.24084128159E+00 0.24243092031E+00 0.24403970500E+00 0.24558000837E+00 0.24680622936E+00
 0.24761296573E+00 0.24806321336E+00 0.24812335896E+00 0.24766289083E+00 0.24672811643E+00
 0.25274791635E+00 0.25080958606E+00 0.24852876554E+00 0.24594590031E+00 0.24326327130E+00
 0.24070255223E+00 0.23835060757E+00 0.23628583894E+00 0.23468533585E+00 0.23364335657E+00
 0.23304233002E+00 0.23276735229E+00 0.23290129631E+00 0.23356238710E+00 0.23471385363E+00
 0.23628625554E+00 0.23831128930E+00 0.24075822838E+00 0.24339407601E+00 0.24597804317E+00
 0.24845144709E+00 0.25078323540E+00 0.25279010103E+00 0.25427768293E+00 0.25521089797E+00
 0.25558757636E+00 0.25530260513E+00 0.25430579785E+00 0.25971586451E+00 0.25738931913E+00
 0.25454632401E+00 0.25126948982E+00 0.24772511632E+00 0.24415707355E+00 0.24074139340E+00
 0.23759352421E+00 0.23490205658E+00 0.23288280014E+00 0.23159293858E+00 0.23094739726E+00
 0.23092249632E+00 0.23159139354E+00 0.23296527207E+00 0.23496360103E+00 0.23754003692E+00
 0.24066638955E+00 0.24417655853E+00 0.24778448665E+00 0.25127494660E+00 0.25453810350E+00
 0.25742381125E+00 0.25972529848E+00 0.26131916005E+00 0.26217466869E+00 0.26222533846E+00
 0.26138776807E+00 0.26603717401E+00 0.26355350809E+00 0.26031310385E+00 0.25646489856E+00
 0.25218754752E+00 0.24773226009E+00 0.24334196912E+00 0.23918909834E+00 0.23544967736E+00
 0.23235924085E+00 0.23011519758E+00 0.22878031532E+00 0.22834644753E+00 0.22882843860E+00
 0.23022770507E+00 0.23246944026E+00 0.23544965399E+00 0.23908590060E+00 0.24325051659E+00
 0.24770818547E+00 0.25218757364E+00 0.25646808558E+00 0.26034821945E+00 0.26360141604E+00
 0.26603714209E+00 0.26755690617E+00 0.26809863397E+00 0.26759286779E+00 0.27137509292E+00
 0.26896799668E+00 0.26554974983E+00 0.26130453302E+00 0.25644159368E+00 0.25122225612E+00
 0.24593750778E+00 0.24084548895E+00 0.23615967030E+00 0.23209167559E+00 0.22885744647E+00
 0.22662675362E+00 0.22549516703E+00 0.22550593044E+00 0.22666088421E+00 0.22890069560E+00
 0.23210630762E+00 0.23612988223E+00 0.24080179853E+00 0.24590949695E+00 0.25120153170E+00
 0.25641842845E+00 0.26130040086E+00 0.26557874037E+00 0.26900288714E+00 0.27138733320E+00
 0.27261580877E+00 0.27261663562E+00 0.27544761187E+00 0.27333929784E+00 0.26997948332E+00
 0.26555814235E+00 0.26031026300E+00 0.25450748284E+00 0.24845290857E+00 0.24246725868E+00
 0.23685691743E+00 0.23188078397E+00 0.22774562070E+00 0.22462643623E+00 0.22267400744E+00
 0.22199399893E+00 0.22262666847E+00 0.22454906336E+00 0.22768044933E+00 0.23187334804E+00
 0.23691185810E+00 0.24253887431E+00 0.24848940486E+00 0.25449623197E+00 0.26027657862E+00
 0.26553339723E+00 0.26997807938E+00 0.27335547747E+00 0.27546350146E+00 0.27617355933E+00
 0.27800327806E+00 0.27641354214E+00 0.27334796910E+00 0.26898506048E+00 0.26357653422E+00
 0.25741948903E+00 0.25081825733E+00 0.24409255880E+00 0.23760060776E+00 0.23169889765E+00
 0.22666614584E+00 0.22269139996E+00 0.21992436252E+00 0.21849175744E+00 0.21846312238E+00
 0.21984171927E+00 0.22259031063E+00 0.22662127624E+00 0.23175125795E+00 0.23770325929E+00
 0.24416769432E+00 0.25084025217E+00 0.25740870633E+00 0.26354873269E+00 0.26894996926E+00
 0.27332749189E+00 0.27641794650E+00 0.27801072515E+00 0.32023757287E+00 0.31925279753E+00
 0.31638931553E+00 0.31176938903E+00 0.30561844628E+00 0.29830197809E+00 0.29022077227E+00
 0.28173269056E+00 0.27323410432E+00 0.26522059329E+00 0.25816562265E+00 0.25238742102E+00
 0.24809080164E+00 0.24545343393E+00 0.24458683229E+00 0.24548412939E+00 0.24809081957E+00
 0.25236450100E+00 0.25818623551E+00 0.26527090273E+00 0.27323411366E+00 0.28168783967E+00
 0.29021508071E+00 0.29833984727E+00 0.30561840566E+00 0.31171840063E+00 0.31636023206E+00
 0.31926443089E+00 0.31925608408E+00 0.31923621587E+00 0.31707182895E+00 0.31287007944E+00
 0.30680717554E+00 0.29922793256E+00 0.29060692900E+00 0.28139147805E+00 0.27197835429E+00
 0.26282794078E+00 0.25446309171E+00 0.24732345974E+00 0.24170870122E+00 0.23785324019E+00
 0.23593472015E+00 0.23599577212E+00 0.23796610195E+00 0.24177478110E+00 0.24734217143E+00
 0.25445745072E+00 0.26276329742E+00 0.27186001583E+00 0.28132644083E+00 0.29065545886E+00
 0.29929962421E+00 0.30680837333E+00 0.31284323584E+00 0.31708555802E+00 0.31640100545E+00