   4   4   0   0
  0.1166414E+02  0.2468570E-09  0.2468570E-09  0.8840790E-09  0.5000000E-15
  1.000000000000000E-004
  CAR 
 C                                       
     54.52593979    -20.38124039  301      2.52163694      1.00000000
    -20.381  0.0000E+00  0.0000E+00
    -20.132  0.0000E+00  0.0000E+00
    -19.882  0.0000E+00  0.0000E+00
    -19.632  0.0000E+00  0.0000E+00
    -19.382  0.0000E+00  0.0000E+00
    -19.133  0.0000E+00  0.0000E+00
    -18.883  0.0000E+00  0.0000E+00
    -18.633  0.0000E+00  0.0000E+00
    -18.384  0.0000E+00  0.0000E+00
    -18.134  0.0000E+00  0.0000E+00
    -17.884  0.0000E+00  0.0000E+00
    -17.635  0.0000E+00  0.0000E+00
    -17.385  0.0000E+00  0.0000E+00
    -17.135  0.1318E-06  0.3291E-07
    -16.886  0.1158E+00  0.2892E-01
    -16.636  0.6629E+00  0.1944E+00
    -16.386  0.6745E+00  0.3629E+00
    -16.137  0.6605E+00  0.5278E+00
    -15.887  0.5491E-01  0.5415E+00
    -15.637  0.1280E+01  0.8611E+00
    -15.387  0.6669E+00  0.1028E+01
    -15.138  0.9374E-03  0.1028E+01
    -14.888  0.9615E+00  0.1268E+01
    -14.638  0.1041E+01  0.1528E+01
    -14.389  0.2971E+00  0.1602E+01
    -14.139  0.3704E+00  0.1694E+01
    -13.889  0.1004E+01  0.1945E+01
    -13.640  0.5261E+00  0.2077E+01
    -13.390  0.1139E+01  0.2361E+01
    -13.140  0.9963E-05  0.2361E+01
    -12.891  0.6657E+00  0.2527E+01
    -12.641  0.6091E+00  0.2679E+01
    -12.391  0.1395E+01  0.3028E+01
    -12.141  0.4589E+00  0.3142E+01
    -11.892  0.8761E+00  0.3361E+01
    -11.642  0.3324E+00  0.3444E+01
    -11.392  0.1107E-01  0.3447E+01
    -11.143  0.1992E+01  0.3944E+01
    -10.893  0.2458E-03  0.3944E+01
    -10.643  0.2890E+00  0.4017E+01
    -10.394  0.4552E-01  0.4028E+01
    -10.144  0.6701E+00  0.4195E+01
     -9.894  0.1776E+01  0.4639E+01
     -9.645  0.1738E-03  0.4639E+01
     -9.395  0.8582E+00  0.4853E+01
     -9.145  0.1060E+01  0.5118E+01
     -8.895  0.2979E+00  0.5192E+01
     -8.646  0.1121E+01  0.5472E+01
     -8.396  0.0000E+00  0.5472E+01
     -8.146  0.6869E-01  0.5489E+01
     -7.897  0.2153E+01  0.6027E+01
     -7.647  0.3083E-02  0.6028E+01
     -7.397  0.3551E-15  0.6028E+01
     -7.148  0.2302E+00  0.6085E+01
     -6.898  0.3031E+01  0.6842E+01
     -6.648  0.7596E-01  0.6861E+01
     -6.399  0.3726E+00  0.6954E+01
     -6.149  0.2949E+00  0.7028E+01
     -5.899  0.1303E+01  0.7353E+01
     -5.649  0.5979E+00  0.7502E+01
     -5.400  0.1434E+01  0.7860E+01
     -5.150  0.7023E+00  0.8036E+01
     -4.900  0.1651E+01  0.8448E+01
     -4.651  0.1172E+01  0.8741E+01
     -4.401  0.7115E+00  0.8918E+01
     -4.151  0.1755E+01  0.9357E+01
     -3.902  0.2392E+01  0.9954E+01
     -3.652  0.2900E+01  0.1068E+02
     -3.402  0.1374E+01  0.1102E+02
     -3.153  0.1778E+01  0.1146E+02
     -2.903  0.1934E+00  0.1151E+02
     -2.653  0.1616E+01  0.1192E+02
     -2.404  0.2872E+01  0.1263E+02
     -2.154  0.8227E+00  0.1284E+02
     -1.904  0.5101E+00  0.1297E+02
     -1.654  0.4822E+00  0.1309E+02
     -1.405  0.2090E+01  0.1361E+02
     -1.155  0.1431E+01  0.1397E+02
     -0.905  0.7187E+00  0.1415E+02
     -0.656  0.1005E+01  0.1440E+02
     -0.406  0.5265E+00  0.1453E+02
     -0.156  0.9674E+00  0.1477E+02
      0.093  0.1906E+01  0.1525E+02
      0.343  0.7965E+00  0.1544E+02
      0.593  0.7241E-04  0.1544E+02
      0.842  0.6261E+00  0.1560E+02
      1.092  0.2357E+00  0.1566E+02
      1.342  0.1139E+01  0.1594E+02
      1.592  0.1637E-02  0.1594E+02
      1.841  0.0000E+00  0.1594E+02
      2.091  0.0000E+00  0.1594E+02
      2.341  0.2973E-03  0.1594E+02
      2.590  0.3862E+00  0.1604E+02
      2.840  0.5854E-01  0.1606E+02
      3.090  0.0000E+00  0.1606E+02
      3.339  0.0000E+00  0.1606E+02
      3.589  0.1576E-07  0.1606E+02
      3.839  0.9197E+00  0.1629E+02
      4.088  0.1091E+01  0.1656E+02
      4.338  0.3336E+00  0.1664E+02
      4.588  0.1276E+01  0.1696E+02
      4.838  0.5114E-01  0.1697E+02
      5.087  0.1081E+01  0.1724E+02
      5.337  0.1098E+01  0.1752E+02
      5.587  0.5015E+00  0.1764E+02
      5.836  0.1032E+00  0.1767E+02
      6.086  0.1178E+00  0.1770E+02
      6.336  0.1464E+01  0.1806E+02
      6.585  0.3202E+00  0.1814E+02
      6.835  0.1571E+00  0.1818E+02
      7.085  0.1608E+01  0.1858E+02
      7.334  0.4408E+00  0.1869E+02
      7.584  0.9387E+00  0.1893E+02
      7.834  0.3082E+00  0.1900E+02
      8.083  0.2556E+00  0.1907E+02
      8.333  0.5360E+00  0.1920E+02
      8.583  0.1813E+01  0.1965E+02
      8.833  0.5449E+00  0.1979E+02
      9.082  0.1034E+01  0.2005E+02
      9.332  0.4913E+00  0.2017E+02
      9.582  0.4641E+00  0.2029E+02
      9.831  0.1122E+01  0.2057E+02
     10.081  0.1630E+01  0.2098E+02
     10.331  0.1159E+01  0.2126E+02
     10.580  0.1945E+01  0.2175E+02
     10.830  0.3762E+01  0.2269E+02
     11.080  0.2442E+01  0.2330E+02
     11.329  0.2643E+01  0.2396E+02
     11.579  0.1860E+01  0.2442E+02
     11.829  0.9168E+00  0.2465E+02
     12.079  0.9943E+00  0.2490E+02
     12.328  0.1044E+01  0.2516E+02
     12.578  0.3908E+01  0.2614E+02
     12.828  0.2120E+01  0.2667E+02
     13.077  0.8467E+00  0.2688E+02
     13.327  0.2270E+01  0.2744E+02
     13.577  0.1382E+01  0.2779E+02
     13.826  0.1099E+01  0.2806E+02
     14.076  0.2678E+01  0.2873E+02
     14.326  0.6510E+00  0.2890E+02
     14.575  0.1120E+01  0.2918E+02
     14.825  0.2175E+01  0.2972E+02
     15.075  0.1741E+01  0.3015E+02
     15.325  0.2271E+01  0.3072E+02
     15.574  0.2576E+01  0.3136E+02
     15.824  0.1377E+01  0.3171E+02
     16.074  0.3628E+01  0.3261E+02
     16.323  0.2003E+01  0.3311E+02
     16.573  0.1813E+01  0.3357E+02
     16.823  0.1758E+01  0.3400E+02
     17.072  0.1637E+01  0.3441E+02
     17.322  0.1367E+01  0.3475E+02
     17.572  0.1557E+01  0.3514E+02
     17.821  0.3180E+01  0.3594E+02
     18.071  0.1311E+01  0.3626E+02
     18.321  0.1532E+01  0.3665E+02
     18.570  0.1239E+01  0.3696E+02
     18.820  0.1576E+01  0.3735E+02
     19.070  0.9990E+00  0.3760E+02
     19.320  0.1073E+01  0.3787E+02
     19.569  0.1839E+01  0.3833E+02
     19.819  0.2312E+01  0.3890E+02
     20.069  0.1278E+01  0.3922E+02
     20.318  0.1063E+01  0.3949E+02
     20.568  0.1198E+01  0.3979E+02
     20.818  0.1350E+01  0.4013E+02
     21.067  0.2364E+01  0.4072E+02
     21.317  0.2558E+01  0.4135E+02
     21.567  0.1532E+01  0.4174E+02
     21.816  0.1400E+01  0.4209E+02
     22.066  0.2086E+01  0.4261E+02
     22.316  0.1915E+01  0.4309E+02
     22.566  0.1276E+01  0.4340E+02
     22.815  0.8878E+00  0.4363E+02
     23.065  0.1981E+01  0.4412E+02
     23.315  0.2268E+01  0.4469E+02
     23.564  0.1213E+01  0.4499E+02
     23.814  0.1345E+01  0.4533E+02
     24.064  0.1887E+01  0.4580E+02
     24.313  0.1445E+01  0.4616E+02
     24.563  0.1422E+01  0.4651E+02
     24.813  0.1681E+01  0.4693E+02
     25.062  0.2181E+01  0.4748E+02
     25.312  0.2313E+01  0.4805E+02
     25.562  0.3178E+01  0.4885E+02
     25.812  0.2005E+01  0.4935E+02
     26.061  0.1958E+01  0.4984E+02
     26.311  0.2504E+01  0.5046E+02
     26.561  0.2695E+01  0.5114E+02
     26.810  0.3369E+01  0.5198E+02
     27.060  0.1848E+01  0.5244E+02
     27.310  0.2422E+01  0.5304E+02
     27.559  0.2331E+01  0.5362E+02
     27.809  0.1798E+01  0.5407E+02
     28.059  0.1953E+01  0.5456E+02
     28.308  0.1938E+01  0.5505E+02
     28.558  0.1772E+01  0.5549E+02
     28.808  0.1891E+01  0.5596E+02
     29.057  0.2741E+01  0.5664E+02
     29.307  0.2564E+01  0.5728E+02
     29.557  0.2037E+01  0.5779E+02
     29.807  0.1972E+01  0.5829E+02
     30.056  0.1810E+01  0.5874E+02
     30.306  0.2114E+01  0.5927E+02
     30.556  0.1387E+01  0.5961E+02
     30.805  0.1420E+01  0.5997E+02
     31.055  0.1925E+01  0.6045E+02
     31.305  0.2263E+01  0.6101E+02
     31.554  0.2059E+01  0.6153E+02
     31.804  0.2185E+01  0.6207E+02
     32.054  0.1500E+01  0.6245E+02
     32.303  0.1657E+01  0.6286E+02
     32.553  0.1503E+01  0.6324E+02
     32.803  0.1585E+01  0.6363E+02
     33.053  0.1390E+01  0.6398E+02
     33.302  0.1730E+01  0.6441E+02
     33.552  0.1454E+01  0.6477E+02
     33.802  0.1499E+01  0.6515E+02
     34.051  0.1944E+01  0.6563E+02
     34.301  0.1672E+01  0.6605E+02
     34.551  0.2205E+01  0.6660E+02
     34.800  0.1418E+01  0.6696E+02
     35.050  0.1803E+01  0.6741E+02
     35.300  0.1546E+01  0.6779E+02
     35.549  0.1655E+01  0.6820E+02
     35.799  0.1738E+01  0.6864E+02
     36.049  0.1106E+01  0.6892E+02
     36.299  0.1522E+01  0.6930E+02
     36.548  0.1794E+01  0.6974E+02
     36.798  0.1387E+01  0.7009E+02
     37.048  0.1876E+01  0.7056E+02
     37.297  0.2055E+01  0.7107E+02
     37.547  0.2567E+01  0.7171E+02
     37.797  0.1346E+01  0.7205E+02
     38.046  0.2462E+01  0.7266E+02
     38.296  0.1947E+01  0.7315E+02
     38.546  0.2270E+01  0.7372E+02
     38.795  0.2446E+01  0.7433E+02
     39.045  0.2167E+01  0.7487E+02
     39.295  0.2090E+01  0.7539E+02
     39.545  0.1863E+01  0.7586E+02
     39.794  0.2366E+01  0.7645E+02
     40.044  0.1612E+01  0.7685E+02
     40.294  0.1566E+01  0.7724E+02
     40.543  0.1265E+01  0.7756E+02
     40.793  0.1189E+01  0.7785E+02
     41.043  0.1836E+01  0.7831E+02
     41.292  0.2538E+01  0.7894E+02
     41.542  0.2939E+01  0.7968E+02
     41.792  0.2798E+01  0.8038E+02
     42.041  0.1855E+01  0.8084E+02
     42.291  0.1880E+01  0.8131E+02
     42.541  0.2040E+01  0.8182E+02
     42.790  0.2164E+01  0.8236E+02
     43.040  0.2170E+01  0.8290E+02
     43.290  0.2375E+01  0.8349E+02
     43.540  0.2902E+01  0.8422E+02
     43.789  0.2953E+01  0.8496E+02
     44.039  0.2117E+01  0.8548E+02
     44.289  0.2141E+01  0.8602E+02
     44.538  0.3022E+01  0.8677E+02
     44.788  0.2522E+01  0.8740E+02
     45.038  0.2292E+01  0.8798E+02
     45.287  0.1767E+01  0.8842E+02
     45.537  0.2756E+01  0.8910E+02
     45.787  0.2764E+01  0.8979E+02
     46.036  0.2577E+01  0.9044E+02
     46.286  0.1702E+01  0.9086E+02
     46.536  0.1826E+01  0.9132E+02
     46.786  0.2340E+01  0.9190E+02
     47.035  0.2178E+01  0.9245E+02
     47.285  0.1976E+01  0.9294E+02
     47.535  0.1296E+01  0.9326E+02
     47.784  0.1341E+01  0.9360E+02
     48.034  0.2173E+01  0.9414E+02
     48.284  0.9673E+00  0.9438E+02
     48.533  0.1712E+01  0.9481E+02
     48.783  0.1415E+01  0.9516E+02
     49.033  0.6461E+00  0.9533E+02
     49.282  0.5961E+00  0.9547E+02
     49.532  0.3801E+00  0.9557E+02
     49.782  0.5436E+00  0.9570E+02
     50.032  0.2012E+00  0.9575E+02
     50.281  0.4843E+00  0.9588E+02
     50.531  0.3181E+00  0.9596E+02
     50.781  0.1073E+00  0.9598E+02
     51.030  0.5484E-01  0.9600E+02
     51.280  0.1744E-01  0.9600E+02
     51.530  0.0000E+00  0.9600E+02
     51.779  0.0000E+00  0.9600E+02
     52.029  0.0000E+00  0.9600E+02
     52.279  0.0000E+00  0.9600E+02
     52.528  0.0000E+00  0.9600E+02
     52.778  0.0000E+00  0.9600E+02
     53.028  0.0000E+00  0.9600E+02
     53.277  0.0000E+00  0.9600E+02
     53.527  0.0000E+00  0.9600E+02
     53.777  0.0000E+00  0.9600E+02
     54.027  0.0000E+00  0.9600E+02
     54.276  0.0000E+00  0.9600E+02
     54.526  0.0000E+00  0.9600E+02
