    4    4    1    1
  0.1166414E+02  0.2468570E-09  0.2468570E-09  0.8840790E-09  0.5000000E-15
  1.000000000000000E-004
  CAR 
 C                                       
     16    133     48
 
  0.0000000E+00  0.0000000E+00  0.0000000E+00  0.5787037E-03
      1        -16.976369   1.000000
      2        -16.951451   1.000000
      3         -5.255727   1.000000
      4         -4.878755   1.000000
      5         -0.506352   1.000000
      6         -0.506350   1.000000
      7         -0.505701   1.000000
      8         -0.505700   1.000000
      9          5.531851   0.000000
     10          8.522870   0.000000
     11         10.822903   0.000000
     12         10.822917   0.000000
     13         10.825832   0.000000
     14         10.825847   0.000000
     15         12.173656   0.000000
     16         13.894354   0.000000
     17         13.909998   0.000000
     18         14.945364   0.000000
     19         14.961722   0.000000
     20         18.108966   0.000000
     21         24.938940   0.000000
     22         24.946066   0.000000
     23         25.034115   0.000000
     24         29.890527   0.000000
     25         30.435945   0.000000
     26         30.435946   0.000000
     27         30.833255   0.000000
     28         30.833256   0.000000
     29         33.861741   0.000000
     30         33.861742   0.000000
     31         34.386831   0.000000
     32         34.648233   0.000000
     33         34.648234   0.000000
     34         36.952442   0.000000
     35         36.952447   0.000000
     36         37.321320   0.000000
     37         37.321332   0.000000
     38         38.140882   0.000000
     39         38.745879   0.000000
     40         39.485393   0.000000
     41         41.217515   0.000000
     42         41.485011   0.000000
     43         41.835987   0.000000
     44         41.836008   0.000000
     45         42.068868   0.000000
     46         42.148846   0.000000
     47         42.148899   0.000000
     48         43.873103   0.000000
 
  0.8333333E-01  0.3523994E-17  0.0000000E+00  0.3472222E-02
      1        -16.812394   1.000000
      2        -16.787848   1.000000
      3         -5.058850   1.000000
      4         -4.685331   1.000000
      5         -1.157492   1.000000
      6         -1.156017   1.000000
      7         -0.843886   1.000000
      8         -0.842764   1.000000
      9          5.746807   0.000000
     10          8.724440   0.000000
     11         10.864905   0.000000
     12         10.894471   0.000000
     13         11.515863   0.000000
     14         11.518680   0.000000
     15         12.399774   0.000000
     16         13.332068   0.000000
     17         13.354267   0.000000
     18         15.249128   0.000000
     19         15.268681   0.000000
     20         18.223837   0.000000
     21         25.121721   0.000000
     22         25.444287   0.000000
     23         25.557390   0.000000
     24         28.120139   0.000000
     25         28.961376   0.000000
     26         28.977931   0.000000
     27         29.902093   0.000000
     28         30.964800   0.000000
     29         32.460227   0.000000
     30         32.885859   0.000000
     31         34.702611   0.000000
     32         35.377813   0.000000
     33         35.473712   0.000000
     34         36.145041   0.000000
     35         36.358662   0.000000
     36         38.097211   0.000000
     37         38.342885   0.000000
     38         38.712212   0.000000
     39         39.507881   0.000000
     40         40.119619   0.000000
     41         40.176769   0.000000
     42         40.840225   0.000000
     43         41.376025   0.000000
     44         41.552684   0.000000
     45         42.013579   0.000000
     46         42.653738   0.000000
     47         43.121899   0.000000
     48         44.396987   0.000000
 
  0.1666667E+00 -0.1381040E-16  0.0000000E+00  0.3472222E-02
      1        -16.322227   1.000000
      2        -16.298903   1.000000
      3         -4.473230   1.000000
      4         -4.110549   1.000000
      5         -2.795383   1.000000
      6         -2.792059   1.000000
      7         -1.633901   1.000000
      8         -1.632199   1.000000
      9          6.392045   0.000000
     10          9.317462   0.000000
     11         10.786178   0.000000
     12         10.842775   0.000000
     13         11.817709   0.000000
     14         11.872385   0.000000
     15         13.013448   0.000000
     16         13.351826   0.000000
     17         13.354844   0.000000
     18         16.213207   0.000000
     19         16.260406   0.000000
     20         18.501930   0.000000
     21         25.148393   0.000000
     22         25.481979   0.000000
     23         26.279293   0.000000
     24         26.307112   0.000000
     25         26.937978   0.000000
     26         27.104084   0.000000
     27         28.171114   0.000000
     28         29.188888   0.000000
     29         31.694408   0.000000
     30         32.351527   0.000000
     31         32.689579   0.000000
     32         34.021526   0.000000
     33         35.304986   0.000000
     34         35.537115   0.000000
     35         36.609207   0.000000
     36         37.736374   0.000000
     37         38.169171   0.000000
     38         38.955460   0.000000
     39         39.804996   0.000000
     40         40.926316   0.000000
     41         41.222158   0.000000
     42         41.525825   0.000000
     43         43.031982   0.000000
     44         43.061384   0.000000
     45         43.607409   0.000000
     46         44.637855   0.000000
     47         45.690567   0.000000
     48         46.035388   0.000000
 
  0.2500000E+00 -0.5409365E-17  0.0000000E+00  0.3472222E-02
      1        -15.511777   1.000000
      2        -15.490093   1.000000
      3         -4.892886   1.000000
      4         -4.887083   1.000000
      5         -3.517194   1.000000
      6         -3.174449   1.000000
      7         -2.510749   1.000000
      8         -2.508665   1.000000
      9          7.464990   0.000000
     10          9.619338   0.000000
     11          9.735119   0.000000
     12         10.472519   0.000000
     13         10.504151   0.000000
     14         10.561983   0.000000
     15         13.967453   0.000000
     16         15.889940   0.000000
     17         15.894297   0.000000
     18         17.497935   0.000000
     19         17.727196   0.000000
     20         18.723938   0.000000
     21         22.643776   0.000000
     22         24.168909   0.000000
     23         24.216265   0.000000
     24         25.581926   0.000000
     25         25.999371   0.000000
     26         26.686098   0.000000
     27         28.066546   0.000000
     28         29.315768   0.000000
     29         30.087152   0.000000
     30         31.098953   0.000000
     31         31.641182   0.000000
     32         32.247779   0.000000
     33         33.859808   0.000000
     34         34.892009   0.000000
     35         36.138570   0.000000
     36         37.761675   0.000000
     37         37.854638   0.000000
     38         40.015264   0.000000
     39         40.949651   0.000000
     40         41.973895   0.000000
     41         42.117036   0.000000
     42         42.356534   0.000000
     43         43.132479   0.000000
     44         43.751277   0.000000
     45         44.498526   0.000000
     46         45.222337   0.000000
     47         46.813413   0.000000
     48         47.020211   0.000000
 
  0.3333333E+00  0.2991665E-17  0.0000000E+00  0.3472222E-02
      1        -14.393455   1.000000
      2        -14.373888   1.000000
      3         -7.094339   1.000000
      4         -7.085859   1.000000
      5         -3.241583   1.000000
      6         -3.239253   1.000000
      7         -2.238500   1.000000
      8         -1.929830   1.000000
      9          7.352651   0.000000
     10          7.487930   0.000000
     11          8.952345   0.000000
     12         10.178045   0.000000
     13         10.240166   0.000000
     14         11.735976   0.000000
     15         15.255681   0.000000
     16         17.722687   0.000000
     17         18.417383   0.000000
     18         18.711164   0.000000
     19         18.717640   0.000000
     20         19.102870   0.000000
     21         20.835387   0.000000
     22         22.405469   0.000000
     23         22.934825   0.000000
     24         24.476997   0.000000
     25         25.597058   0.000000
     26         26.040025   0.000000
     27         27.787291   0.000000
     28         28.230801   0.000000
     29         29.723375   0.000000
     30         29.926128   0.000000
     31         31.265891   0.000000
     32         31.481525   0.000000
     33         33.113963   0.000000
     34         34.848353   0.000000
     35         34.924101   0.000000
     36         36.859304   0.000000
     37         38.524614   0.000000
     38         38.942574   0.000000
     39         40.646876   0.000000
     40         40.844469   0.000000
     41         41.914931   0.000000
     42         43.127019   0.000000
     43         43.524265   0.000000
     44         43.559812   0.000000
     45         46.374395   0.000000
     46         47.389706   0.000000
     47         47.780297   0.000000
     48         48.352718   0.000000
 
  0.4166667E+00 -0.5022669E-16  0.0000000E+00  0.3472222E-02
      1        -12.999072   1.000000
      2        -12.982167   1.000000
      3         -9.191479   1.000000
      4         -9.180463   1.000000
      5         -3.712764   1.000000
      6         -3.710340   1.000000
      7         -0.790109   1.000000
      8         -0.549969   1.000000
      9          5.205193   0.000000
     10          5.383656   0.000000
     11          9.931925   0.000000
     12          9.962517   0.000000
     13         10.903325   0.000000
     14         13.395025   0.000000
     15         15.667581   0.000000
     16         16.837670   0.000000
     17         17.137937   0.000000
     18         19.501155   0.000000
     19         19.912134   0.000000
     20         21.234883   0.000000
     21         21.240120   0.000000
     22         22.230914   0.000000
     23         23.138364   0.000000
     24         23.809671   0.000000
     25         24.936985   0.000000
     26         25.295259   0.000000
     27         27.580000   0.000000
     28         27.719158   0.000000
     29         29.155968   0.000000
     30         29.439091   0.000000
     31         30.256792   0.000000
     32         30.976625   0.000000
     33         33.628636   0.000000
     34         33.820894   0.000000
     35         34.491889   0.000000
     36         36.218728   0.000000
     37         37.003945   0.000000
     38         38.575534   0.000000
     39         39.237990   0.000000
     40         39.325349   0.000000
     41         40.596945   0.000000
     42         41.339954   0.000000
     43         46.068211   0.000000
     44         46.129319   0.000000
     45         47.841646   0.000000
     46         48.041691   0.000000
     47         49.366515   0.000000
     48         50.358035   0.000000
 
  0.5000000E+00 -0.1081873E-16  0.0000000E+00  0.1736111E-02
      1        -11.740123   1.000000
      2        -11.732304   1.000000
      3        -10.685734   1.000000
      4        -10.679350   1.000000
      5         -3.874533   1.000000
      6         -3.872045   1.000000
      7          0.112393   1.000000
      8          0.221621   1.000000
      9          4.122563   0.000000
     10          4.287807   0.000000
     11          9.850608   0.000000
     12          9.887629   0.000000
     13         13.098260   0.000000
     14         13.229475   0.000000
     15         15.034603   0.000000
     16         15.532770   0.000000
     17         18.371334   0.000000
     18         18.536018   0.000000
     19         19.658413   0.000000
     20         21.973257   0.000000
     21         22.365472   0.000000
     22         22.366664   0.000000
     23         23.586663   0.000000
     24         24.053868   0.000000
     25         24.716117   0.000000
     26         24.836272   0.000000
     27         27.635503   0.000000
     28         28.037262   0.000000
     29         28.853254   0.000000
     30         29.090456   0.000000
     31         29.395857   0.000000
     32         30.612849   0.000000
     33         33.326076   0.000000
     34         34.232801   0.000000
     35         34.738819   0.000000
     36         35.561462   0.000000
     37         36.001842   0.000000
     38         37.920772   0.000000
     39         38.049365   0.000000
     40         39.462754   0.000000
     41         39.559618   0.000000
     42         41.702000   0.000000
     43         46.909144   0.000000
     44         47.586683   0.000000
     45         47.964145   0.000000
     46         48.460207   0.000000
     47         49.214949   0.000000
     48         51.121068   0.000000
 
  0.8333333E-01  0.8333333E-01  0.0000000E+00  0.3472222E-02
      1        -16.485318   1.000000
      2        -16.461563   1.000000
      3         -4.667487   1.000000
      4         -4.301103   1.000000
      5         -2.191175   1.000000
      6         -2.189652   1.000000
      7         -1.519226   1.000000
      8         -1.518233   1.000000
      9          6.177325   0.000000
     10          9.123664   0.000000
     11         11.133225   0.000000
     12         11.195829   0.000000
     13         12.310114   0.000000
     14         12.341331   0.000000
     15         12.386342   0.000000
     16         12.390335   0.000000
     17         12.828075   0.000000
     18         15.997555   0.000000
     19         16.024014   0.000000
     20         18.404464   0.000000
     21         25.372420   0.000000
     22         25.752407   0.000000
     23         26.081274   0.000000
     24         26.194793   0.000000
     25         26.518625   0.000000
     26         28.586849   0.000000
     27         29.525874   0.000000
     28         30.674340   0.000000
     29         30.994335   0.000000
     30         31.195954   0.000000
     31         32.558984   0.000000
     32         34.768801   0.000000
     33         36.455106   0.000000
     34         36.936082   0.000000
     35         37.095438   0.000000
     36         37.500884   0.000000
     37         38.212730   0.000000
     38         38.538858   0.000000
     39         38.571004   0.000000
     40         38.634550   0.000000
     41         41.313344   0.000000
     42         41.840271   0.000000
     43         43.357568   0.000000
     44         43.806645   0.000000
     45         44.068325   0.000000
     46         44.326735   0.000000
     47         44.979144   0.000000
     48         45.383091   0.000000
 
  0.1666667E+00  0.8333333E-01  0.0000000E+00  0.6944444E-02
      1        -15.835013   1.000000
      2        -15.812661   1.000000
      3         -3.900836   1.000000
      4         -3.897096   1.000000
      5         -3.895554   1.000000
      6         -3.544386   1.000000
      7         -2.514890   1.000000
      8         -2.512814   1.000000
      9          7.037899   0.000000
     10          9.881369   0.000000
     11         10.557275   0.000000
     12         10.639174   0.000000
     13         11.268769   0.000000
     14         11.339482   0.000000
     15         13.573774   0.000000
     16         13.911001   0.000000
     17         13.938281   0.000000
     18         17.572380   0.000000
     19         17.646424   0.000000
     20         18.538473   0.000000
     21         23.032516   0.000000
     22         23.816474   0.000000
     23         25.569884   0.000000
     24         25.930926   0.000000
     25         27.114257   0.000000
     26         27.395856   0.000000
     27         28.344274   0.000000
     28         28.793206   0.000000
     29         29.761222   0.000000
     30         31.715224   0.000000
     31         32.221989   0.000000
     32         33.451220   0.000000
     33         34.019052   0.000000
     34         35.302772   0.000000
     35         35.830802   0.000000
     36         36.846992   0.000000
     37         38.146813   0.000000
     38         39.855909   0.000000
     39         40.995991   0.000000
     40         41.109638   0.000000
     41         41.793822   0.000000
     42         42.772370   0.000000
     43         43.766065   0.000000
     44         44.576843   0.000000
     45         45.340262   0.000000
     46         45.621692   0.000000
     47         46.017765   0.000000
     48         46.199399   0.000000
 
  0.2500000E+00  0.8333333E-01  0.0000000E+00  0.6944444E-02
      1        -14.870483   1.000000
      2        -14.849981   1.000000
      3         -5.972645   1.000000
      4         -5.966027   1.000000
      5         -3.398946   1.000000
      6         -3.396057   1.000000
      7         -2.772202   1.000000
      8         -2.447076   1.000000
      9          8.322730   0.000000
     10          8.386391   0.000000
     11          8.476718   0.000000
     12         11.034355   0.000000
     13         11.096124   0.000000
     14         11.101944   0.000000
     15         14.697705   0.000000
     16         15.983460   0.000000
     17         16.094848   0.000000
     18         18.187295   0.000000
     19         19.170248   0.000000
     20         19.633516   0.000000
     21         20.918096   0.000000
     22         22.625548   0.000000
     23         23.093970   0.000000
     24         25.392645   0.000000
     25         26.051948   0.000000
     26         27.095460   0.000000
     27         27.103286   0.000000
     28         28.521946   0.000000
     29         29.860531   0.000000
     30         30.274121   0.000000
     31         31.476426   0.000000
     32         31.894284   0.000000
     33         34.125692   0.000000
     34         34.173673   0.000000
     35         35.452143   0.000000
     36         37.413994   0.000000
     37         38.486994   0.000000
     38         40.644361   0.000000
     39         40.823204   0.000000
     40         41.407338   0.000000
     41         41.521696   0.000000
     42         42.663260   0.000000
     43         43.793600   0.000000
     44         44.612066   0.000000
     45         45.392412   0.000000
     46         45.780428   0.000000
     47         46.849061   0.000000
     48         47.065869   0.000000
 
  0.3333333E+00  0.8333333E-01  0.0000000E+00  0.6944444E-02
      1        -13.610876   1.000000
      2        -13.592715   1.000000
      3         -8.093202   1.000000
      4         -8.083742   1.000000
      5         -4.031970   1.000000
      6         -4.028670   1.000000
      7         -1.377138   1.000000
      8         -1.097973   1.000000
      9          6.161025   0.000000
     10          6.308632   0.000000
     11         10.008055   0.000000
     12         10.757604   0.000000
     13         10.828287   0.000000
     14         12.563565   0.000000
     15         16.087489   0.000000
     16         16.709944   0.000000
     17         17.238171   0.000000
     18         18.174456   0.000000
     19         19.499679   0.000000
     20         19.790355   0.000000
     21         21.337927   0.000000
     22         21.941189   0.000000
     23         23.140095   0.000000
     24         24.311363   0.000000
     25         25.512991   0.000000
     26         26.185800   0.000000
     27         26.490815   0.000000
     28         27.515567   0.000000
     29         29.166755   0.000000
     30         29.733089   0.000000
     31         30.624569   0.000000
     32         31.827301   0.000000
     33         33.518220   0.000000
     34         33.636999   0.000000
     35         34.386225   0.000000
     36         38.282457   0.000000
     37         38.560564   0.000000
     38         38.696326   0.000000
     39         39.549382   0.000000
     40         41.181166   0.000000
     41         41.428901   0.000000
     42         43.398177   0.000000
     43         43.465731   0.000000
     44         44.582737   0.000000
     45         46.364168   0.000000
     46         46.691031   0.000000
     47         48.106019   0.000000
     48         48.227749   0.000000
 
  0.4166667E+00  0.8333333E-01  0.0000000E+00  0.6944444E-02
      1        -12.134272   1.000000
      2        -12.119853   1.000000
      3        -10.029752   1.000000
      4        -10.018513   1.000000
      5         -4.359381   1.000000
      6         -4.355912   1.000000
      7         -0.023491   1.000000
      8          0.148329   1.000000
      9          4.396809   0.000000
     10          4.557809   0.000000
     11         10.586062   0.000000
     12         10.629319   0.000000
     13         12.134053   0.000000
     14         14.195301   0.000000
     15         14.517242   0.000000
     16         15.935199   0.000000
     17         17.695576   0.000000
     18         18.776474   0.000000
     19         18.842280   0.000000
     20         21.151717   0.000000
     21         21.405829   0.000000
     22         22.152752   0.000000
     23         24.299768   0.000000
     24         24.432327   0.000000
     25         25.101778   0.000000
     26         25.694073   0.000000
     27         25.909005   0.000000
     28         27.154955   0.000000
     29         28.865821   0.000000
     30         28.923480   0.000000
     31         29.919159   0.000000
     32         31.595108   0.000000
     33         32.782436   0.000000
     34         33.685884   0.000000
     35         34.156716   0.000000
     36         36.366458   0.000000
     37         38.300170   0.000000
     38         38.561685   0.000000
     39         38.717648   0.000000
     40         39.699423   0.000000
     41         41.817197   0.000000
     42         42.184192   0.000000
     43         45.100351   0.000000
     44         45.712152   0.000000
     45         48.311427   0.000000
     46         48.659085   0.000000
     47         49.777359   0.000000
     48         50.410102   0.000000
 
  0.1666667E+00  0.1666667E+00  0.0000000E+00  0.3472222E-02
      1        -15.030529   1.000000
      2        -15.009715   1.000000
      3         -5.230699   1.000000
      4         -5.227702   1.000000
      5         -3.873116   1.000000
      6         -3.870894   1.000000
      7         -2.952671   1.000000
      8         -2.622261   1.000000
      9          8.111806   0.000000
     10          8.844878   0.000000
     11          8.905553   0.000000
     12         10.828637   0.000000
     13         12.435472   0.000000
     14         12.540983   0.000000
     15         13.999337   0.000000
     16         14.023778   0.000000
     17         14.583296   0.000000
     18         17.849352   0.000000
     19         19.721885   0.000000
     20         19.865146   0.000000
     21         20.566632   0.000000
     22         22.550698   0.000000
     23         24.461872   0.000000
     24         24.809976   0.000000
     25         25.926727   0.000000
     26         26.225978   0.000000
     27         28.114347   0.000000
     28         29.091772   0.000000
     29         29.187111   0.000000
     30         31.939275   0.000000
     31         32.308723   0.000000
     32         32.520307   0.000000
     33         33.171647   0.000000
     34         33.311307   0.000000
     35         35.165741   0.000000
     36         38.049527   0.000000
     37         39.709302   0.000000
     38         39.802524   0.000000
     39         39.978200   0.000000
     40         41.670704   0.000000
     41         42.077743   0.000000
     42         43.660788   0.000000
     43         44.313391   0.000000
     44         44.486852   0.000000
     45         45.004100   0.000000
     46         45.353642   0.000000
     47         46.077831   0.000000
     48         46.542070   0.000000
 
  0.2500000E+00  0.1666667E+00  0.0000000E+00  0.6944444E-02
      1        -13.923207   1.000000
      2        -13.904437   1.000000
      3         -6.957176   1.000000
      4         -6.950814   1.000000
      5         -4.928196   1.000000
      6         -4.924063   1.000000
      7         -1.689144   1.000000
      8         -1.392638   1.000000
      9          6.892587   0.000000
     10          6.981055   0.000000
     11          9.602133   0.000000
     12         12.013517   0.000000
     13         12.664962   0.000000
     14         12.760156   0.000000
     15         15.269453   0.000000
     16         15.549680   0.000000
     17         15.919455   0.000000
     18         16.529848   0.000000
     19         18.774415   0.000000
     20         20.362050   0.000000
     21         21.835406   0.000000
     22         22.408614   0.000000
     23         23.177662   0.000000
     24         23.966553   0.000000
     25         24.214657   0.000000
     26         25.879634   0.000000
     27         27.127928   0.000000
     28         27.880663   0.000000
     29         28.996957   0.000000
     30         30.438592   0.000000
     31         31.318576   0.000000
     32         32.134277   0.000000
     33         32.865414   0.000000
     34         33.953230   0.000000
     35         36.886782   0.000000
     36         38.574599   0.000000
     37         38.588585   0.000000
     38         39.477082   0.000000
     39         39.872849   0.000000
     40         42.160494   0.000000
     41         42.377535   0.000000
     42         42.897554   0.000000
     43         43.764639   0.000000
     44         45.052007   0.000000
     45         45.364418   0.000000
     46         46.054361   0.000000
     47         46.727712   0.000000
     48         47.462114   0.000000
 
  0.3333333E+00  0.1666667E+00  0.0000000E+00  0.6944444E-02
      1        -12.548743   1.000000
      2        -12.532692   1.000000
      3         -8.865096   1.000000
      4         -8.855301   1.000000
      5         -5.503932   1.000000
      6         -5.498685   1.000000
      7         -0.239181   1.000000
      8         -0.005583   1.000000
      9          4.972507   0.000000
     10          5.097170   0.000000
     11         11.479130   0.000000
     12         12.464806   0.000000
     13         12.566047   0.000000
     14         13.261858   0.000000
     15         15.369311   0.000000
     16         15.692837   0.000000
     17         17.148188   0.000000
     18         17.601216   0.000000
     19         17.939162   0.000000
     20         19.747807   0.000000
     21         21.185214   0.000000
     22         22.523488   0.000000
     23         23.029271   0.000000
     24         23.910634   0.000000
     25         24.945486   0.000000
     26         25.239087   0.000000
     27         26.568783   0.000000
     28         26.750494   0.000000
     29         27.955072   0.000000
     30         29.378256   0.000000
     31         30.666746   0.000000
     32         31.497573   0.000000
     33         33.307816   0.000000
     34         33.493744   0.000000
     35         37.195946   0.000000
     36         37.455273   0.000000
     37         37.843276   0.000000
     38         39.554727   0.000000
     39         41.434018   0.000000
     40         41.890427   0.000000
     41         41.923528   0.000000
     42         43.558427   0.000000
     43         44.321734   0.000000
     44         46.044305   0.000000
     45         46.255661   0.000000
     46         47.485001   0.000000
     47         47.917654   0.000000
     48         48.400097   0.000000
 
  0.4166667E+00  0.1666667E+00  0.0000000E+00  0.3472222E-02
      1        -11.318241   1.000000
      2        -11.310761   1.000000
      3        -10.289119   1.000000
      4        -10.283427   1.000000
      5         -5.688616   1.000000
      6         -5.683162   1.000000
      7          0.709203   1.000000
      8          0.815956   1.000000
      9          3.928911   0.000000
     10          4.021625   0.000000
     11         12.370014   0.000000
     12         12.460693   0.000000
     13         13.616939   0.000000
     14         13.772749   0.000000
     15         14.077526   0.000000
     16         14.672931   0.000000
     17         17.878196   0.000000
     18         17.972082   0.000000
     19         18.391606   0.000000
     20         20.211554   0.000000
     21         20.967070   0.000000
     22         21.905350   0.000000
     23         22.560187   0.000000
     24         24.093100   0.000000
     25         24.894772   0.000000
     26         25.665117   0.000000
     27         26.447745   0.000000
     28         26.552308   0.000000
     29         27.224830   0.000000
     30         28.954870   0.000000
     31         30.437051   0.000000
     32         31.261455   0.000000
     33         33.032851   0.000000
     34         34.392590   0.000000
     35         35.364693   0.000000
     36         37.407315   0.000000
     37         37.526015   0.000000
     38         40.177385   0.000000
     39         41.050775   0.000000
     40         41.451624   0.000000
     41         43.324762   0.000000
     42         43.907454   0.000000
     43         44.730562   0.000000
     44         45.807571   0.000000
     45         48.205838   0.000000
     46         48.693817   0.000000
     47         49.241524   0.000000
     48         49.338343   0.000000
 
  0.2500000E+00  0.2500000E+00  0.0000000E+00  0.3472222E-02
      1        -12.695951   1.000000
      2        -12.679552   1.000000
      3         -7.993276   1.000000
      4         -7.988611   1.000000
      5         -6.405553   1.000000
      6         -6.401924   1.000000
      7         -0.331697   1.000000
      8         -0.078897   1.000000