       N       E                     dE             d eps       ncg     rms          rms(c)
DAV:   1    -0.368896937999E+02   -0.36890E+02   -0.85812E-08  6816   0.470E-04    0.293E-04
DAV:   2    -0.368896938000E+02   -0.14995E-09   -0.61859E-09  6768   0.137E-04
   1 F= -.36889694E+02 E0= -.36889180E+02  d E =-.102819E-02
       N       E                     dE             ncg
DAV:   1    -0.117925516638E+05   -0.90666E+05    12864
DAV:   2    -0.138689925124E+05   -0.20764E+04    19200
DAV:   3    -0.138714271534E+05   -0.24346E+01    12768
DAV:   4    -0.138714287332E+05   -0.15797E-02    25488
DAV:   5    -0.138714287332E+05   -0.99135E-09    12768
       N       E                     dE             ncg
DAV:   1     0.773508959449E+05   -0.19657E+04     1344
DAV:   2     0.770521277654E+05   -0.29877E+03     2016
DAV:   3     0.770518532946E+05   -0.27447E+00     1344
DAV:   4     0.770518531296E+05   -0.16505E-03     2688
DAV:   5     0.770518531296E+05   -0.58208E-10     1344
