C                                       
           1
     2.468570    0.000000    0.000000
    -1.234285    2.137844    0.000000
     0.000000    0.000000    8.840790
   C 
     4
Direct configuration=     1
   0.00000000  0.00000000  0.25000000
   0.00000000  0.00000000  0.75000000
   0.33333333  0.66666667  0.25000000
   0.66666667  0.33333333  0.75000000
