 DBCSR| CPU Multiplication driver                                           BLAS (U)
 DBCSR| Multrec recursion limit                                              512 (U)
 DBCSR| Multiplication stack size                                           1000 (D)
 DBCSR| Maximum elements for images                                    UNLIMITED (U)
 DBCSR| Multiplicative factor virtual images                                   1 (U)
 DBCSR| Use multiplication densification                                       T (D)
 DBCSR| Multiplication size stacks                                             3 (U)
 DBCSR| Use memory pool for CPU allocation                                     F (U)
 DBCSR| Number of 3D layers                                               SINGLE (U)
 DBCSR| Use MPI memory allocation                                              F (U)
 DBCSR| Use RMA algorithm                                                      F (U)
 DBCSR| Use Communication thread                                               T (U)
 DBCSR| Communication thread load                                             45 (D)
 DBCSR| MPI: My process id                                                     0
 DBCSR| MPI: Number of processes                                               8
 DBCSR| OMP: Current number of threads                                        12
 DBCSR| OMP: Max number of threads                                            12
 DBCSR| Split modifier for TAS multiplication algorithm                  1.0E+00 (U)


  **** **** ******  **  PROGRAM STARTED AT               2025-08-07 21:52:37.027
 ***** ** ***  *** **   PROGRAM STARTED ON                          i03r10c06s10
 **    ****   ******    PROGRAM STARTED BY                               di38fab
 ***** **    ** ** **   PROGRAM PROCESS ID                               1998579
  **** **  *******  **  PROGRAM STARTED IN /hppfs/scratch/04/di38fab/09_GTH/Delt
                                           a_Set/Bi/aug-SZV-MOLOPT-GTH-tier-2/8x
                                           8x8

 CP2K| version string:                 CP2K version 2025.1 (Development Version)
 CP2K| source code revision number:                                  git:3130539
 CP2K| cp2kflags: omp libint fftw3 libxc parallel scalapack max_contr=4         
 CP2K| is freely available from                            https://www.cp2k.org/
 CP2K| Program compiled at                         Tue Jun  3 16:14:32 CEST 2025
 CP2K| Program compiled on                                               login01
 CP2K| Program compiled for                                        Supermuc-foss
 CP2K| Data directory path                  /hppfs/work/pn36zo/di38fab/cp2k/data
 CP2K| Input file name                                                    GW.inp

 GLOBAL| Force Environment number                                              1
 GLOBAL| Basis set file name            /hppfs/scratch/04/di38fab/09_GTH/BASIS_A
 GLOBAL| Potential file name            /hppfs/work/pn36zo/di38fab/cp2k/data/GTH
 GLOBAL| MM Potential file name                                     MM_POTENTIAL
 GLOBAL| Coordinate file name                                             Bi.cif
 GLOBAL| Method name                                                        CP2K
 GLOBAL| Project name                                                       WSe2
 GLOBAL| Run type                                                         ENERGY
 GLOBAL| FFT library                                                       FFTW3
 GLOBAL| Diagonalization library                                       ScaLAPACK
 GLOBAL| Cholesky decomposition library                                ScaLAPACK
 GLOBAL| DGEMM library                                                      BLAS
 GLOBAL| Orthonormality check for eigenvectors                          DISABLED
 GLOBAL| Matrix multiplication library                                 ScaLAPACK
 GLOBAL| All-to-all communication in single precision                          F
 GLOBAL| FFTs using library dependent lengths                                  F
 GLOBAL| Grid backend                                                       AUTO
 GLOBAL| Global print level                                               MEDIUM
 GLOBAL| MPI I/O enabled                                                       T
 GLOBAL| Total number of message passing processes                             8
 GLOBAL| Number of threads for this process                                   12
 GLOBAL| This output is from process                                           0
 GLOBAL| OpenMP stack size per thread (OMP_STACKSIZE)                    default
 GLOBAL| CPU model name             Intel(R) Xeon(R) Platinum 8174 CPU @ 3.10GHz

 MEMORY| system memory details [Kb]
 MEMORY|                        rank 0           min           max       average
 MEMORY| MemTotal             98436660      98436660      98436660      98436660
 MEMORY| MemFree              85143224      85143224      85231596      85187410
 MEMORY| Buffers                     0             0             0             0
 MEMORY| Cached                2359032       2359032       2374968       2367000
 MEMORY| Slab                  1189896       1189224       1189896       1189560
 MEMORY| SReclaimable           264744        261792        264744        263268
 MEMORY| MemLikelyFree        87767000      87767000      87868356      87817678


 *** Fundamental physical constants (SI units) ***

 *** Literature: B. J. Mohr and B. N. Taylor,
 ***             CODATA recommended values of the fundamental physical
 ***             constants: 2006, Web Version 5.1
 ***             http://physics.nist.gov/constants

 Speed of light in vacuum [m/s]                             2.99792458000000E+08
 Magnetic constant or permeability of vacuum [N/A**2]       1.25663706143592E-06
 Electric constant or permittivity of vacuum [F/m]          8.85418781762039E-12
 Planck constant (h) [J*s]                                  6.62606896000000E-34
 Planck constant (h-bar) [J*s]                              1.05457162825177E-34
 Elementary charge [C]                                      1.60217648700000E-19
 Electron mass [kg]                                         9.10938215000000E-31
 Electron g factor [ ]                                     -2.00231930436220E+00
 Proton mass [kg]                                           1.67262163700000E-27
 Fine-structure constant                                    7.29735253760000E-03
 Rydberg constant [1/m]                                     1.09737315685270E+07
 Avogadro constant [1/mol]                                  6.02214179000000E+23
 Boltzmann constant [J/K]                                   1.38065040000000E-23
 Atomic mass unit [kg]                                      1.66053878200000E-27
 Bohr radius [m]                                            5.29177208590000E-11

 *** Conversion factors ***

 [u] -> [a.u.]                                              1.82288848426455E+03
 [Angstrom] -> [Bohr] = [a.u.]                              1.88972613288564E+00
 [a.u.] = [Bohr] -> [Angstrom]                              5.29177208590000E-01
 [a.u.] -> [s]                                              2.41888432650478E-17
 [a.u.] -> [fs]                                             2.41888432650478E-02
 [a.u.] -> [J]                                              4.35974393937059E-18
 [a.u.] -> [N]                                              8.23872205491840E-08
 [a.u.] -> [K]                                              3.15774647902944E+05
 [a.u.] -> [kJ/mol]                                         2.62549961709828E+03
 [a.u.] -> [kcal/mol]                                       6.27509468713739E+02
 [a.u.] -> [Pa]                                             2.94210107994716E+13
 [a.u.] -> [bar]                                            2.94210107994716E+08
 [a.u.] -> [atm]                                            2.90362800883016E+08
 [a.u.] -> [eV]                                             2.72113838565563E+01
 [a.u.] -> [Hz]                                             6.57968392072181E+15
 [a.u.] -> [1/cm] (wave numbers)                            2.19474631370540E+05
 [a.u./Bohr**2] -> [1/cm]                                   5.14048714338585E+03
 

 CELL_TOP| Volume [angstrom^3]:                                       222.141237
 CELL_TOP| Vector a [angstrom     4.589     0.000     0.000   |a| =     4.588660
 CELL_TOP| Vector b [angstrom    -2.294     3.974     0.000   |b| =     4.588660
 CELL_TOP| Vector c [angstrom     0.000     0.000    12.182   |c| =    12.182230
 CELL_TOP| Angle (b,c), alpha [degree]:                                90.000000
 CELL_TOP| Angle (a,c), beta  [degree]:                                90.000000
 CELL_TOP| Angle (a,b), gamma [degree]:                               120.000000
 CELL_TOP| Numerically orthorhombic:                                          NO
 CELL_TOP| Periodicity                                                       XYZ

 CELL_CIF| Volume [angstrom^3]:                                       222.141237
 CELL_CIF| Vector a [angstrom     4.589     0.000     0.000   |a| =     4.588660
 CELL_CIF| Vector b [angstrom    -2.294     3.974     0.000   |b| =     4.588660
 CELL_CIF| Vector c [angstrom     0.000     0.000    12.182   |c| =    12.182230
 CELL_CIF| Angle (b,c), alpha [degree]:                                90.000000
 CELL_CIF| Angle (a,c), beta  [degree]:                                90.000000
 CELL_CIF| Angle (a,b), gamma [degree]:                               120.000000
 CELL_CIF| Numerically orthorhombic:                                          NO
 CELL_CIF| Periodicity                                                       XYZ

 GENERATE|  Preliminary Number of Bonds generated:                             0
 GENERATE|  Achieved consistency in connectivity generation.

 CELL| Volume [angstrom^3]:                                           222.141237
 CELL| Vector a [angstrom]:       4.589     0.000     0.000   |a| =     4.588660
 CELL| Vector b [angstrom]:      -2.294     3.974     0.000   |b| =     4.588660
 CELL| Vector c [angstrom]:       0.000     0.000    12.182   |c| =    12.182230
 CELL| Angle (b,c), alpha [degree]:                                    90.000000
 CELL| Angle (a,c), beta  [degree]:                                    90.000000
 CELL| Angle (a,b), gamma [degree]:                                   120.000000
 CELL| Numerically orthorhombic:                                              NO
 CELL| Periodicity                                                           XYZ

 CELL_REF| Volume [angstrom^3]:                                       222.141237
 CELL_REF| Vector a [angstrom     4.589     0.000     0.000   |a| =     4.588660
 CELL_REF| Vector b [angstrom    -2.294     3.974     0.000   |b| =     4.588660
 CELL_REF| Vector c [angstrom     0.000     0.000    12.182   |c| =    12.182230
 CELL_REF| Angle (b,c), alpha [degree]:                                90.000000
 CELL_REF| Angle (a,c), beta  [degree]:                                90.000000
 CELL_REF| Angle (a,b), gamma [degree]:                               120.000000
 CELL_REF| Numerically orthorhombic:                                          NO
 CELL_REF| Periodicity                                                       XYZ

 *** WARNING in cryssym.F:180 :: Symmetry library SPGLIB not available ***


 *******************************************************************************
                                    Kpoints
 *******************************************************************************
 BRILLOUIN| K-point scheme                                        Monkhorst-Pack
 BRILLOUIN| K-Point grid                                             8    8    8
 BRILLOUIN| Accuracy in Symmetry determination                      0.100000E-05
 BRILLOUIN| K-Point point group symmetrization                               OFF
 BRILLOUIN| Wavefunction type                                            COMPLEX
 BRILLOUIN| List of Kpoints [2 Pi/Bohr]                                      256
 BRILLOUIN| Number           Weight            X              Y              Z
 BRILLOUIN|     1           0.00391       -0.43750       -0.43750       -0.43750
 BRILLOUIN|     2           0.00391       -0.43750       -0.43750       -0.31250
 BRILLOUIN|     3           0.00391       -0.43750       -0.43750       -0.18750
 BRILLOUIN|     4           0.00391       -0.43750       -0.43750       -0.06250
 BRILLOUIN|     5           0.00391       -0.43750       -0.43750        0.06250
 BRILLOUIN|     6           0.00391       -0.43750       -0.43750        0.18750
 BRILLOUIN|     7           0.00391       -0.43750       -0.43750        0.31250
 BRILLOUIN|     8           0.00391       -0.43750       -0.43750        0.43750
 BRILLOUIN|     9           0.00391       -0.43750       -0.31250       -0.43750
 BRILLOUIN|    10           0.00391       -0.43750       -0.31250       -0.31250
 BRILLOUIN|    11           0.00391       -0.43750       -0.31250       -0.18750
 BRILLOUIN|    12           0.00391       -0.43750       -0.31250       -0.06250
 BRILLOUIN|    13           0.00391       -0.43750       -0.31250        0.06250
 BRILLOUIN|    14           0.00391       -0.43750       -0.31250        0.18750
 BRILLOUIN|    15           0.00391       -0.43750       -0.31250        0.31250
 BRILLOUIN|    16           0.00391       -0.43750       -0.31250        0.43750
 BRILLOUIN|    17           0.00391       -0.43750       -0.18750       -0.43750
 BRILLOUIN|    18           0.00391       -0.43750       -0.18750       -0.31250
 BRILLOUIN|    19           0.00391       -0.43750       -0.18750       -0.18750
 BRILLOUIN|    20           0.00391       -0.43750       -0.18750       -0.06250
 BRILLOUIN|    21           0.00391       -0.43750       -0.18750        0.06250
 BRILLOUIN|    22           0.00391       -0.43750       -0.18750        0.18750
 BRILLOUIN|    23           0.00391       -0.43750       -0.18750        0.31250
 BRILLOUIN|    24           0.00391       -0.43750       -0.18750        0.43750
 BRILLOUIN|    25           0.00391       -0.43750       -0.06250       -0.43750
 BRILLOUIN|    26           0.00391       -0.43750       -0.06250       -0.31250
 BRILLOUIN|    27           0.00391       -0.43750       -0.06250       -0.18750
 BRILLOUIN|    28           0.00391       -0.43750       -0.06250       -0.06250
 BRILLOUIN|    29           0.00391       -0.43750       -0.06250        0.06250
 BRILLOUIN|    30           0.00391       -0.43750       -0.06250        0.18750
 BRILLOUIN|    31           0.00391       -0.43750       -0.06250        0.31250
 BRILLOUIN|    32           0.00391       -0.43750       -0.06250        0.43750
 BRILLOUIN|    33           0.00391       -0.43750        0.06250       -0.43750
 BRILLOUIN|    34           0.00391       -0.43750        0.06250       -0.31250
 BRILLOUIN|    35           0.00391       -0.43750        0.06250       -0.18750
 BRILLOUIN|    36           0.00391       -0.43750        0.06250       -0.06250
 BRILLOUIN|    37           0.00391       -0.43750        0.06250        0.06250
 BRILLOUIN|    38           0.00391       -0.43750        0.06250        0.18750
 BRILLOUIN|    39           0.00391       -0.43750        0.06250        0.31250
 BRILLOUIN|    40           0.00391       -0.43750        0.06250        0.43750
 BRILLOUIN|    41           0.00391       -0.43750        0.18750       -0.43750
 BRILLOUIN|    42           0.00391       -0.43750        0.18750       -0.31250
 BRILLOUIN|    43           0.00391       -0.43750        0.18750       -0.18750
 BRILLOUIN|    44           0.00391       -0.43750        0.18750       -0.06250
 BRILLOUIN|    45           0.00391       -0.43750        0.18750        0.06250
 BRILLOUIN|    46           0.00391       -0.43750        0.18750        0.18750
 BRILLOUIN|    47           0.00391       -0.43750        0.18750        0.31250
 BRILLOUIN|    48           0.00391       -0.43750        0.18750        0.43750
 BRILLOUIN|    49           0.00391       -0.43750        0.31250       -0.43750
 BRILLOUIN|    50           0.00391       -0.43750        0.31250       -0.31250
 BRILLOUIN|    51           0.00391       -0.43750        0.31250       -0.18750
 BRILLOUIN|    52           0.00391       -0.43750        0.31250       -0.06250
 BRILLOUIN|    53           0.00391       -0.43750        0.31250        0.06250
 BRILLOUIN|    54           0.00391       -0.43750        0.31250        0.18750
 BRILLOUIN|    55           0.00391       -0.43750        0.31250        0.31250
 BRILLOUIN|    56           0.00391       -0.43750        0.31250        0.43750
 BRILLOUIN|    57           0.00391       -0.43750        0.43750       -0.43750
 BRILLOUIN|    58           0.00391       -0.43750        0.43750       -0.31250
 BRILLOUIN|    59           0.00391       -0.43750        0.43750       -0.18750
 BRILLOUIN|    60           0.00391       -0.43750        0.43750       -0.06250
 BRILLOUIN|    61           0.00391       -0.43750        0.43750        0.06250
 BRILLOUIN|    62           0.00391       -0.43750        0.43750        0.18750
 BRILLOUIN|    63           0.00391       -0.43750        0.43750        0.31250
 BRILLOUIN|    64           0.00391       -0.43750        0.43750        0.43750
 BRILLOUIN|    65           0.00391       -0.31250       -0.43750       -0.43750
 BRILLOUIN|    66           0.00391       -0.31250       -0.43750       -0.31250
 BRILLOUIN|    67           0.00391       -0.31250       -0.43750       -0.18750
 BRILLOUIN|    68           0.00391       -0.31250       -0.43750       -0.06250
 BRILLOUIN|    69           0.00391       -0.31250       -0.43750        0.06250
 BRILLOUIN|    70           0.00391       -0.31250       -0.43750        0.18750
 BRILLOUIN|    71           0.00391       -0.31250       -0.43750        0.31250
 BRILLOUIN|    72           0.00391       -0.31250       -0.43750        0.43750
 BRILLOUIN|    73           0.00391       -0.31250       -0.31250       -0.43750
 BRILLOUIN|    74           0.00391       -0.31250       -0.31250       -0.31250
 BRILLOUIN|    75           0.00391       -0.31250       -0.31250       -0.18750
 BRILLOUIN|    76           0.00391       -0.31250       -0.31250       -0.06250
 BRILLOUIN|    77           0.00391       -0.31250       -0.31250        0.06250
 BRILLOUIN|    78           0.00391       -0.31250       -0.31250        0.18750
 BRILLOUIN|    79           0.00391       -0.31250       -0.31250        0.31250
 BRILLOUIN|    80           0.00391       -0.31250       -0.31250        0.43750
 BRILLOUIN|    81           0.00391       -0.31250       -0.18750       -0.43750
 BRILLOUIN|    82           0.00391       -0.31250       -0.18750       -0.31250
 BRILLOUIN|    83           0.00391       -0.31250       -0.18750       -0.18750
 BRILLOUIN|    84           0.00391       -0.31250       -0.18750       -0.06250
 BRILLOUIN|    85           0.00391       -0.31250       -0.18750        0.06250
 BRILLOUIN|    86           0.00391       -0.31250       -0.18750        0.18750
 BRILLOUIN|    87           0.00391       -0.31250       -0.18750        0.31250
 BRILLOUIN|    88           0.00391       -0.31250       -0.18750        0.43750
 BRILLOUIN|    89           0.00391       -0.31250       -0.06250       -0.43750
 BRILLOUIN|    90           0.00391       -0.31250       -0.06250       -0.31250
 BRILLOUIN|    91           0.00391       -0.31250       -0.06250       -0.18750
 BRILLOUIN|    92           0.00391       -0.31250       -0.06250       -0.06250
 BRILLOUIN|    93           0.00391       -0.31250       -0.06250        0.06250
 BRILLOUIN|    94           0.00391       -0.31250       -0.06250        0.18750
 BRILLOUIN|    95           0.00391       -0.31250       -0.06250        0.31250
 BRILLOUIN|    96           0.00391       -0.31250       -0.06250        0.43750
 BRILLOUIN|    97           0.00391       -0.31250        0.06250       -0.43750
 BRILLOUIN|    98           0.00391       -0.31250        0.06250       -0.31250
 BRILLOUIN|    99           0.00391       -0.31250        0.06250       -0.18750
 BRILLOUIN|   100           0.00391       -0.31250        0.06250       -0.06250
 BRILLOUIN|   101           0.00391       -0.31250        0.06250        0.06250
 BRILLOUIN|   102           0.00391       -0.31250        0.06250        0.18750
 BRILLOUIN|   103           0.00391       -0.31250        0.06250        0.31250
 BRILLOUIN|   104           0.00391       -0.31250        0.06250        0.43750
 BRILLOUIN|   105           0.00391       -0.31250        0.18750       -0.43750
 BRILLOUIN|   106           0.00391       -0.31250        0.18750       -0.31250
 BRILLOUIN|   107           0.00391       -0.31250        0.18750       -0.18750
 BRILLOUIN|   108           0.00391       -0.31250        0.18750       -0.06250
 BRILLOUIN|   109           0.00391       -0.31250        0.18750        0.06250
 BRILLOUIN|   110           0.00391       -0.31250        0.18750        0.18750
 BRILLOUIN|   111           0.00391       -0.31250        0.18750        0.31250
 BRILLOUIN|   112           0.00391       -0.31250        0.18750        0.43750
 BRILLOUIN|   113           0.00391       -0.31250        0.31250       -0.43750
 BRILLOUIN|   114           0.00391       -0.31250        0.31250       -0.31250
 BRILLOUIN|   115           0.00391       -0.31250        0.31250       -0.18750
 BRILLOUIN|   116           0.00391       -0.31250        0.31250       -0.06250
 BRILLOUIN|   117           0.00391       -0.31250        0.31250        0.06250
 BRILLOUIN|   118           0.00391       -0.31250        0.31250        0.18750
 BRILLOUIN|   119           0.00391       -0.31250        0.31250        0.31250
 BRILLOUIN|   120           0.00391       -0.31250        0.31250        0.43750
 BRILLOUIN|   121           0.00391       -0.31250        0.43750       -0.43750
 BRILLOUIN|   122           0.00391       -0.31250        0.43750       -0.31250
 BRILLOUIN|   123           0.00391       -0.31250        0.43750       -0.18750
 BRILLOUIN|   124           0.00391       -0.31250        0.43750       -0.06250
 BRILLOUIN|   125           0.00391       -0.31250        0.43750        0.06250
 BRILLOUIN|   126           0.00391       -0.31250        0.43750        0.18750
 BRILLOUIN|   127           0.00391       -0.31250        0.43750        0.31250
 BRILLOUIN|   128           0.00391       -0.31250        0.43750        0.43750
 BRILLOUIN|   129           0.00391       -0.18750       -0.43750       -0.43750
 BRILLOUIN|   130           0.00391       -0.18750       -0.43750       -0.31250
 BRILLOUIN|   131           0.00391       -0.18750       -0.43750       -0.18750
 BRILLOUIN|   132           0.00391       -0.18750       -0.43750       -0.06250
 BRILLOUIN|   133           0.00391       -0.18750       -0.43750        0.06250
 BRILLOUIN|   134           0.00391       -0.18750       -0.43750        0.18750
 BRILLOUIN|   135           0.00391       -0.18750       -0.43750        0.31250
 BRILLOUIN|   136           0.00391       -0.18750       -0.43750        0.43750
 BRILLOUIN|   137           0.00391       -0.18750       -0.31250       -0.43750
 BRILLOUIN|   138           0.00391       -0.18750       -0.31250       -0.31250
 BRILLOUIN|   139           0.00391       -0.18750       -0.31250       -0.18750
 BRILLOUIN|   140           0.00391       -0.18750       -0.31250       -0.06250
 BRILLOUIN|   141           0.00391       -0.18750       -0.31250        0.06250
 BRILLOUIN|   142           0.00391       -0.18750       -0.31250        0.18750
 BRILLOUIN|   143           0.00391       -0.18750       -0.31250        0.31250
 BRILLOUIN|   144           0.00391       -0.18750       -0.31250        0.43750
 BRILLOUIN|   145           0.00391       -0.18750       -0.18750       -0.43750
 BRILLOUIN|   146           0.00391       -0.18750       -0.18750       -0.31250
 BRILLOUIN|   147           0.00391       -0.18750       -0.18750       -0.18750
 BRILLOUIN|   148           0.00391       -0.18750       -0.18750       -0.06250
 BRILLOUIN|   149           0.00391       -0.18750       -0.18750        0.06250
 BRILLOUIN|   150           0.00391       -0.18750       -0.18750        0.18750
 BRILLOUIN|   151           0.00391       -0.18750       -0.18750        0.31250
 BRILLOUIN|   152           0.00391       -0.18750       -0.18750        0.43750
 BRILLOUIN|   153           0.00391       -0.18750       -0.06250       -0.43750
 BRILLOUIN|   154           0.00391       -0.18750       -0.06250       -0.31250
 BRILLOUIN|   155           0.00391       -0.18750       -0.06250       -0.18750
 BRILLOUIN|   156           0.00391       -0.18750       -0.06250       -0.06250
 BRILLOUIN|   157           0.00391       -0.18750       -0.06250        0.06250
 BRILLOUIN|   158           0.00391       -0.18750       -0.06250        0.18750
 BRILLOUIN|   159           0.00391       -0.18750       -0.06250        0.31250
 BRILLOUIN|   160           0.00391       -0.18750       -0.06250        0.43750
 BRILLOUIN|   161           0.00391       -0.18750        0.06250       -0.43750
 BRILLOUIN|   162           0.00391       -0.18750        0.06250       -0.31250
 BRILLOUIN|   163           0.00391       -0.18750        0.06250       -0.18750
 BRILLOUIN|   164           0.00391       -0.18750        0.06250       -0.06250
 BRILLOUIN|   165           0.00391       -0.18750        0.06250        0.06250
 BRILLOUIN|   166           0.00391       -0.18750        0.06250        0.18750
 BRILLOUIN|   167           0.00391       -0.18750        0.06250        0.31250
 BRILLOUIN|   168           0.00391       -0.18750        0.06250        0.43750
 BRILLOUIN|   169           0.00391       -0.18750        0.18750       -0.43750
 BRILLOUIN|   170           0.00391       -0.18750        0.18750       -0.31250
 BRILLOUIN|   171           0.00391       -0.18750        0.18750       -0.18750
 BRILLOUIN|   172           0.00391       -0.18750        0.18750       -0.06250
 BRILLOUIN|   173           0.00391       -0.18750        0.18750        0.06250
 BRILLOUIN|   174           0.00391       -0.18750        0.18750        0.18750
 BRILLOUIN|   175           0.00391       -0.18750        0.18750        0.31250
 BRILLOUIN|   176           0.00391       -0.18750        0.18750        0.43750
 BRILLOUIN|   177           0.00391       -0.18750        0.31250       -0.43750
 BRILLOUIN|   178           0.00391       -0.18750        0.31250       -0.31250
 BRILLOUIN|   179           0.00391       -0.18750        0.31250       -0.18750
 BRILLOUIN|   180           0.00391       -0.18750        0.31250       -0.06250
 BRILLOUIN|   181           0.00391       -0.18750        0.31250        0.06250
 BRILLOUIN|   182           0.00391       -0.18750        0.31250        0.18750
 BRILLOUIN|   183           0.00391       -0.18750        0.31250        0.31250
 BRILLOUIN|   184           0.00391       -0.18750        0.31250        0.43750
 BRILLOUIN|   185           0.00391       -0.18750        0.43750       -0.43750
 BRILLOUIN|   186           0.00391       -0.18750        0.43750       -0.31250
 BRILLOUIN|   187           0.00391       -0.18750        0.43750       -0.18750
 BRILLOUIN|   188           0.00391       -0.18750        0.43750       -0.06250
 BRILLOUIN|   189           0.00391       -0.18750        0.43750        0.06250
 BRILLOUIN|   190           0.00391       -0.18750        0.43750        0.18750
 BRILLOUIN|   191           0.00391       -0.18750        0.43750        0.31250
 BRILLOUIN|   192           0.00391       -0.18750        0.43750        0.43750
 BRILLOUIN|   193           0.00391       -0.06250       -0.43750       -0.43750
 BRILLOUIN|   194           0.00391       -0.06250       -0.43750       -0.31250
 BRILLOUIN|   195           0.00391       -0.06250       -0.43750       -0.18750
 BRILLOUIN|   196           0.00391       -0.06250       -0.43750       -0.06250
 BRILLOUIN|   197           0.00391       -0.06250       -0.43750        0.06250
 BRILLOUIN|   198           0.00391       -0.06250       -0.43750        0.18750
 BRILLOUIN|   199           0.00391       -0.06250       -0.43750        0.31250
 BRILLOUIN|   200           0.00391       -0.06250       -0.43750        0.43750
 BRILLOUIN|   201           0.00391       -0.06250       -0.31250       -0.43750
 BRILLOUIN|   202           0.00391       -0.06250       -0.31250       -0.31250
 BRILLOUIN|   203           0.00391       -0.06250       -0.31250       -0.18750
 BRILLOUIN|   204           0.00391       -0.06250       -0.31250       -0.06250
 BRILLOUIN|   205           0.00391       -0.06250       -0.31250        0.06250
 BRILLOUIN|   206           0.00391       -0.06250       -0.31250        0.18750
 BRILLOUIN|   207           0.00391       -0.06250       -0.31250        0.31250
 BRILLOUIN|   208           0.00391       -0.06250       -0.31250        0.43750
 BRILLOUIN|   209           0.00391       -0.06250       -0.18750       -0.43750
 BRILLOUIN|   210           0.00391       -0.06250       -0.18750       -0.31250
 BRILLOUIN|   211           0.00391       -0.06250       -0.18750       -0.18750
 BRILLOUIN|   212           0.00391       -0.06250       -0.18750       -0.06250
 BRILLOUIN|   213           0.00391       -0.06250       -0.18750        0.06250
 BRILLOUIN|   214           0.00391       -0.06250       -0.18750        0.18750
 BRILLOUIN|   215           0.00391       -0.06250       -0.18750        0.31250
 BRILLOUIN|   216           0.00391       -0.06250       -0.18750        0.43750
 BRILLOUIN|   217           0.00391       -0.06250       -0.06250       -0.43750
 BRILLOUIN|   218           0.00391       -0.06250       -0.06250       -0.31250
 BRILLOUIN|   219           0.00391       -0.06250       -0.06250       -0.18750
 BRILLOUIN|   220           0.00391       -0.06250       -0.06250       -0.06250
 BRILLOUIN|   221           0.00391       -0.06250       -0.06250        0.06250
 BRILLOUIN|   222           0.00391       -0.06250       -0.06250        0.18750
 BRILLOUIN|   223           0.00391       -0.06250       -0.06250        0.31250
 BRILLOUIN|   224           0.00391       -0.06250       -0.06250        0.43750
 BRILLOUIN|   225           0.00391       -0.06250        0.06250       -0.43750
 BRILLOUIN|   226           0.00391       -0.06250        0.06250       -0.31250
 BRILLOUIN|   227           0.00391       -0.06250        0.06250       -0.18750
 BRILLOUIN|   228           0.00391       -0.06250        0.06250       -0.06250
 BRILLOUIN|   229           0.00391       -0.06250        0.06250        0.06250
 BRILLOUIN|   230           0.00391       -0.06250        0.06250        0.18750
 BRILLOUIN|   231           0.00391       -0.06250        0.06250        0.31250
 BRILLOUIN|   232           0.00391       -0.06250        0.06250        0.43750
 BRILLOUIN|   233           0.00391       -0.06250        0.18750       -0.43750
 BRILLOUIN|   234           0.00391       -0.06250        0.18750       -0.31250
 BRILLOUIN|   235           0.00391       -0.06250        0.18750       -0.18750
 BRILLOUIN|   236           0.00391       -0.06250        0.18750       -0.06250
 BRILLOUIN|   237           0.00391       -0.06250        0.18750        0.06250
 BRILLOUIN|   238           0.00391       -0.06250        0.18750        0.18750
 BRILLOUIN|   239           0.00391       -0.06250        0.18750        0.31250
 BRILLOUIN|   240           0.00391       -0.06250        0.18750        0.43750
 BRILLOUIN|   241           0.00391       -0.06250        0.31250       -0.43750
 BRILLOUIN|   242           0.00391       -0.06250        0.31250       -0.31250
 BRILLOUIN|   243           0.00391       -0.06250        0.31250       -0.18750
 BRILLOUIN|   244           0.00391       -0.06250        0.31250       -0.06250
 BRILLOUIN|   245           0.00391       -0.06250        0.31250        0.06250
 BRILLOUIN|   246           0.00391       -0.06250        0.31250        0.18750
 BRILLOUIN|   247           0.00391       -0.06250        0.31250        0.31250
 BRILLOUIN|   248           0.00391       -0.06250        0.31250        0.43750
 BRILLOUIN|   249           0.00391       -0.06250        0.43750       -0.43750
 BRILLOUIN|   250           0.00391       -0.06250        0.43750       -0.31250
 BRILLOUIN|   251           0.00391       -0.06250        0.43750       -0.18750
 BRILLOUIN|   252           0.00391       -0.06250        0.43750       -0.06250
 BRILLOUIN|   253           0.00391       -0.06250        0.43750        0.06250
 BRILLOUIN|   254           0.00391       -0.06250        0.43750        0.18750
 BRILLOUIN|   255           0.00391       -0.06250        0.43750        0.31250
 BRILLOUIN|   256           0.00391       -0.06250        0.43750        0.43750
 *******************************************************************************

 *******************************************************************************
 *******************************************************************************
 **                                                                           **
 **     #####                         ##              ##                      **
 **    ##   ##            ##          ##              ##                      **
 **   ##     ##                       ##            ######                    **
 **   ##     ##  ##   ##  ##   #####  ##  ##   ####   ##    #####    #####    **
 **   ##     ##  ##   ##  ##  ##      ## ##   ##      ##   ##   ##  ##   ##   **
 **   ##  ## ##  ##   ##  ##  ##      ####     ###    ##   ######   ######    **
 **    ##  ###   ##   ##  ##  ##      ## ##      ##   ##   ##       ##        **
 **     #######   #####   ##   #####  ##  ##  ####    ##    #####   ##        **
 **           ##                                                    ##        **
 **                                                                           **
 **                                                ... make the atoms dance   **
 **                                                                           **
 **            Copyright (C) by CP2K developers group (2000-2025)             **
 **                      J. Chem. Phys. 152, 194103 (2020)                    **
 **                                                                           **
 *******************************************************************************

 DFT| Spin restricted Kohn-Sham (RKS) calculation                            RKS
 DFT| Multiplicity                                                             1
 DFT| Number of spin states                                                    1
 DFT| Charge                                                                   0
 DFT| Self-interaction correction (SIC)                                       NO
 DFT| Cutoffs: density                                              1.000000E-10
 DFT|          gradient                                             1.000000E-10
 DFT|          tau                                                  1.000000E-10
 DFT|          cutoff_smoothing_range                               0.000000E+00
 DFT| XC density smoothing                                                  NONE
 DFT| XC derivatives                                                          PW

 FUNCTIONAL| PBE:
 FUNCTIONAL| J.P.Perdew, K.Burke, M.Ernzerhof, Phys. Rev. Letter, vol. 77, n 18,
 FUNCTIONAL|  pp. 3865-3868, (1996) {spin unpolarized}                          


 QS| Method:                                                                 GPW
 QS| Density plane wave grid type                        NON-SPHERICAL FULLSPACE
 QS| Number of grid levels:                                                    4
 QS| Density cutoff [a.u.]:                                                500.0
 QS| Multi grid cutoff [a.u.]: 1) grid level                               500.0
 QS|                           2) grid level                               166.7
 QS|                           3) grid level                                55.6
 QS|                           4) grid level                                18.5
 QS| Grid level progression factor:                                          3.0
 QS| Relative density cutoff [a.u.]:                                        50.0
 QS| Interaction thresholds: eps_pgf_orb:                                1.0E-16
 QS|                         eps_filter_matrix:                          0.0E+00
 QS|                         eps_core_charge:                            1.0E-18
 QS|                         eps_rho_gspace:                             1.0E-16
 QS|                         eps_rho_rspace:                             1.0E-16
 QS|                         eps_gvg_rspace:                             1.0E-08
 QS|                         eps_ppl:                                    1.0E-02
 QS|                         eps_ppnl:                                   1.0E-10


 ATOMIC KIND INFORMATION

  1. Atomic kind: Bi                                    Number of atoms:       6

     Orbital Basis Set                                 aug-SZV-MOLOPT-GTH-tier-2

       Number of orbital shell sets:                                           1
       Number of orbital shells:                                               5
       Number of primitive Cartesian functions:                                6
       Number of Cartesian basis functions:                                   14
       Number of spherical basis functions:                                   13
       Norm type:                                                              2

       Normalised Cartesian orbitals:

                        Set   Shell   Orbital            Exponent    Coefficient

                          1       1    2s                0.040000       0.000000
                                                         0.066725       0.021473
                                                         0.074524      -0.045176
                                                         0.222221      -0.237783
                                                         1.317942       0.913949
                                                         1.666928      -0.653333

                          1       2    3s                0.040000      -0.169801
                                                         0.066725       0.123848
                                                         0.074524       0.071295
                                                         0.222221      -0.009219
                                                         1.317942       0.000000
                                                         1.666928       0.000000

                          1       3    3px               0.040000       0.000000
                                                         0.066725       0.007024
                                                         0.074524      -0.031874
                                                         0.222221      -0.150342
                                                         1.317942       0.505804
                                                         1.666928      -0.339972
                          1       3    3py               0.040000       0.000000
                                                         0.066725       0.007024
                                                         0.074524      -0.031874
                                                         0.222221      -0.150342
                                                         1.317942       0.505804
                                                         1.666928      -0.339972
                          1       3    3pz               0.040000       0.000000
                                                         0.066725       0.007024
                                                         0.074524      -0.031874
                                                         0.222221      -0.150342
                                                         1.317942       0.505804
                                                         1.666928      -0.339972

                          1       4    4px               0.040000       0.033117
                                                         0.066725      -0.202844
                                                         0.074524       0.220221
                                                         0.222221       0.006446
                                                         1.317942       0.000000
                                                         1.666928       0.000000
                          1       4    4py               0.040000       0.033117
                                                         0.066725      -0.202844
                                                         0.074524       0.220221
                                                         0.222221       0.006446
                                                         1.317942       0.000000
                                                         1.666928       0.000000
                          1       4    4pz               0.040000       0.033117
                                                         0.066725      -0.202844
                                                         0.074524       0.220221
                                                         0.222221       0.006446
                                                         1.317942       0.000000
                                                         1.666928       0.000000

                          1       5    4dx2              0.040000      -0.001208
                                                         0.066725       0.003120
                                                         0.074524       0.007574
                                                         0.222221       0.072702
                                                         1.317942       0.000000
                                                         1.666928       0.000000
                          1       5    4dxy              0.040000      -0.002092
                                                         0.066725       0.005403
                                                         0.074524       0.013119
                                                         0.222221       0.125924
                                                         1.317942       0.000000
                                                         1.666928       0.000000
                          1       5    4dxz              0.040000      -0.002092
                                                         0.066725       0.005403
                                                         0.074524       0.013119
                                                         0.222221       0.125924
                                                         1.317942       0.000000
                                                         1.666928       0.000000
                          1       5    4dy2              0.040000      -0.001208
                                                         0.066725       0.003120
                                                         0.074524       0.007574
                                                         0.222221       0.072702
                                                         1.317942       0.000000
                                                         1.666928       0.000000
                          1       5    4dyz              0.040000      -0.002092
                                                         0.066725       0.005403
                                                         0.074524       0.013119
                                                         0.222221       0.125924
                                                         1.317942       0.000000
                                                         1.666928       0.000000
                          1       5    4dz2              0.040000      -0.001208
                                                         0.066725       0.003120
                                                         0.074524       0.007574
                                                         0.222221       0.072702
                                                         1.317942       0.000000
                                                         1.666928       0.000000

       Atomic covalent radius [Angstrom]:                                  1.460

       Atomic van der Waals radius [Angstrom]:                             2.070

     GTH Potential information for                                       GTH-PBE

       Description:                       Goedecker-Teter-Hutter pseudopotential
                                           Goedecker et al., PRB 54, 1703 (1996)
                                          Hartwigsen et al., PRB 58, 3641 (1998)
                                                      Krack, TCA 114, 145 (2005)

       Gaussian exponent of the core charge distribution:               1.366027
       Electronic configuration (s p d ...):                               2   3

       Parameters of the local part of the GTH pseudopotential:

                          rloc        C1          C2          C3          C4
                        0.605000    7.945757

       Parameters of the non-local part of the GTH (SOC) pseudopotential:

                   l      r(l)      h(i,j,l)
                                    k(i,j,l)
                   0    0.582232    0.643735    2.247616   -1.440601
                                    2.247616   -5.244797    3.719615
                                   -1.440601    3.719615   -2.952353
                   1    0.766394    0.212533    0.379834
                                    0.379834   -0.449426
                                    0.339106   -0.021086
                                   -0.021086    0.024949
                   2    0.965655    0.347298
                                    0.020357


 MOLECULE KIND INFORMATION


 All atoms are their own molecule, skipping detailed information


 TOTAL NUMBERS AND MAXIMUM NUMBERS

  Total number of            - Atomic kinds:                                   1
                             - Atoms:                                          6
                             - Shell sets:                                     6
                             - Shells:                                        30
                             - Primitive Cartesian functions:                 36
                             - Cartesian basis functions:                     84
                             - Spherical basis functions:                     78

  Maximum angular momentum of- Orbital basis functions:                        2
                             - Local part of the GTH pseudopotential:          0
                             - Non-local part of the GTH pseudopotential:      4


 MODULE QUICKSTEP: ATOMIC COORDINATES IN ANGSTROM

   Atom Kind Element         X             Y             Z       Z(eff)     Mass
      1    1 Bi   83      0.000000      0.000000      2.847474   5.0000 208.9804
      2    1 Bi   83      0.000000      0.000000      9.334756   5.0000 208.9804
      3    1 Bi   83      2.294353      1.324619      6.908177   5.0000 208.9804
      4    1 Bi   83      2.294353      1.324619      1.213228   5.0000 208.9804
      5    1 Bi   83     -0.000023      2.649277     10.969002   5.0000 208.9804
      6    1 Bi   83     -0.000023      2.649277      5.274053   5.0000 208.9804



 SCF PARAMETERS         Density guess:                                    ATOMIC
                        --------------------------------------------------------
                        max_scf:                                             500
                        max_scf_history:                                       0
                        max_diis:                                              4
                        --------------------------------------------------------
                        eps_scf:                                        1.00E-09
                        eps_scf_history:                                0.00E+00
                        eps_diis:                                       1.00E-01
                        eps_eigval:                                     1.00E-05
                        --------------------------------------------------------
                        level_shift [a.u.]:                             0.000000
                        added MOs                                        63    0
                        --------------------------------------------------------
                        Mixing method:                            BROYDEN_MIXING
                                                charge density mixing in g-space
                        --------------------------------------------------------
                        Smear method:                                FERMI_DIRAC
                        Electronic temperature [K]:                        300.0
                        Electronic temperature [a.u.]:                  9.50E-04
                        Accuracy threshold:                             1.00E-10
                        --------------------------------------------------------
                        No outer SCF

 PW_GRID| Information for grid number                                          1
 PW_GRID| Grid distributed over                                     8 processors
 PW_GRID| Real space group dimensions                                     8    1
 PW_GRID| the grid is blocked:                                                NO
 PW_GRID| Cutoff [a.u.]                                                    500.0
 PW_GRID| spherical cutoff:                                                   NO
 PW_GRID|   Bounds   1            -45      44                Points:          90
 PW_GRID|   Bounds   2            -45      44                Points:          90
 PW_GRID|   Bounds   3           -120     119                Points:         240
 PW_GRID| Volume element (a.u.^3)  0.7711E-03     Volume (a.u.^3)      1499.0834
 PW_GRID| Grid span                                                    FULLSPACE
 PW_GRID|   Distribution                         Average         Max         Min
 PW_GRID|   G-Vectors                           243000.0      243000      243000
 PW_GRID|   G-Rays                                2700.0        2700        2700
 PW_GRID|   Real Space Points                   243000.0      259200      237600

 PW_GRID| Information for grid number                                          2
 PW_GRID| Number of the reference grid                                         1
 PW_GRID| Grid distributed over                                     8 processors
 PW_GRID| Real space group dimensions                                     8    1
 PW_GRID| the grid is blocked:                                                NO
 PW_GRID| Cutoff [a.u.]                                                    166.7
 PW_GRID| spherical cutoff:                                                   NO
 PW_GRID|   Bounds   1            -27      26                Points:          54
 PW_GRID|   Bounds   2            -27      26                Points:          54
 PW_GRID|   Bounds   3            -67      67                Points:         135
 PW_GRID| Volume element (a.u.^3)  0.3808E-02     Volume (a.u.^3)      1499.0834
 PW_GRID| Grid span                                                    FULLSPACE
 PW_GRID|   Distribution                         Average         Max         Min
 PW_GRID|   G-Vectors                            49207.5       49356       49086
 PW_GRID|   G-Rays                                 911.2         914         909
 PW_GRID|   Real Space Points                    49207.5       51030       43740

 PW_GRID| Information for grid number                                          3
 PW_GRID| Number of the reference grid                                         1
 PW_GRID| Grid distributed over                                     8 processors
 PW_GRID| Real space group dimensions                                     8    1
 PW_GRID| the grid is blocked:                                                NO
 PW_GRID| Cutoff [a.u.]                                                     55.6
 PW_GRID| spherical cutoff:                                                   NO
 PW_GRID|   Bounds   1            -15      14                Points:          30
 PW_GRID|   Bounds   2            -15      14                Points:          30
 PW_GRID|   Bounds   3            -40      39                Points:          80
 PW_GRID| Volume element (a.u.^3)  0.2082E-01     Volume (a.u.^3)      1499.0834
 PW_GRID| Grid span                                                    FULLSPACE
 PW_GRID|   Distribution                         Average         Max         Min
 PW_GRID|   G-Vectors                             9000.0        9120        8940
 PW_GRID|   G-Rays                                 300.0         304         298
 PW_GRID|   Real Space Points                     9000.0        9600        7200

 PW_GRID| Information for grid number                                          4
 PW_GRID| Number of the reference grid                                         1
 PW_GRID| Grid distributed over                                     8 processors
 PW_GRID| Real space group dimensions                                     8    1
 PW_GRID| the grid is blocked:                                                NO
 PW_GRID| Cutoff [a.u.]                                                     18.5
 PW_GRID| spherical cutoff:                                                   NO
 PW_GRID|   Bounds   1             -9       8                Points:          18
 PW_GRID|   Bounds   2             -9       8                Points:          18
 PW_GRID|   Bounds   3            -22      22                Points:          45
 PW_GRID| Volume element (a.u.^3)  0.1028         Volume (a.u.^3)      1499.0834
 PW_GRID| Grid span                                                    FULLSPACE
 PW_GRID|   Distribution                         Average         Max         Min
 PW_GRID|   G-Vectors                             1822.5        1854        1800
 PW_GRID|   G-Rays                                 101.2         103         100
 PW_GRID|   Real Space Points                     1822.5        2430        1620

 POISSON| Solver                                                        PERIODIC
 POISSON| Periodicity                                                        XYZ

 RS_GRID| Information for grid number                                          1
 RS_GRID|   Bounds   1            -45      44                Points:          90
 RS_GRID|   Bounds   2            -45      44                Points:          90
 RS_GRID|   Bounds   3           -120     119                Points:         240
 RS_GRID| Real space fully replicated
 RS_GRID| Group size                                                           1

 RS_GRID| Information for grid number                                          2
 RS_GRID|   Bounds   1            -27      26                Points:          54
 RS_GRID|   Bounds   2            -27      26                Points:          54
 RS_GRID|   Bounds   3            -67      67                Points:         135
 RS_GRID| Real space fully replicated
 RS_GRID| Group size                                                           1

 RS_GRID| Information for grid number                                          3
 RS_GRID|   Bounds   1            -15      14                Points:          30
 RS_GRID|   Bounds   2            -15      14                Points:          30
 RS_GRID|   Bounds   3            -40      39                Points:          80
 RS_GRID| Real space fully replicated
 RS_GRID| Group size                                                           1

 RS_GRID| Information for grid number                                          4
 RS_GRID|   Bounds   1             -9       8                Points:          18
 RS_GRID|   Bounds   2             -9       8                Points:          18
 RS_GRID|   Bounds   3            -22      22                Points:          45
 RS_GRID| Real space fully replicated
 RS_GRID| Group size                                                           1

 Number of electrons:                                                         30
 Number of occupied orbitals:                                                 15
 Number of molecular orbitals:                                                78

 Number of orbital functions:                                                 78
 Number of independent orbital functions:                                     78

 Extrapolation method: initial_guess

 Atomic guess: The first density matrix is obtained in terms of atomic orbitals
               and electronic configurations assigned to each atomic kind

 Guess for atomic kind: Bi

 Electronic structure
    Total number of core electrons                                         78.00
    Total number of valence electrons                                       5.00
    Total number of electrons                                              83.00
    Multiplicity                                                   not specified
    S   [  2.00  2.00  2.00  2.00  2.00] 2.00
    P   [  6.00  6.00  6.00  6.00] 3.00
    D   [ 10.00 10.00 10.00]
    F   [ 14.00]


 *******************************************************************************
                  Iteration          Convergence                     Energy [au]
 *******************************************************************************
                          1        0.231202                      -5.234711772610
                          2        0.667212E-01                  -5.290762661849
                          3        0.299661E-02                  -5.294695642390
                          4        0.554008E-03                  -5.294703118521
                          5        0.183064E-03                  -5.294703353950
                          6        0.106906E-03                  -5.294703372970
                          7        0.783073E-07                  -5.294703382814

 Energy components [Hartree]           Total Energy ::           -5.294703382814
                                        Band Energy ::           -1.419131606775
                                     Kinetic Energy ::            1.711370768923
                                   Potential Energy ::           -7.006074151737
                                      Virial (-V/T) ::            4.093837687870
                                        Core Energy ::           -8.320721345591
                                          XC Energy ::           -1.218667976844
                                     Coulomb Energy ::            4.244685939621
                       Total Pseudopotential Energy ::          -10.101389706262
                       Local Pseudopotential Energy ::          -10.090214847081
                    Nonlocal Pseudopotential Energy ::           -0.011174859181
                                        Confinement ::            0.692975917476

 Orbital energies  State     L     Occupation   Energy[a.u.]          Energy[eV]

                       1     0          2.000      -0.500882          -13.629695

                       1     1          3.000      -0.139122           -3.785715


 Total Electron Density at R=0:                                         0.000001
 Re-scaling the density matrix to get the right number of electrons
                  # Electrons              Trace(P)               Scaling factor
                           30                30.000                        1.000


 SCF WAVEFUNCTION OPTIMIZATION

  Step     Update method      Time    Convergence         Total energy    Change
  ------------------------------------------------------------------------------
     1 NoMix/Diag. 0.10E+00    5.0     0.31699811       -33.2960427886 -3.33E+01
     2 Broy./Diag. 0.10E+00    5.8     0.00048044       -33.5997962630 -3.04E-01
     3 Broy./Diag. 0.10E+00    5.7     0.00779367       -33.3525187458  2.47E-01
     4 Broy./Diag. 0.10E+00    5.7     0.00018590       -33.3303729259  2.21E-02
     5 Broy./Diag. 0.10E+00    5.7     0.00256149       -33.2302728397  1.00E-01
     6 Broy./Diag. 0.10E+00    5.7     0.00009937       -33.2217739478  8.50E-03
     7 Broy./Diag. 0.10E+00    5.8     0.00108190       -33.2094235261  1.24E-02
     8 Broy./Diag. 0.10E+00    5.8     0.00001558       -33.2080731463  1.35E-03
     9 Broy./Diag. 0.10E+00    5.8     0.00011634       -33.2089570576 -8.84E-04
    10 Broy./Diag. 0.10E+00    5.8     0.00000497       -33.2089654228 -8.37E-06
    11 Broy./Diag. 0.10E+00    5.8     0.00004978       -33.2089463456  1.91E-05
    12 Broy./Diag. 0.10E+00    5.8     0.00000119       -33.2089631115 -1.68E-05
    13 Broy./Diag. 0.10E+00    5.7     0.00001057       -33.2088803098  8.28E-05
    14 Broy./Diag. 0.10E+00    5.8     0.00000046       -33.2088541748  2.61E-05
    15 Broy./Diag. 0.10E+00    5.7     0.00000409       -33.2088063003  4.79E-05
    16 Broy./Diag. 0.10E+00    5.8     0.00000096       -33.2088168393 -1.05E-05
    17 Broy./Diag. 0.10E+00    5.8     0.00000049       -33.2088244328 -7.59E-06
    18 Broy./Diag. 0.10E+00    5.8     0.00000107       -33.2088114275  1.30E-05
    19 Broy./Diag. 0.10E+00    5.8     0.00000036       -33.2088044138  7.01E-06
    20 Broy./Diag. 0.10E+00    5.8     0.00000019       -33.2088007323  3.68E-06
    21 Broy./Diag. 0.10E+00    5.7     0.00000032       -33.2088001110  6.21E-07
    22 Broy./Diag. 0.10E+00    5.8     0.00000032       -33.2088012339 -1.12E-06
    23 Broy./Diag. 0.10E+00    5.8     0.00000005       -33.2088019436 -7.10E-07
    24 Broy./Diag. 0.10E+00    5.8     0.00000006       -33.2088030922 -1.15E-06
    25 Broy./Diag. 0.10E+00    5.8     0.00000017       -33.2088053985 -2.31E-06
    26 Broy./Diag. 0.10E+00    5.8     0.00000002       -33.2088056586 -2.60E-07
    27 Broy./Diag. 0.10E+00    5.8     0.00000004       -33.2088045226  1.14E-06
    28 Broy./Diag. 0.10E+00    5.7     0.00000002       -33.2088044642  5.84E-08
    29 Broy./Diag. 0.10E+00    5.7     0.00000007       -33.2088051598 -6.96E-07
    30 Broy./Diag. 0.10E+00    5.7     0.00000001       -33.2088052249 -6.51E-08
    31 Broy./Diag. 0.10E+00    5.7     0.00000003       -33.2088051772  4.77E-08
    32 Broy./Diag. 0.10E+00    5.8     0.00000002       -33.2088049555  2.22E-07
    33 Broy./Diag. 0.10E+00    5.7     3.7345E-09       -33.2088048573  9.82E-08
    34 Broy./Diag. 0.10E+00    5.8     0.00000001       -33.2088046237  2.34E-07
    35 Broy./Diag. 0.10E+00    5.7     4.0249E-09       -33.2088045683  5.54E-08
    36 Broy./Diag. 0.10E+00    5.8     6.4473E-09       -33.2088045797 -1.14E-08
    37 Broy./Diag. 0.10E+00    5.7     1.7358E-09       -33.2088046401 -6.04E-08
    38 Broy./Diag. 0.10E+00    5.8     2.6451E-09       -33.2088046732 -3.31E-08
    39 Broy./Diag. 0.10E+00    5.9     3.4662E-09       -33.2088046494  2.38E-08
    40 Broy./Diag. 0.10E+00    5.8     1.6866E-09       -33.2088046580 -8.58E-09
    41 Broy./Diag. 0.10E+00    5.7     3.4037E-09       -33.2088046954 -3.74E-08
    42 Broy./Diag. 0.10E+00    5.7     4.3128E-10       -33.2088047142 -1.88E-08

  *** SCF run converged in    42 steps ***


  Electronic density on regular grids:        -30.0000000000       -0.0000000000
  Core density on regular grids:               30.0000000000       -0.0000000000
  Total charge density on r-space grids:       -0.0000000000
  Total charge density g-space grids:          -0.0000000000

  Overlap energy of the core charge distribution:               0.00000000023718
  Self energy of the core charge distribution:                -69.94085746459790
  Core Hamiltonian energy:                                     13.70574669185197
  Hartree energy:                                              31.10683742269001
  Exchange-correlation energy:                                 -8.08049062996132
  Electronic entropic energy:                                  -0.00004073441175
  Fermi energy:                                                 0.14181359527806

  Total energy:                                               -33.20880471419179

 !-----------------------------------------------------------------------------!
                     Mulliken Population Analysis

 #  Atom  Element  Kind  Atomic population                           Net charge
       1     Bi       1          4.999987                              0.000013
       2     Bi       1          4.999987                              0.000013
       3     Bi       1          5.000008                             -0.000008
       4     Bi       1          5.000006                             -0.000006
       5     Bi       1          5.000006                             -0.000006
       6     Bi       1          5.000008                             -0.000008
 # Total charge                             30.000000                 -0.000000

 !-----------------------------------------------------------------------------!

 !-----------------------------------------------------------------------------!
                           Hirshfeld Charges

  #Atom  Element  Kind  Ref Charge     Population                    Net charge
      1       Bi     1       5.000          5.000                        -0.000
      2       Bi     1       5.000          5.000                        -0.000
      3       Bi     1       5.000          5.000                         0.000
      4       Bi     1       5.000          5.000                         0.000
      5       Bi     1       5.000          5.000                         0.000
      6       Bi     1       5.000          5.000                         0.000

  Total Charge                                                           -0.000
 !-----------------------------------------------------------------------------!
  
 -------------------------------------------------------------------------------
 -                                                                             -
 -                          BANDSTRUCTURE CALCULATION                          -
 -                                                                             -
 -------------------------------------------------------------------------------
  
 Number of occupied molecular orbitals (MOs) = Number of occupied bands       15
 Number of unoccupied (= virtual) MOs = Number of unoccupied bands            63
 Number of Gaussian basis functions for MOs                                   78
 Number of cells considered in the DFT calculation                           989
 Number of cells for G, , W,                                               343
 Number of special k-points for the bandstructure                              4
 Number of k-points for the bandstructure                                    660

 SOC requested, SOC energy window:                                       10.0 eV

 
 SCF valence band maximum (eV):                                            3.884
 SCF conduction band minimum (eV):                                         3.732
 SCF indirect band gap (eV):                                              -0.152
 SCF direct band gap (eV):                                                 0.200
 
 SCF+SOC valence band maximum (eV):                                        3.592
 SCF+SOC conduction band minimum (eV):                                     3.652
 SCF+SOC indirect band gap (eV):                                           0.060
 SCF+SOC direct band gap (eV):                                             0.103

 ENERGY| Total FORCE_EVAL ( QS ) energy [hartree]            -33.208804714191785

 -------------------------------------------------------------------------------
 -                                                                             -
 -                                DBCSR STATISTICS                             -
 -                                                                             -
 -------------------------------------------------------------------------------
 COUNTER                                    TOTAL       BLAS       SMM       ACC
 flops inhomo. stacks                           0       0.0%      0.0%      0.0%
 flops total                         0.000000E+00       0.0%      0.0%      0.0%
 flops max/rank                      0.000000E+00       0.0%      0.0%      0.0%
 matmuls inhomo. stacks                         0       0.0%      0.0%      0.0%
 matmuls total                                  0       0.0%      0.0%      0.0%
 number of processed stacks                     0       0.0%      0.0%      0.0%
 average stack size                                     0.0       0.0       0.0
 marketing flops                     0.000000E+00
 -------------------------------------------------------------------------------
 -                                                                             -
 -                      DBCSR MESSAGE PASSING PERFORMANCE                      -
 -                                                                             -
 -------------------------------------------------------------------------------
 ROUTINE             CALLS      AVE VOLUME [Bytes]
 MP_Bcast                1                     12.
 MP_Allreduce           19                     21.
 MP_Alltoall       1029492                   2011.
 -------------------------------------------------------------------------------

 -------------------------------------------------------------------------------
 -                                                                             -
 -                                DBM STATISTICS                               -
 -                                                                             -
 -------------------------------------------------------------------------------
    M  x    N  x    K                                          COUNT     PERCENT
 -------------------------------------------------------------------------------

 -------------------------------------------------------------------------------
 -                                                                             -
 -                                GRID STATISTICS                              -
 -                                                                             -
 -------------------------------------------------------------------------------
 LP    KERNEL             BACKEND                              COUNT     PERCENT
 4     collocate general  CPU                                2974869      50.59%
 4     integrate general  CPU                                2905686      49.41%
 0     collocate general  CPU                                     12       0.00%
 0     integrate general  CPU                                      6       0.00%
 -------------------------------------------------------------------------------

 MEMORY| Estimated peak process memory [MiB]                                1072

 -------------------------------------------------------------------------------
 ----                             MULTIGRID INFO                            ----
 -------------------------------------------------------------------------------
 count for grid        1:            878          cutoff [a.u.]          500.00
 count for grid        2:          38257          cutoff [a.u.]          166.67
 count for grid        3:           1868          cutoff [a.u.]           55.56
 count for grid        4:         105973          cutoff [a.u.]           18.52
 total gridlevel count  :         146976

 -------------------------------------------------------------------------------
 -                                                                             -
 -                         MESSAGE PASSING PERFORMANCE                         -
 -                                                                             -
 -------------------------------------------------------------------------------

 ROUTINE             CALLS      AVE VOLUME [Bytes]
 MP_Group                5
 MP_Bcast           387296                   1489.
 MP_Allreduce       128193                     70.
 MP_Sync                 4
 MP_Alltoall           761               10663921.
 MP_SendRecv          1218                 660946.
 MP_ISendRecv         1183                 652976.
 MP_Wait            267295
 MP_comm_split           3
 MP_ISend           282240                   1450.
 MP_IRecv           451584                    894.
 -------------------------------------------------------------------------------


 -------------------------------------------------------------------------------
 -                                                                             -
 -                           R E F E R E N C E S                               -
 -                                                                             -
 -------------------------------------------------------------------------------
 
 CP2K version 2025.1 (Development Version), the CP2K developers group (2025).
 CP2K is freely available from https://www.cp2k.org/ .
 
 T. D. Kuehne, M. Iannuzzi, M. Del Ben, V. V. Rybkin, P. Seewald, F. Stein, T. 
 Laino, R. Z. Khaliullin, O. Schuett, F. Schiffmann, D. Golze, J. Wilhelm, S. 
 Chulkov, M. H. Bani-Hashemian, V. Weber, U. Borstnik, M. Taillefumier, A. S. 
 Jakobovits, A. Lazzaro, H. Pabst, T. Mueller, R. Schade, M. Guidon, S. 
 Andermatt, N. Holmberg, G. K. Schenter, A. Hehn, A. Bussy, F. Belleflamme, G. 
 Tabacchi, A. Gloess, M. Lass, I. Bethune, C. J. Mundy, C. Plessl, M. Watkins, 
 J. VandeVondele, M. Krack, J. Hutter.
 J. Chem. Phys. 152, 194103 (2020).
 CP2K: An electronic structure and molecular dynamics software package - 
 Quickstep: Efficient and accurate electronic structure calculations.
 https://doi.org/10.1063/5.0007045

 O. Schuett, P. Messmer, J. Hutter, J. VandeVondele.
 Electronic Structure Calculations on Graphics Processing Units, 173-190 (2016).
 GPU-Accelerated Sparse Matrix-Matrix Multiplication for Linear Scaling Density 
 Functional Theory.
 https://doi.org/10.1002/9781118670712.ch8

 J. Hutter, M. Iannuzzi, F. Schiffmann, J. VandeVondele.
 WIREs Comput Mol Sci. 4, 15-25 (2014).
 CP2K: atomistic simulations of condensed matter systems.
 https://doi.org/10.1002/wcms.1159

 U. Borstnik, J. VandeVondele, V. Weber, J. Hutter.
 Parallel Comput. 40, 47-58 (2014).
 Sparse matrix multiplication: The distributed block-compressed sparse row 
 library.
 https://doi.org/10.1016/j.parco.2014.03.012

 J. VandeVondele, J. Hutter.
 J. Chem. Phys. 127, 114105 (2007).
 Gaussian basis sets for accurate calculations on molecular systems in gas and 
 condensed phases.
 https://doi.org/10.1063/1.2770708

 J. VandeVondele, M. Krack, F. Mohamed, M. Parrinello, T. Chassaing, J. Hutter.
 Comput. Phys. Commun. 167, 103-128 (2005).
 QUICKSTEP: Fast and accurate density functional calculations using a mixed 
 Gaussian and plane waves approach.
 https://doi.org/10.1016/j.cpc.2004.12.014

 M. Krack.
 Theor. Chem. Acc. 114, 145-152 (2005).
 Pseudopotentials for H to Kr optimized for gradient-corrected 
 exchange-correlation functionals.
 https://doi.org/10.1007/s00214-005-0655-y

 M. Frigo, S. G. Johnson.
 Proc. IEEE 93, 216-231 (2005).
 The design and implementation of FFTW3.
 https://doi.org/10.1109/JPROC.2004.840301

 C. Hartwigsen, S. Goedecker, J. Hutter.
 Phys. Rev. B 58, 3641-3662 (1998).
 Relativistic separable dual-space Gaussian pseudopotentials from H to Rn.
 https://doi.org/10.1103/PhysRevB.58.3641

 G. Lippert, J. Hutter, M. Parrinello.
 Mol. Phys. 92, 477-487 (1997).
 A hybrid Gaussian and plane wave density functional scheme.
 https://doi.org/10.1080/002689797170220

 S. Goedecker, M. Teter, J. Hutter.
 Phys. Rev. B 54, 1703-1710 (1996).
 Separable dual-space Gaussian pseudopotentials.
 https://doi.org/10.1103/PhysRevB.54.1703

 J. P. Perdew, K. Burke, M. Ernzerhof.
 Phys. Rev. Lett. 77, 3865-3868 (1996).
 Generalized gradient approximation made simple.
 https://doi.org/10.1103/PhysRevLett.77.3865


 -------------------------------------------------------------------------------
 -                                                                             -
 -                                T I M I N G                                  -
 -                                                                             -
 -------------------------------------------------------------------------------
 SUBROUTINE                       CALLS  ASD         SELF TIME        TOTAL TIME
                                MAXIMUM       AVERAGE  MAXIMUM  AVERAGE  MAXIMUM
 CP2K                                 1  1.0    0.014    0.018  283.703  283.703
 qs_energies                          1  2.0    0.003    0.003  283.406  283.416
 scf_env_do_scf                       1  3.0    0.000    0.000  244.471  244.471
 scf_env_do_scf_inner_loop           42  4.0    0.039    0.041  244.471  244.471
 qs_scf_new_mos_kp                   42  5.0    0.000    0.000  181.992  193.898
 do_general_diag_kp                  42  6.0    0.258    0.261  181.991  193.897
 mp_alltoall_i22                 176266  8.9   83.003  138.337   83.003  138.337
 dbcsr_desymmetrize_deep         102185  7.6    1.746    1.794   71.971  114.561
 rskp_transform                   24804  7.1   48.794   93.254   48.794   93.254
 dbcsr_complete_redistribute      74081  8.3    2.907    3.021   39.533   52.681
 kpoint_density_transform            42  7.0    0.113    0.116   47.602   47.743
 qs_ks_update_qs_env                 42  5.0    0.000    0.000   23.755   41.228
 rebuild_ks_matrix                   42  6.0    0.000    0.000   22.578   40.051
 qs_ks_build_kohn_sham_matrix        42  7.0    0.071    0.072   22.577   40.050
 transform_dmat                   10752  8.0   20.224   38.183   20.224   38.183
 sum_up_and_integrate                42  8.0    0.000    0.001   20.036   37.509
 integrate_v_rspace                  42  9.0    0.071    0.124   20.032   37.506
 copy_fm_to_dbcsr                 21504  8.0    0.136    0.138   24.048   36.714
 grid_integrate_task_list            42 10.0   19.117   36.538   19.117   36.538
 qs_energies_properties               1  3.0    0.000    0.000   36.427   36.437
 post_scf_bandstructure               1  4.0    0.000    0.000   36.426   36.437
 qs_rho_update_rho_low               43  5.0    0.000    0.000   34.349   34.367
 calculate_rho_elec                  43  6.0    0.081    0.089   34.348   34.366
 grid_collocate_task_list            43  7.0   17.747   33.062   17.747   33.062
 transfer_rs2pw                     174  8.0    0.002    0.002   16.441   27.306
 transfer_rs2pw_500                  45  8.9    0.334    0.366   16.287   27.147
 density_rs2pw                       43  7.0    0.002    0.002   16.509   27.109
 mp_sendrecv_dv                    1218 10.0   16.038   26.916   16.038   26.916
 copy_dbcsr_to_fm                 52577  7.1    0.574    0.589   24.990   25.278
 cp_cfm_heevd                      4668  7.9    0.006    0.007   17.957   17.997
 cp_cfm_heevd_base                 4668  8.9   17.951   17.990   17.951   17.990
 rsmat_to_kp                       3300  7.0    0.056    0.057   17.501   17.536
 create_and_init_bs_env               1  5.0    0.000    0.000   13.491   13.491
 compute_cfm_mo_coeff_kp_and_ei       1  6.0    0.007    0.007   13.489   13.489
 soc                                  1  5.0    0.000    0.000   13.074   13.074
 H_KS_spinor_kp                       1  6.0    0.012    0.013   11.792   12.201
 cp_cfm_geeig_canon                2004  7.0    0.019    0.020   11.371   11.420
 dos_pdos_ldos                        1  5.0    0.007    0.008    9.862    9.871
 SOC_ev                             660  6.0    0.016    0.017    9.201    9.212
 cp_fm_start_copy_general         64512  7.3    1.137    1.585    6.660    6.820
 dbcsr_finalize                  222607  8.7    0.943    1.037    6.214    6.757
 mp_cart_sub                     105156  9.1    4.359    4.382    4.359    4.382
 mp_alltoall_d11v                528798  9.5    3.997    4.139    3.997    4.139
 dbcsr_merge_all                  77048 10.3    2.011    2.418    3.297    3.770
 mp_allgather_i                  129024  8.3    3.281    3.438    3.281    3.438
 cp_dbcsr_alloc_block_from_nbl    20698  6.7    1.422    2.634    1.534    2.777
 mp_cart_create                   52583  9.1    2.599    2.701    2.599    2.701
 hybrid_alltoall_any             102185  8.6    0.432    0.444    2.593    2.695
 mp_alltoall_i11v                324428  9.1    2.460    2.574    2.460    2.574
 fft_wrap_pw1pw2                    761 10.0    0.008    0.009    2.345    2.363
 write_kpoints_restart               42  5.0    0.011    0.021    2.343    2.344
 fft_wrap_pw1pw2_500                506 11.3    0.199    0.202    2.204    2.226
 cp_cfm_gemm                       9312  8.4    1.997    2.024    1.997    2.024
 qs_vxc_create                       42  8.0    0.001    0.001    1.804    1.806
 xc_vxc_pw_create                    42  9.0    0.078    0.082    1.804    1.805
 fft3d_ps                           761 12.0    0.956    1.008    1.780    1.804
 mp_bcast_iv                     258075  8.3    1.557    1.801    1.557    1.801
 V_SOC_xyz_from_pseudopotential       1  6.0    0.030    0.031    1.282    1.781
 dbcsr_create_new                363399  8.2    1.407    1.472    1.705    1.775
 dbcsr_work_create               179233  8.9    1.113    1.133    1.740    1.764
 gspace_mixing                       41  5.0    0.071    0.076    1.731    1.731
 dbcsr_copy                      108536  7.0    0.527    0.564    1.233    1.557
 broyden_mixing                      41  6.0    1.429    1.452    1.456    1.465
 dbcsr_iterator_start            603139  9.0    1.200    1.221    1.397    1.441
 kpoint_set_mo_occupation            42  7.0    1.224    1.238    1.316    1.353
 parallel_gemm_cfm                 3300  7.0    0.004    0.004    1.324    1.353
 parallel_gemm_cfm_gemm            3300  8.0    0.004    0.004    1.320    1.349
 dbcsr_work_destroy_all          179233  9.9    0.854    0.868    1.306    1.328
 dbcsr_dot                        83077  8.0    0.416    0.500    1.238    1.322
 copy_dbcsr_to_fm_bc              52577  8.1    0.525    0.551    1.151    1.196
 dbcsr_data_new                 1926846  9.8    1.140    1.178    1.140    1.178
 evaluate_core_matrix_traces         42  6.0    0.000    0.000    1.177    1.177
 calculate_ptrace_kp                 84  7.0    0.060    0.061    1.177    1.177
 qs_energies_init_hamiltonians        1  3.0    0.000    0.000    1.142    1.142
 xc_pw_derive                       252 11.0    0.001    0.001    1.129    1.141
 add_cfm_submat                    5280  7.0    0.047    0.048    1.066    1.114
 init_scf_run                         1  3.0    0.000    0.000    0.977    1.061
 scf_env_initial_rho_setup            1  4.0    0.000    0.000    0.977    1.061
 copy_fm_to_dbcsr_bc              21504  9.0    0.301    0.312    1.019    1.046
 dbcsr_data_release             2734355 10.2    1.015    1.023    1.015    1.023
 mp_sum_iv                         1340  8.9    0.575    1.018    0.575    1.018
 xc_rho_set_and_dset_create          42 10.0    0.036    0.037    0.989    1.012
 cp_fm_write_unformatted           2967  6.0    0.612    0.921    0.625    0.973
 tree_to_linear_d                 74081 11.3    0.904    0.965    0.904    0.965
 cp_fm_to_fm_submat               10560  8.0    0.904    0.954    0.904    0.954
 dbcsr_destroy                   277356  8.2    0.466    0.484    0.917    0.946
 mp_sum_d                         83835  9.0    0.723    0.936    0.723    0.936
 alloc_cfm_double_array_1d            1  7.0    0.003    0.003    0.526    0.935
 kpoint_density_matrices             42  7.0    0.027    0.029    0.811    0.934
 create_cfm_double                  660  8.0    0.009    0.016    0.524    0.932
 dbcsr_iterator_stop             603139  9.0    0.763    0.782    0.896    0.912
 build_core_hamiltonian_matrix        1  4.0    0.004    0.004    0.539    0.907
 parallel_gemm_fm                  5376  8.0    0.005    0.005    0.772    0.894
 parallel_gemm_fm_gemm             5376  9.0    0.005    0.005    0.768    0.889
 cp_fm_gemm                        5376 10.0    0.763    0.884    0.763    0.884
 dbcsr_copy_into_existing         22493  9.8    0.436    0.753    0.566    0.883
 add_to_DOS_PDOS                   1320  6.5    0.860    0.867    0.860    0.867
 potential_pw2rs                     42 10.0    0.005    0.005    0.844    0.863
 self_consistency_check              42  5.0    0.058    0.058    0.741    0.791
 xc_pw_divergence                    42 10.0    0.001    0.001    0.723    0.733
 qs_env_update_s_mstruct              1  4.0    0.000    0.000    0.507    0.726
 mp_alltoall_z22v                   761 14.0    0.675    0.722    0.675    0.722
 calculate_rho_core                   1  5.0    0.004    0.004    0.401    0.678
 cp_sm_mix                        41538  6.0    0.163    0.217    0.615    0.677
 cp_fm_finish_copy_general        26880  7.8    0.562    0.581    0.613    0.633
 mp_waitall_1                    267295  8.4    0.384    0.624    0.384    0.624
 quick_finalize                  102185  9.6    0.329    0.344    0.592    0.612
 transfer_pw2rs                     169 11.0    0.001    0.001    0.608    0.609
 build_core_ppnl                      2  6.0    0.370    0.595    0.370    0.595
 dbcsr_add_d                       2967  7.0    0.003    0.003    0.470    0.555
 dbcsr_add_anytype                 2967  8.0    0.033    0.038    0.467    0.551
 mp_comm_free                    158428  9.0    0.499    0.519    0.499    0.519
 x_to_yz                            420 13.2    0.091    0.093    0.476    0.491
 transfer_pw2rs_500                  43 11.9    0.264    0.270    0.455    0.463
 mp_max_d                         41540  7.0    0.357    0.457    0.357    0.457
 mp_bcast_im                     129024  8.3    0.362    0.449    0.362    0.449
 xc_functional_eval                  42 11.0    0.000    0.000    0.348    0.369
 pbe_lda_eval                        42 12.0    0.347    0.369    0.347    0.369
 yz_to_x                            341 12.8    0.050    0.053    0.340    0.367
 dbcsr_set                       216824  7.8    0.205    0.210    0.319    0.359
 compute_proj_mo_on_kind            660  6.0    0.016    0.017    0.330    0.358
 dbcsr_sort_indices              218468 10.8    0.283    0.301    0.283    0.301
 mixing_allocate                      1  3.0    0.006    0.006    0.162    0.283
 dbcsr_reserve_blocks             42202  9.4    0.192    0.226    0.234    0.265
 dbcsr_iterator_seek             603139 10.0    0.197    0.223    0.197    0.223
 calculate_first_density_matrix       1  5.0    0.001    0.001    0.126    0.210
 calculate_atomic_block_dm            1  6.0    0.001    0.001    0.124    0.208
 dbcsr_make_index_exist          363399  9.2    0.190    0.204    0.190    0.204
 pw_scatter_p                       420 12.2    0.196    0.201    0.196    0.201
 merge_index                      77048 11.3    0.146    0.174    0.146    0.174
 dbcsr_reserve_all_blocks         21504 10.0    0.037    0.037    0.167    0.174
 mp_isend_dv                      64512  8.3    0.155    0.169    0.155    0.169
 build_overlap_matrix_low             1  5.0    0.015    0.022    0.091    0.158
 dbcsr_zero                      216824  8.8    0.114    0.158    0.114    0.158
 build_kinetic_matrix_low             1  5.0    0.013    0.018    0.089    0.154
 pw_poisson_solve                    42  8.0    0.000    0.000    0.149    0.150
 calculate_ecore_overlap              1  4.0    0.000    0.000    0.086    0.145
 qs_env_rebuild_rho                   1  5.0    0.000    0.000    0.079    0.140
 qs_rho_rebuild                       1  6.0    0.003    0.003    0.079    0.140
 mp_sum_dm3                          42  8.0    0.092    0.134    0.092    0.134
 build_core_ppl                       1  5.0    0.078    0.133    0.078    0.133
 mp_irecv_iv                     258048  8.3    0.016    0.130    0.016    0.130
 write_SOC_eigenvalues              148  6.0    0.016    0.127    0.016    0.127
 dbcsr_switch_data_area          102185 10.6    0.093    0.095    0.122    0.126
 dbcsr_scale_anytype               2968  9.0    0.024    0.028    0.111    0.126
 transfer_rs2pw_170                  43  9.0    0.056    0.056    0.117    0.125
 transfer_pw2rs_170                  42 12.0    0.060    0.063    0.115    0.121
 mp_isendrecv_dv                   1183 13.0    0.053    0.117    0.053    0.117
 parser_read_line                  8833  4.0    0.003    0.003    0.104    0.106
 cp_cfm_scale_and_add_fm          15936  7.7    0.102    0.105    0.102    0.105
 parser_read_line_low                26  6.1    0.009    0.038    0.101    0.103
 qs_scf_ensure_work_matrices          1  3.0    0.000    0.000    0.061    0.102
 pw_integral_ab_c1d_c1d_gs           42  9.0    0.097    0.098    0.100    0.100
 broadcast_input_information         26  7.1    0.028    0.037    0.091    0.097
 fft_wrap_pw1pw2_170                 85 10.5    0.008    0.008    0.094    0.096
 cp_fm_cleanup_copy_general       45696  7.1    0.063    0.064    0.092    0.096
 dbcsr_data_copy_aa2              74081 11.3    0.072    0.095    0.072    0.095
 pw_gather_p                        341 11.8    0.089    0.092    0.089    0.092
 mp_isend_iv                     145152  8.3    0.023    0.087    0.023    0.087
 dbcsr_distribution_new           74083  8.6    0.069    0.085    0.069    0.085
 qs_init_subsys                       1  2.0    0.001    0.002    0.083    0.084
 qs_env_setup                         1  3.0    0.000    0.000    0.081    0.081
 qs_env_rebuild_pw_env                2  3.5    0.000    0.000    0.080    0.081
 pw_env_rebuild                       1  5.0    0.001    0.001    0.080    0.081
 dbcsr_get_data_size_used        179233  9.9    0.076    0.080    0.076    0.080
 pw_grid_setup                        4  6.0    0.000    0.000    0.079    0.079
 create_qs_kind_set                   1  2.0    0.000    0.000    0.079    0.079
 pw_grid_setup_internal               4  7.0    0.002    0.002    0.079    0.079
 read_qs_kind                         1  3.0    0.043    0.044    0.079    0.079
 scf_post_calculation_gpw             1  3.0    0.000    0.000    0.078    0.078
 write_available_results              1  4.0    0.000    0.000    0.078    0.078
 write_mo_free_results                1  5.0    0.003    0.003    0.078    0.078
 topology_control                     1  2.0    0.000    0.000    0.074    0.074
 dbcsr_make_dbcsr_index          221435 10.8    0.064    0.069    0.064    0.069
 pw_copy                            630 10.5    0.063    0.064    0.063    0.064
 pw_derive                          378 11.3    0.060    0.063    0.060    0.063
 mp_irecv_im2                    129024  8.3    0.008    0.063    0.008    0.063
 mp_sum_dv                         1361  7.0    0.032    0.060    0.032    0.060
 pw_grid_sort                         4  8.0    0.039    0.040    0.056    0.058
 qs_create_task_list                  1  5.0    0.000    0.000    0.027    0.053
 generate_qs_task_list                1  6.0    0.020    0.039    0.027    0.052
 mp_recv_dv                        8901  7.0    0.007    0.052    0.007    0.052
 read_cell_cif                        2  4.5    0.002    0.005    0.051    0.052
 pw_copy_from_array                 420 12.2    0.041    0.046    0.041    0.046
 cp_fm_create                     22689  7.9    0.042    0.045    0.042    0.045
 coordinate_control                   1  3.0    0.001    0.001    0.044    0.044
 coordinate_control_READ_COORDI       1  4.0    0.000    0.000    0.044    0.044
 read_coordinate_cif                  1  5.0    0.002    0.002    0.044    0.044
 mp_bcast_i_src                     104  8.1    0.036    0.042    0.036    0.042
 mp_isend_im2                     72576  8.3    0.010    0.042    0.010    0.042
 mp_irecv_dv                      64512  8.3    0.037    0.038    0.037    0.038
 hirshfeld_integration                1  6.0    0.019    0.026    0.036    0.036
 mixing_init                          1  5.0    0.033    0.034    0.034    0.034
 pw_poisson_set                      43  8.9    0.001    0.001    0.034    0.034
 calculate_hirshfeld_normalizat       1  6.0    0.015    0.020    0.032    0.033
 fft_wrap_pw1pw2_60                  85 10.5    0.002    0.002    0.028    0.032
 transfer_pw2rs_60                   42 12.0    0.010    0.010    0.028    0.030
 mp_bcast_am_src                     26  8.1    0.015    0.017    0.027    0.029
 -------------------------------------------------------------------------------

 The number of warnings for this run is : 1
 
 -------------------------------------------------------------------------------
  **** **** ******  **  PROGRAM ENDED AT                 2025-08-07 21:57:21.135
 ***** ** ***  *** **   PROGRAM RAN ON                              i03r10c06s10
 **    ****   ******    PROGRAM RAN BY                                   di38fab
 ***** **    ** ** **   PROGRAM PROCESS ID                               1998579
  **** **  *******  **  PROGRAM STOPPED IN /hppfs/scratch/04/di38fab/09_GTH/Delt
                                           a_Set/Bi/aug-SZV-MOLOPT-GTH-tier-2/8x
                                           8x8
