Ti                                      
   1.00000000000000     
     2.936640    0.000000    0.000000
     1.468320    2.543205    0.000000
     0.000000    0.000000    4.651930
   Ti
     2
Direct
  0.000000  0.000000  0.000000
  0.333333  0.333333  0.500000
 
   28   28   48
  530.24      504.75      435.82      342.16      245.02      160.42      96.133      53.045      27.970      15.768    
  10.689      8.2608      7.1149      6.6559      6.5403      6.6561      7.1150      8.2607      10.689      15.768    
  27.970      53.045      96.133      160.42      245.02      342.16      435.82      504.75      504.75      457.37    
  376.20      281.74      192.73      120.69      69.426      37.408      20.342      12.792      9.4780      7.8260    
  7.1001      6.8474      6.8474      7.1001      7.8260      9.4780      12.791      20.342      37.408      69.427    
  120.69      192.73      281.74      376.20      457.37      504.75      435.82      376.20      295.20      211.26    
  138.31      83.107      46.407      25.305      15.153      10.808      8.6337      7.6074      7.1994      7.0977    
  7.1993      7.6074      8.6338      10.808      15.153      25.305      46.407      83.108      138.31      211.26    
  295.20      376.19      435.82      457.86      342.16      281.74      211.26      144.73      90.922      52.907    
  29.568      17.448      12.077      9.4512      8.1326      7.5623      7.3703      7.3703      7.5624      8.1327    
  9.4511      12.077      17.448      29.568      52.907      90.922      144.73      211.26      281.74      342.16    
  377.37      377.37      245.02      192.73      138.31      90.922      55.280      32.038      19.143      13.093    
  10.162      8.6140      7.8974      7.6258      7.5623      7.6259      7.8975      8.6140      10.162      13.093    
  19.143      32.038      55.280      90.922      138.31      192.73      245.02      283.37      297.51      283.37    
  160.42      120.69      83.107      52.907      32.038      19.770      13.668      10.648      8.9841      8.1673    
  7.8335      7.7326      7.7326      7.8335      8.1672      8.9841      10.648      13.668      19.770      32.038    
  52.907      83.108      120.69      160.42      194.33      214.01      214.01      194.33      96.133      69.426    
  46.407      29.568      19.143      13.668      10.821      9.1858      8.3421      7.9760      7.8563      7.8341    
  7.8563      7.9759      8.3419      9.1858      10.821      13.668      19.143      29.568      46.407      69.426    
  96.133      121.81      140.59      147.50      140.59      121.81      53.045      37.408      25.305      17.448    
  13.093      10.648      9.1858      8.4026      8.0476      7.9275      7.9050      7.9051      7.9275      8.0475    
  8.4024      9.1856      10.648      13.093      17.448      25.305      37.408      53.045      69.868      84.315    
  92.714      92.714      84.315      69.868      27.970      20.342      15.153      12.077      10.162      8.9841    
  8.3421      8.0476      7.9502      7.9395      7.9444      7.9396      7.9503      8.0478      8.3421      8.9839    
  10.162      12.077      15.153      20.342      27.969      37.273      46.475      53.299      55.824      53.299    
  46.475      37.274      15.768      12.792      10.808      9.4512      8.6140      8.1673      7.9760      7.9275    
  7.9395      7.9588      7.9588      7.9395      7.9277      7.9764      8.1675      8.6139      9.4510      10.808    
  12.792      15.768      19.886      24.596      28.802      31.298      31.298      28.802      24.596      19.886    
  10.689      9.4780      8.6337      8.1326      7.8974      7.8335      7.8563      7.9050      7.9444      7.9588    
  7.9442      7.9048      7.8564      7.8338      7.8978      8.1329      8.6338      9.4780      10.689      12.235    
  14.119      16.077      17.588      18.158      17.588      16.076      14.119      12.235      8.2608      7.8260    
  7.6074      7.5623      7.6258      7.7326      7.8341      7.9051      7.9396      7.9395      7.9048      7.8338    
  7.7324      7.6258      7.5626      7.6077      7.8261      8.2608      8.9098      9.7089      10.532      11.228    
  11.639      11.639      11.228      10.532      9.7088      8.9098      7.1149      7.1001      7.1994      7.3703    
  7.5623      7.7326      7.8563      7.9275      7.9503      7.9277      7.8564      7.7324      7.5620      7.3700    
  7.1993      7.1002      7.1151      7.2642      7.5349      7.8791      8.2199      8.4711      8.5637      8.4715    
  8.2204      7.8793      7.5348      7.2639      6.6559      6.8474      7.0977      7.3703      7.6259      7.8335    
  7.9759      8.0475      8.0478      7.9764      7.8338      7.6258      7.3700      7.0974      6.8472      6.6560    
  6.5465      6.5231      6.5712      6.6611      6.7541      6.8125      6.8127      6.7544      6.6613      6.5711    
  6.5228      6.5463      6.5403      6.8474      7.1993      7.5624      7.8975      8.1672      8.3419      8.4024    
  8.3421      8.1675      7.8978      7.5626      7.1993      6.8472      6.5400      6.2980      6.1256      6.0152    
  5.9531      5.9242      5.9143      5.9123      5.9140      5.9238      5.9527      6.0150      6.1257      6.2983    
  6.6561      7.1001      7.6074      8.1327      8.6140      8.9841      9.1858      9.1856      8.9839      8.6139    
  8.1329      7.6077      7.1002      6.6560      6.2980      6.0273      5.8299      5.6874      5.5860      5.5189    
  5.4850      5.4848      5.5184      5.5856      5.6874      5.8301      6.0277      6.2983      7.1150      7.8260    
  8.6338      9.4511      10.162      10.648      10.821      10.648      10.162      9.4510      8.6338      7.8261    
  7.1151      6.5465      6.1256      5.8299      5.6252      5.4815      5.3808      5.3186      5.2972      5.3185    
  5.3808      5.4818      5.6257      5.8301      6.1256      6.5463      8.2607      9.4780      10.808      12.077    
  13.093      13.668      13.668      13.093      12.077      10.808      9.4780      8.2608      7.2642      6.5231    
  6.0152      5.6874      5.4815      5.3517      5.2719      5.2327      5.2328      5.2722      5.3521      5.4818    
  5.6875      6.0149      6.5227      7.2639      10.689      12.791      15.153      17.448      19.143      19.770    
  19.143      17.448      15.153      12.792      10.689      8.9098      7.5349      6.5712      5.9531      5.5860    
  5.3808      5.2719      5.2194      5.2039      5.2196      5.2721      5.3808      5.5856      5.9527      6.5710    
  7.5348      8.9098      15.768      20.342      25.305      29.568      32.038      32.038      29.568      25.305    
  20.342      15.768      12.235      9.7089      7.8791      6.6611      5.9242      5.5189      5.3186      5.2327    
  5.2039      5.2039      5.2327      5.3184      5.5185      5.9239      6.6611      7.8793      9.7091      12.235    
  27.970      37.408      46.407      52.907      55.280      52.907      46.407      37.408      27.969      19.886    
  14.119      10.532      8.2199      6.7541      5.9143      5.4850      5.2972      5.2328      5.2196      5.2327    
  5.2970      5.4849      5.9143      6.7544      8.2202      10.532      14.119      19.886      53.045      69.427    
  83.108      90.922      90.922      83.108      69.426      53.045      37.273      24.596      16.077      11.228    
  8.4711      6.8125      5.9123      5.4848      5.3185      5.2722      5.2721      5.3184      5.4849      5.9125    
  6.8128      8.4712      11.228      16.076      24.596      37.273      96.133      120.69      138.31      144.73    
  138.31      120.69      96.133      69.868      46.475      28.802      17.588      11.639      8.5637      6.8127    
  5.9140      5.5184      5.3808      5.3521      5.3808      5.5185      5.9143      6.8128      8.5636      11.639    
  17.588      28.802      46.475      69.867      160.42      192.73      211.26      211.26      192.73      160.42    
  121.81      84.315      53.299      31.298      18.158      11.639      8.4715      6.7544      5.9238      5.5856    
  5.4818      5.4818      5.5856      5.9239      6.7544      8.4712      11.639      18.158      31.298      53.299    
  84.315      121.81      245.02      281.74      295.20      281.74      245.02      194.33      140.59      92.714    
  55.824      31.298      17.588      11.228      8.2204      6.6613      5.9527      5.6874      5.6257      5.6875    
  5.9527      6.6611      8.2202      11.228      17.588      31.298      55.824      92.714      140.59      194.33    
  342.16      376.20      376.19      342.16      283.37      214.01      147.50      92.714      53.299      28.802    
  16.076      10.532      7.8793      6.5711      6.0150      5.8301      5.8301      6.0149      6.5710      7.8793    
  10.532      16.076      28.802      53.299      92.714      147.50      214.01      283.37      435.82      457.37    
  435.82      377.37      297.51      214.01      140.59      84.315      46.475      24.596      14.119      9.7088    
  7.5348      6.5228      6.1257      6.0277      6.1256      6.5227      7.5348      9.7091      14.119      24.596    
  46.475      84.315      140.59      214.01      297.51      377.37      504.75      504.75      457.86      377.37    
  283.37      194.33      121.81      69.868      37.274      19.886      12.235      8.9098      7.2639      6.5463    
  6.2983      6.2983      6.5463      7.2639      8.9098      12.235      19.886      37.273      69.867      121.81    
  194.33      283.37      377.37      457.86      508.23      483.82      417.77      328.01      234.89      153.78    
  92.153      50.910      26.980      15.384      10.536      8.1903      7.0862      6.6461      6.5357      6.6460    
  7.0863      8.1904      10.535      15.384      26.981      50.910      92.153      153.78      234.89      328.01    
  417.77      483.82      483.82      438.42      360.63      270.09      184.76      115.70      66.589      35.986    
  19.737      12.562      9.3702      7.7765      7.0788      6.8372      6.8370      7.0786      7.7767      9.3704    
  12.562      19.736      35.987      66.590      115.70      184.76      270.09      360.63      438.42      483.82    
  417.77      360.63      283.00      202.53      132.59      79.695      44.586      24.463      14.819      10.659    
  8.5605      7.5724      7.1815      7.0846      7.1812      7.5723      8.5607      10.659      14.819      24.463    
  44.586      79.695      132.59      202.53      283.00      360.63      417.77      438.89      328.01      270.09    
  202.53      138.74      87.183      50.803      28.529      17.006      11.890      9.3539      8.0831      7.5358    
  7.3527      7.3527      7.5358      8.0832      9.3539      11.889      17.006      28.529      50.803      87.183    
  138.74      202.53      270.09      328.01      361.75      361.75      234.89      184.76      132.59      87.183    
  53.074      30.886      18.621      12.869      10.044      8.5511      7.8625      7.6032      7.5431      7.6033    
  7.8626      8.5512      10.044      12.869      18.621      30.886      53.074      87.183      132.59      184.76    
  234.89      271.65      285.20      271.65      153.78      115.70      79.695      50.803      30.886      19.218    
  13.422      10.516      8.9109      8.1255      7.8064      7.7110      7.7110      7.8063      8.1254      8.9110    
  10.516      13.422      19.218      30.886      50.803      79.695      115.70      153.78      186.28      205.15    
  205.15      186.28      92.153      66.589      44.586      28.529      18.621      13.422      10.683      9.1071    
  8.2958      7.9455      7.8323      7.8118      7.8324      7.9454      8.2955      9.1070      10.684      13.422    
  18.621      28.529      44.586      66.589      92.153      116.75      134.75      141.37      134.75      116.75    
  50.910      35.986      24.463      17.006      12.869      10.516      9.1071      8.3548      8.0154      7.9018    
  7.8815      7.8816      7.9019      8.0152      8.3545      9.1069      10.516      12.869      17.006      24.463    
  35.986      50.910      66.991      80.814      88.854      88.853      80.814      66.991      26.980      19.737    
  14.819      11.890      10.044      8.9109      8.2958      8.0154      7.9240      7.9152      7.9204      7.9153    
  7.9242      8.0154      8.2957      8.9108      10.044      11.889      14.819      19.737      26.980      35.837    
  44.613      51.127      53.539      51.127      44.613      35.838      15.384      12.562      10.659      9.3539    
  8.5511      8.1255      7.9455      7.9018      7.9152      7.9345      7.9345      7.9152      7.9020      7.9458    
  8.1257      8.5511      9.3537      10.659      12.562      15.384      19.284      23.752      27.748      30.121    
  30.121      27.748      23.752      19.284      10.536      9.3702      8.5605      8.0831      7.8625      7.8064    
  7.8323      7.8815      7.9204      7.9345      7.9203      7.8814      7.8324      7.8066      7.8628      8.0834    
  8.5606      9.3702      10.536      12.015      13.801      15.652      17.081      17.621      17.081      15.652    
  13.801      12.015      8.1903      7.7765      7.5724      7.5358      7.6032      7.7110      7.8118      7.8816    
  7.9153      7.9152      7.8814      7.8115      7.7108      7.6032      7.5360      7.5727      7.7767      8.1904    
  8.8119      9.5794      10.371      11.037      11.427      11.427      11.037      10.371      9.5794      8.8119    
  7.0862      7.0788      7.1815      7.3527      7.5431      7.7110      7.8324      7.9019      7.9242      7.9020    
  7.8324      7.7108      7.5428      7.3524      7.1813      7.0788      7.0865      7.2241      7.4800      7.8079    
  8.1336      8.3740      8.4627      8.3744      8.1341      7.8081      7.4799      7.2238      6.6461      6.8372    
  7.0846      7.3527      7.6033      7.8063      7.9454      8.0152      8.0154      7.9458      7.8066      7.6032    
  7.3524      7.0842      6.8369      6.6460      6.5340      6.5053      6.5463      6.6286      6.7151      6.7698    
  6.7700      6.7155      6.6288      6.5461      6.5050      6.5338      6.5357      6.8370      7.1812      7.5358    
  7.8626      8.1254      8.2955      8.3545      8.2957      8.1257      7.8628      7.5360      7.1813      6.8369    
  6.5353      6.2963      6.1242      6.0119      5.9467      5.9146      5.9022      5.8994      5.9020      5.9143    
  5.9464      6.0118      6.1244      6.2966      6.6460      7.0786      7.5723      8.0832      8.5512      8.9110    
  9.1070      9.1069      8.9108      8.5511      8.0834      7.5727      7.0788      6.6460      6.2963      6.0305    
  5.8350      5.6923      5.5896      5.5211      5.4863      5.4861      5.5206      5.5892      5.6923      5.8353    
  6.0309      6.2966      7.0863      7.7767      8.5607      9.3539      10.044      10.516      10.684      10.516    
  10.044      9.3537      8.5606      7.7767      7.0865      6.5340      6.1242      5.8350      5.6332      5.4899    
  5.3886      5.3256      5.3037      5.3253      5.3885      5.4902      5.6336      5.8352      6.1241      6.5337    
  8.1904      9.3704      10.659      11.889      12.869      13.422      13.422      12.869      11.889      10.659    
  9.3702      8.1904      7.2241      6.5053      6.0119      5.6923      5.4899      5.3608      5.2805      5.2406    
  5.2407      5.2807      5.3612      5.4903      5.6924      6.0117      6.5049      7.2239      10.535      12.562    
  14.819      17.006      18.621      19.218      18.621      17.006      14.819      12.562      10.536      8.8119    
  7.4800      6.5463      5.9467      5.5896      5.3886      5.2805      5.2274      5.2116      5.2277      5.2807    
  5.3885      5.5893      5.9464      6.5461      7.4801      8.8120      15.384      19.736      24.463      28.529    
  30.886      30.886      28.529      24.463      19.737      15.384      12.015      9.5794      7.8079      6.6286    
  5.9146      5.5211      5.3256      5.2406      5.2116      5.2117      5.2407      5.3253      5.5207      5.9143    
  6.6287      7.8081      9.5796      12.015      26.981      35.987      44.586      50.803      53.074      50.803    
  44.586      35.986      26.980      19.284      13.801      10.371      8.1336      6.7151      5.9022      5.4863    
  5.3037      5.2407      5.2277      5.2407      5.3036      5.4861      5.9022      6.7154      8.1339      10.371    
  13.801      19.284      50.910      66.590      79.695      87.183      87.183      79.695      66.589      50.910    
  35.837      23.752      15.652      11.037      8.3740      6.7698      5.8994      5.4861      5.3253      5.2807    
  5.2807      5.3253      5.4861      5.8995      6.7702      8.3742      11.036      15.652      23.752      35.838    
  92.153      115.70      132.59      138.74      132.59      115.70      92.153      66.991      44.613      27.748    
  17.081      11.427      8.4627      6.7700      5.9020      5.5206      5.3885      5.3612      5.3885      5.5207    
  5.9022      6.7702      8.4627      11.427      17.081      27.748      44.613      66.991      153.78      184.76    
  202.53      202.53      184.76      153.78      116.75      80.814      51.127      30.121      17.621      11.427    
  8.3744      6.7155      5.9143      5.5892      5.4902      5.4903      5.5893      5.9143      6.7154      8.3742    
  11.427      17.621      30.121      51.127      80.814      116.75      234.89      270.09      283.00      270.09    
  234.89      186.28      134.75      88.854      53.539      30.121      17.081      11.037      8.1341      6.6288    
  5.9464      5.6923      5.6336      5.6924      5.9464      6.6287      8.1339      11.036      17.081      30.121    
  53.539      88.853      134.75      186.28      328.01      360.63      360.63      328.01      271.65      205.15    
  141.37      88.853      51.127      27.748      15.652      10.371      7.8081      6.5461      6.0118      5.8353    
  5.8352      6.0117      6.5461      7.8081      10.371      15.652      27.748      51.127      88.853      141.37    
  205.15      271.65      417.77      438.42      417.77      361.75      285.20      205.15      134.75      80.814    
  44.613      23.752      13.801      9.5794      7.4799      6.5050      6.1244      6.0309      6.1241      6.5049    
  7.4801      9.5796      13.801      23.752      44.613      80.814      134.75      205.15      285.21      361.75    
  483.82      483.82      438.89      361.75      271.65      186.28      116.75      66.991      35.838      19.284    
  12.015      8.8119      7.2238      6.5338      6.2966      6.2966      6.5337      7.2239      8.8120      12.015    
  19.284      35.838      66.991      116.75      186.28      271.65      361.75      438.89      447.94      426.45    
  368.29      289.20      207.08      135.53      81.243      45.079      24.295      14.342      10.103      7.9907    
  7.0035      6.6156      6.5200      6.6155      7.0036      7.9910      10.103      14.342      24.295      45.079    
  81.242      135.53      207.08      289.20      368.29      426.45      426.45      386.48      317.96      238.14    
  162.87      101.99      58.824      32.113      18.095      11.929      9.0658      7.6354      7.0161      6.8056    
  6.8053      7.0159      7.6357      9.0660      11.929      18.095      32.114      58.824      101.99      162.87    
  238.14      317.96      386.48      426.45      368.29      317.96      249.53      178.56      116.89      70.344    
  39.615      22.179      13.907      10.240      8.3527      7.4713      7.1283      7.0449      7.1280      7.4713    
  8.3530      10.240      13.907      22.179      39.615      70.345      116.89      178.56      249.53      317.96    
  368.29      386.89      289.20      238.14      178.56      122.32      76.935      45.054      25.702      15.805    
  11.360      9.0785      7.9417      7.4586      7.3007      7.3007      7.4586      7.9418      9.0785      11.360    
  15.804      25.702      45.054      76.935      122.32      178.56      238.14      289.20      318.94      318.94    
  207.08      162.87      116.89      76.935      47.044      27.751      17.203      12.246      9.7094      8.3725    
  7.7623      7.5375      7.4871      7.5377      7.7623      8.3725      9.7095      12.247      17.203      27.750    
  47.043      76.935      116.89      162.87      207.08      239.49      251.45      239.49      135.53      101.99    
  70.344      45.054      27.751      17.719      12.741      10.141      8.7036      8.0063      7.7285      7.6486    
  7.6486      7.7285      8.0062      8.7036      10.141      12.741      17.719      27.750      45.054      70.344    
  101.99      135.53      164.18      180.82      180.81      164.18      81.243      58.824      39.615      25.702    
  17.203      12.741      10.294      8.8840      8.1642      7.8587      7.7639      7.7481      7.7640      7.8585    
  8.1639      8.8840      10.295      12.741      17.203      25.703      39.615      58.824      81.243      102.87    
  118.70      124.54      118.70      102.87      45.079      32.113      22.179      15.805      12.246      10.141    
  8.8840      8.2189      7.9239      7.8293      7.8150      7.8152      7.8295      7.9236      8.2185      8.8839    
  10.141      12.246      15.805      22.179      32.113      45.079      59.120      71.225      78.275      78.275    
  71.225      59.121      24.295      18.095      13.907      11.360      9.7094      8.7036      8.1642      7.9239    
  7.8501      7.8467      7.8530      7.8470      7.8502      7.9238      8.1641      8.7035      9.7091      11.360    
  13.907      18.095      24.295      31.931      39.535      45.199      47.299      45.199      39.536      31.931    
  14.342      11.929      10.240      9.0785      8.3725      8.0063      7.8587      7.8293      7.8467      7.8663    
  7.8664      7.8469      7.8295      7.8589      8.0065      8.3724      9.0782      10.240      11.929      14.342    
  17.655      21.466      24.890      26.929      26.929      24.889      21.466      17.655      10.103      9.0658    
  8.3527      7.9417      7.7623      7.7285      7.7639      7.8150      7.8530      7.8664      7.8529      7.8150    
  7.7639      7.7287      7.7626      7.9420      8.3528      9.0658      10.103      11.411      12.939      14.507    
  15.718      16.175      15.717      14.507      12.939      11.411      7.9907      7.6354      7.4713      7.4586    
  7.5375      7.6486      7.7481      7.8152      7.8470      7.8469      7.8150      7.7478      7.6484      7.5376    
  7.4589      7.4716      7.6357      7.9909      8.5364      9.2166      9.9215      10.509      10.848      10.848    
  10.509      9.9215      9.2166      8.5364      7.0035      7.0161      7.1283      7.3007      7.4871      7.6486    
  7.7640      7.8295      7.8502      7.8295      7.7639      7.6484      7.4867      7.3004      7.1282      7.0162    
  7.0038      7.1103      7.3258      7.6090      7.8934      8.1043      8.1823      8.1047      7.8939      7.6092    
  7.3256      7.1099      6.6156      6.8056      7.0449      7.3007      7.5377      7.7285      7.8585      7.9236    
  7.9238      7.8589      7.7287      7.5376      7.3004      7.0446      6.8052      6.6155      6.4969      6.4543    
  6.4764      6.5385      6.6078      6.6526      6.6529      6.6083      6.5387      6.4763      6.4540      6.4967    
  6.5200      6.8053      7.1280      7.4586      7.7623      8.0062      8.1639      8.2185      8.1641      8.0065    
  7.7626      7.4589      7.1282      6.8052      6.5196      6.2893      6.1187      6.0022      5.9294      5.8891    
  5.8706      5.8655      5.8705      5.8888      5.9291      6.0021      6.1189      6.2897      6.6155      7.0159    
  7.4713      7.9418      8.3725      8.7036      8.8840      8.8839      8.7035      8.3724      7.9420      7.4716    
  7.0162      6.6155      6.2893      6.0377      5.8483      5.7060      5.6006      5.5289      5.4920      5.4918    
  5.5284      5.6002      5.7060      5.8486      6.0381      6.2896      7.0036      7.6357      8.3530      9.0785    
  9.7095      10.141      10.295      10.141      9.7091      9.0782      8.3528      7.6357      7.0038      6.4969    
  6.1187      5.8483      5.6553      5.5140      5.4115      5.3466      5.3240      5.3464      5.4114      5.5143    
  5.6557      5.8485      6.1186      6.4966      7.9910      9.0660      10.240      11.360      12.247      12.741    
  12.741      12.246      11.360      10.240      9.0658      7.9909      7.1103      6.4543      6.0022      5.7060    
  5.5140      5.3873      5.3058      5.2645      5.2645      5.3060      5.3877      5.5144      5.7061      6.0019    
  6.4539      7.1101      10.103      11.929      13.907      15.804      17.203      17.719      17.203      15.805    
  13.907      11.929      10.103      8.5364      7.3258      6.4764      5.9294      5.6006      5.4115      5.3058    
  5.2517      5.2349      5.2519      5.3061      5.4115      5.6003      5.9292      6.4763      7.3259      8.5365    
  14.342      18.095      22.179      25.702      27.750      27.750      25.703      22.179      18.095      14.342    
  11.411      9.2166      7.6090      6.5385      5.8891      5.5289      5.3466      5.2645      5.2349      5.2351    
  5.2647      5.3464      5.5284      5.8889      6.5386      7.6092      9.2168      11.411      24.295      32.114    
  39.615      45.054      47.043      45.054      39.615      32.113      24.295      17.655      12.939      9.9215    
  7.8934      6.6078      5.8706      5.4920      5.3240      5.2645      5.2519      5.2647      5.3239      5.4916    
  5.8705      6.6082      7.8937      9.9214      12.939      17.655      45.079      58.824      70.345      76.935    
  76.935      70.344      58.824      45.079      31.931      21.466      14.507      10.509      8.1043      6.6526    
  5.8655      5.4918      5.3464      5.3060      5.3061      5.3464      5.4916      5.8655      6.6531      8.1046    
  10.509      14.507      21.466      31.931      81.242      101.99      116.89      122.32      116.89      101.99    
  81.243      59.120      39.535      24.890      15.718      10.848      8.1823      6.6529      5.8705      5.5284    
  5.4114      5.3877      5.4115      5.5284      5.8705      6.6531      8.1825      10.848      15.717      24.890    
  39.536      59.120      135.53      162.87      178.56      178.56      162.87      135.53      102.87      71.225    
  45.199      26.929      16.175      10.848      8.1047      6.6083      5.8888      5.6002      5.5143      5.5144    
  5.6003      5.8889      6.6082      8.1046      10.848      16.175      26.929      45.199      71.225      102.87    
  207.08      238.14      249.53      238.14      207.08      164.18      118.70      78.275      47.299      26.929    
  15.717      10.509      7.8939      6.5387      5.9291      5.7060      5.6557      5.7061      5.9292      6.5386    
  7.8937      10.509      15.717      26.929      47.299      78.275      118.70      164.18      289.20      317.96    
  317.96      289.20      239.49      180.82      124.54      78.275      45.199      24.889      14.507      9.9215    
  7.6092      6.4763      6.0021      5.8486      5.8485      6.0019      6.4763      7.6092      9.9214      14.507    
  24.890      45.199      78.275      124.54      180.82      239.49      368.29      386.48      368.29      318.94    
  251.45      180.81      118.70      71.225      39.536      21.466      12.939      9.2166      7.3256      6.4540    
  6.1189      6.0381      6.1186      6.4539      7.3259      9.2168      12.939      21.466      39.536      71.225    
  118.70      180.82      251.45      318.94      426.45      426.45      386.89      318.94      239.49      164.18    
  102.87      59.121      31.931      17.655      11.411      8.5364      7.1099      6.4967      6.2897      6.2896    
  6.4966      7.1101      8.5365      11.411      17.655      31.931      59.120      102.87      164.18      239.49    
  318.94      386.89      363.92      346.49      299.28      235.01      168.22      110.04      66.053      37.028    
  20.634      12.918      9.4692      7.6953      6.8773      6.5647      6.4901      6.5645      6.8774      7.6955    
  9.4691      12.917      20.634      37.028      66.052      110.04      168.22      235.01      299.28      346.49    
  346.49      314.05      258.39      193.50      132.29      82.868      48.050      26.796      15.861      11.023    
  8.6166      7.4238      6.9180      6.7521      6.7519      6.9178      7.4240      8.6169      11.023      15.861    
  26.796      48.050      82.868      132.29      193.50      258.39      314.05      346.49      299.28      258.39    
  202.77      145.06      94.969      57.338      32.758      19.060      12.643      9.6231      8.0436      7.3174    
  7.0438      6.9799      7.0435      7.3174      8.0438      9.6230      12.643      19.060      32.758      57.339    
  94.969      145.06      202.77      258.39      299.28      314.38      235.01      193.50      145.06      99.385    
  62.667      37.104      21.832      14.155      10.583      8.6706      7.7293      7.3397      7.2183      7.2183    