Ti                                      
   1.00000000000000     
     2.936640    0.000000    0.000000
     1.468320    2.543205    0.000000
     0.000000    0.000000    4.651930
   Ti
     2
Direct
  0.000000  0.000000  0.000000
  0.333333  0.333333  0.500000
 
   28   28   48
 0.53023750352E+03 0.50475377179E+03 0.43581827472E+03 0.34215787348E+03 0.24502400557E+03
 0.16042414290E+03 0.96133220339E+02 0.53045021803E+02 0.27969555203E+02 0.15767659231E+02
 0.10689274345E+02 0.82608129679E+01 0.71149296583E+01 0.66559367305E+01 0.65403176296E+01
 0.66560857582E+01 0.71150050346E+01 0.82607082922E+01 0.10689157989E+02 0.15767711083E+02
 0.27969687119E+02 0.53045010108E+02 0.96133047639E+02 0.16042403125E+03 0.24502409756E+03
 0.34215804406E+03 0.43581833694E+03 0.50475373677E+03 0.50475377179E+03 0.45736760251E+03
 0.37619530613E+03 0.28173987277E+03 0.19273152741E+03 0.12069303390E+03 0.69426302581E+02
 0.37408130848E+02 0.20342175023E+02 0.12791534761E+02 0.94779747880E+01 0.78259691292E+01
 0.71001174620E+01 0.68474286879E+01 0.68473845524E+01 0.71000740703E+01 0.78260182051E+01
 0.94780070252E+01 0.12791414977E+02 0.20342046175E+02 0.37408292388E+02 0.69426747006E+02
 0.12069334456E+03 0.19273138810E+03 0.28173950703E+03 0.37619518735E+03 0.45736781366E+03
 0.50475392823E+03 0.43581827472E+03 0.37619530613E+03 0.29520071575E+03 0.21126372735E+03
 0.13830639588E+03 0.83107340939E+02 0.46406809519E+02 0.25304717996E+02 0.15153363746E+02
 0.10807940452E+02 0.86336651767E+01 0.76074256110E+01 0.71993904331E+01 0.70977280654E+01
 0.71992709624E+01 0.76074082954E+01 0.86337775396E+01 0.10807916708E+02 0.15153097761E+02
 0.25304551483E+02 0.46407102140E+02 0.83107885700E+02 0.13830658045E+03 0.21126329146E+03
 0.29520005969E+03 0.37619493882E+03 0.43581822454E+03 0.45785940207E+03 0.34215787348E+03
 0.28173987277E+03 0.21126372735E+03 0.14472518558E+03 0.90921840577E+02 0.52906893656E+02
 0.29567668015E+02 0.17447858415E+02 0.12077383059E+02 0.94511683995E+01 0.81326366749E+01
 0.75623480653E+01 0.73702774619E+01 0.73703198083E+01 0.75624339947E+01 0.81326843945E+01
 0.94511324744E+01 0.12077285877E+02 0.17447758338E+02 0.29567611140E+02 0.52906885300E+02
 0.90921833569E+02 0.14472508913E+03 0.21126346291E+03 0.28173946377E+03 0.34215748204E+03
 0.37736540138E+03 0.37736556438E+03 0.24502400557E+03 0.19273152741E+03 0.13830639588E+03
 0.90921840577E+02 0.55279941665E+02 0.32037841664E+02 0.19142937072E+02 0.13092666118E+02
 0.10162089727E+02 0.86139571470E+01 0.78974353710E+01 0.76257889626E+01 0.75623354221E+01
 0.76258816168E+01 0.78974973233E+01 0.86139671951E+01 0.10162169106E+02 0.13092825313E+02
 0.19142956128E+02 0.32037561173E+02 0.55279572102E+02 0.90921774305E+02 0.13830671255E+03
 0.19273188358E+03 0.24502408661E+03 0.28336550665E+03 0.29750765824E+03 0.28336560649E+03
 0.16042414290E+03 0.12069303390E+03 0.83107340939E+02 0.52906893656E+02 0.32037841664E+02
 0.19769607232E+02 0.13668187647E+02 0.10648265999E+02 0.89840577065E+01 0.81672752389E+01
 0.78335407836E+01 0.77326356146E+01 0.77326063180E+01 0.78334665456E+01 0.81672252970E+01
 0.89841425677E+01 0.10648496082E+02 0.13668381336E+02 0.19769562072E+02 0.32037620854E+02
 0.52906831977E+02 0.83107690962E+02 0.12069367339E+03 0.16042471718E+03 0.19433041833E+03
 0.21401408850E+03 0.21401401358E+03 0.19433011909E+03 0.96133220339E+02 0.69426302581E+02
 0.46406809519E+02 0.29567668015E+02 0.19142937072E+02 0.13668187647E+02 0.10821366704E+02
 0.91858470596E+01 0.83420658182E+01 0.79760249501E+01 0.78563496183E+01 0.78341457928E+01
 0.78563097840E+01 0.79759138320E+01 0.83419086981E+01 0.91857535551E+01 0.10821426846E+02
 0.13668361540E+02 0.19143091689E+02 0.29567727273E+02 0.46406836727E+02 0.69426421537E+02
 0.96133474935E+02 0.12181104318E+03 0.14059109561E+03 0.14750381769E+03 0.14059089103E+03
 0.12181073950E+03 0.53045021803E+02 0.37408130848E+02 0.25304717996E+02 0.17447858415E+02
 0.13092666118E+02 0.10648265999E+02 0.91858470596E+01 0.84026442445E+01 0.80475983928E+01
 0.79274565079E+01 0.79050342848E+01 0.79050837113E+01 0.79275226794E+01 0.80475320761E+01
 0.84024132147E+01 0.91855992089E+01 0.10648187700E+02 0.13092778083E+02 0.17447974479E+02
 0.25304626324E+02 0.37407810785E+02 0.53044661091E+02 0.69867591518E+02 0.84315055473E+02
 0.92714170169E+02 0.92714153041E+02 0.84315084458E+02 0.69867795633E+02 0.27969555203E+02
 0.20342175023E+02 0.15153363746E+02 0.12077383059E+02 0.10162089727E+02 0.89840577065E+01
 0.83420658182E+01 0.80475983928E+01 0.79501927357E+01 0.79394951924E+01 0.79443883456E+01
 0.79395581395E+01 0.79503391105E+01 0.80477571399E+01 0.83420781640E+01 0.89838587397E+01
 0.10161818589E+02 0.12077227589E+02 0.15153323881E+02 0.20342068097E+02 0.27969258448E+02
 0.37273174787E+02 0.46474836746E+02 0.53298788814E+02 0.55824350785E+02 0.53298940282E+02
 0.46475154094E+02 0.37273572478E+02 0.15767659231E+02 0.12791534761E+02 0.10807940452E+02
 0.94511683995E+01 0.86139571470E+01 0.81672752389E+01 0.79760249501E+01 0.79274565079E+01
 0.79394951924E+01 0.79588116479E+01 0.79587602831E+01 0.79394768137E+01 0.79276638631E+01
 0.79763828302E+01 0.81674897566E+01 0.86138797572E+01 0.94509661293E+01 0.10807855210E+02
 0.12791591776E+02 0.15767708639E+02 0.19886207393E+02 0.24596244274E+02 0.28802263231E+02
 0.31298117434E+02 0.31298099653E+02 0.28802254796E+02 0.24596288309E+02 0.19886241057E+02
 0.10689274345E+02 0.94779747880E+01 0.86336651767E+01 0.81326366749E+01 0.78974353710E+01
 0.78335407836E+01 0.78563496183E+01 0.79050342848E+01 0.79443883456E+01 0.79587602831E+01
 0.79441945871E+01 0.79048432108E+01 0.78563583642E+01 0.78337738502E+01 0.78977589818E+01
 0.81328975907E+01 0.86337906949E+01 0.94779813481E+01 0.10689244417E+02 0.12234900528E+02
 0.14119237703E+02 0.16076656291E+02 0.17587777655E+02 0.18158483632E+02 0.17587528581E+02
 0.16076331523E+02 0.14119022968E+02 0.12234848383E+02 0.82608129679E+01 0.78259691292E+01
 0.76074256110E+01 0.75623480653E+01 0.76257889626E+01 0.77326356146E+01 0.78341457928E+01
 0.79050837113E+01 0.79395581395E+01 0.79394768137E+01 0.79048432108E+01 0.78338141464E+01
 0.77323937244E+01 0.76258101836E+01 0.75626119159E+01 0.76077198459E+01 0.78261086932E+01
 0.82608097977E+01 0.89097539312E+01 0.97088802975E+01 0.10532208251E+02 0.11228462899E+02
 0.11639417108E+02 0.11639425114E+02 0.11228458130E+02 0.10532164430E+02 0.97088416787E+01
 0.89097680683E+01 0.71149296583E+01 0.71001174620E+01 0.71993904331E+01 0.73702774619E+01
 0.75623354221E+01 0.77326063180E+01 0.78563097840E+01 0.79275226794E+01 0.79503391105E+01
 0.79276638631E+01 0.78563583642E+01 0.77323937244E+01 0.75619612406E+01 0.73699802148E+01
 0.71993036697E+01 0.71002186152E+01 0.71151472486E+01 0.72641680265E+01 0.75348567139E+01
 0.78790606074E+01 0.82199336292E+01 0.84710687369E+01 0.85637224374E+01 0.84714812863E+01
 0.82204147641E+01 0.78792747252E+01 0.75347562174E+01 0.72639249719E+01 0.66559367305E+01
 0.68474286879E+01 0.70977280654E+01 0.73703198083E+01 0.76258816168E+01 0.78334665456E+01
 0.79759138320E+01 0.80475320761E+01 0.80477571399E+01 0.79763828302E+01 0.78337738502E+01
 0.76258101836E+01 0.73699802148E+01 0.70973746468E+01 0.68472397178E+01 0.66559661267E+01
 0.65465074544E+01 0.65230585399E+01 0.65711738856E+01 0.66611273275E+01 0.67541156402E+01
 0.68125068587E+01 0.68126624703E+01 0.67544273133E+01 0.66612995487E+01 0.65710719356E+01
 0.65227982235E+01 0.65462955099E+01 0.65403176296E+01 0.68473845524E+01 0.71992709624E+01
 0.75624339947E+01 0.78974973233E+01 0.81672252970E+01 0.83419086981E+01 0.84024132147E+01
 0.83420781640E+01 0.81674897566E+01 0.78977589818E+01 0.75626119159E+01 0.71993036697E+01
 0.68472397178E+01 0.65400373606E+01 0.62980107318E+01 0.61256237475E+01 0.60151782445E+01
 0.59530630904E+01 0.59241945146E+01 0.59142620675E+01 0.59122812252E+01 0.59140356025E+01
 0.59238264346E+01 0.59527129673E+01 0.60150157552E+01 0.61257208730E+01 0.62982857822E+01
 0.66560857582E+01 0.71000740703E+01 0.76074082954E+01 0.81326843945E+01 0.86139671951E+01
 0.89841425677E+01 0.91857535551E+01 0.91855992089E+01 0.89838587397E+01 0.86138797572E+01
 0.81328975907E+01 0.76077198459E+01 0.71002186152E+01 0.66559661267E+01 0.62980107318E+01
 0.60273094673E+01 0.58298699852E+01 0.56873989889E+01 0.55859618742E+01 0.55189334757E+01
 0.54850146588E+01 0.54847854050E+01 0.55184377394E+01 0.55855836210E+01 0.56873674957E+01
 0.58301355320E+01 0.60276856939E+01 0.62983254672E+01 0.71150050346E+01 0.78260182051E+01
 0.86337775396E+01 0.94511324744E+01 0.10162169106E+02 0.10648496082E+02 0.10821426846E+02
 0.10648187700E+02 0.10161818589E+02 0.94509661293E+01 0.86337906949E+01 0.78261086932E+01
 0.71151472486E+01 0.65465074544E+01 0.61256237475E+01 0.58298699852E+01 0.56252367628E+01
 0.54814640931E+01 0.53808302490E+01 0.53186151837E+01 0.52971519839E+01 0.53184632739E+01
 0.53808199020E+01 0.54817711752E+01 0.56256690386E+01 0.58301032747E+01 0.61255702811E+01
 0.65463333009E+01 0.82607082922E+01 0.94780070252E+01 0.10807916708E+02 0.12077285877E+02
 0.13092825313E+02 0.13668381336E+02 0.13668361540E+02 0.13092778083E+02 0.12077227589E+02
 0.10807855210E+02 0.94779813481E+01 0.82608097977E+01 0.72641680265E+01 0.65230585399E+01
 0.60151782445E+01 0.56873989889E+01 0.54814640931E+01 0.53516796742E+01 0.52719053970E+01
 0.52326679797E+01 0.52327512563E+01 0.52721605653E+01 0.53520588127E+01 0.54817940593E+01
 0.56874717333E+01 0.60149432747E+01 0.65226835742E+01 0.72638815181E+01 0.10689157989E+02
 0.12791414977E+02 0.15153097761E+02 0.17447758338E+02 0.19142956128E+02 0.19769562072E+02
 0.19143091689E+02 0.17447974479E+02 0.15153323881E+02 0.12791591776E+02 0.10689244417E+02
 0.89097539312E+01 0.75348567139E+01 0.65711738856E+01 0.59530630904E+01 0.55859618742E+01
 0.53808302490E+01 0.52719053970E+01 0.52193908040E+01 0.52038585358E+01 0.52196252745E+01
 0.52721078575E+01 0.53807608861E+01 0.55856498971E+01 0.59527392891E+01 0.65710140306E+01
 0.75348408765E+01 0.89097500946E+01 0.15767711083E+02 0.20342046175E+02 0.25304551483E+02
 0.29567611140E+02 0.32037561173E+02 0.32037620854E+02 0.29567727273E+02 0.25304626324E+02
 0.20342068097E+02 0.15767708639E+02 0.12234900528E+02 0.97088802975E+01 0.78790606074E+01
 0.66611273275E+01 0.59241945146E+01 0.55189334757E+01 0.53186151837E+01 0.52326679797E+01
 0.52038585358E+01 0.52039151812E+01 0.52326926046E+01 0.53183898829E+01 0.55185114506E+01
 0.59238831086E+01 0.66611345218E+01 0.78792824113E+01 0.97090764497E+01 0.12234970708E+02
 0.27969687119E+02 0.37408292388E+02 0.46407102140E+02 0.52906885300E+02 0.55279572102E+02
 0.52906831977E+02 0.46406836727E+02 0.37407810785E+02 0.27969258448E+02 0.19886207393E+02
 0.14119237703E+02 0.10532208251E+02 0.82199336292E+01 0.67541156402E+01 0.59142620675E+01
 0.54850146588E+01 0.52971519839E+01 0.52327512563E+01 0.52196252745E+01 0.52326926046E+01
 0.52969996012E+01 0.54848517049E+01 0.59142767466E+01 0.67543538098E+01 0.82201842119E+01
 0.10532260331E+02 0.14119184795E+02 0.19886345281E+02 0.53045010108E+02 0.69426747006E+02
 0.83107885700E+02 0.90921833569E+02 0.90921774305E+02 0.83107690962E+02 0.69426421537E+02
 0.53044661091E+02 0.37273174787E+02 0.24596244274E+02 0.16076656291E+02 0.11228462899E+02
 0.84710687369E+01 0.68125068587E+01 0.59122812252E+01 0.54847854050E+01 0.53184632739E+01
 0.52721605653E+01 0.52721078575E+01 0.53183898829E+01 0.54848517049E+01 0.59125392076E+01
 0.68128202261E+01 0.84712294161E+01 0.11228393305E+02 0.16076491466E+02 0.24596207503E+02
 0.37273373958E+02 0.96133047639E+02 0.12069334456E+03 0.13830658045E+03 0.14472508913E+03
 0.13830671255E+03 0.12069367339E+03 0.96133474935E+02 0.69867591518E+02 0.46474836746E+02
 0.28802263231E+02 0.17587777655E+02 0.11639417108E+02 0.85637224374E+01 0.68126624703E+01
 0.59140356025E+01 0.55184377394E+01 0.53808199020E+01 0.53520588127E+01 0.53807608861E+01
 0.55185114506E+01 0.59142767466E+01 0.68128202261E+01 0.85635937057E+01 0.11639155944E+02
 0.17587697628E+02 0.28802398075E+02 0.46474890415E+02 0.69867341159E+02 0.16042403125E+03
 0.19273138810E+03 0.21126329146E+03 0.21126346291E+03 0.19273188358E+03 0.16042471718E+03
 0.12181104318E+03 0.84315055473E+02 0.53298788814E+02 0.31298117434E+02 0.18158483632E+02
 0.11639425114E+02 0.84714812863E+01 0.67544273133E+01 0.59238264346E+01 0.55855836210E+01
 0.54817711752E+01 0.54817940593E+01 0.55856498971E+01 0.59238831086E+01 0.67543538098E+01
 0.84712294161E+01 0.11639155944E+02 0.18158443822E+02 0.31298333839E+02 0.53298970252E+02
 0.84314872851E+02 0.12181046935E+03 0.24502409756E+03 0.28173950703E+03 0.29520005969E+03
 0.28173946377E+03 0.24502408661E+03 0.19433041833E+03 0.14059109561E+03 0.92714170169E+02
 0.55824350785E+02 0.31298099653E+02 0.17587528581E+02 0.11228458130E+02 0.82204147641E+01
 0.66612995487E+01 0.59527129673E+01 0.56873674957E+01 0.56256690386E+01 0.56874717333E+01
 0.59527392891E+01 0.66611345218E+01 0.82201842119E+01 0.11228393305E+02 0.17587697628E+02
 0.31298333839E+02 0.55824436388E+02 0.92714061951E+02 0.14059092291E+03 0.19433032363E+03
 0.34215804406E+03 0.37619518735E+03 0.37619493882E+03 0.34215748204E+03 0.28336550665E+03
 0.21401408850E+03 0.14750381769E+03 0.92714153041E+02 0.53298940282E+02 0.28802254796E+02
 0.16076331523E+02 0.10532164430E+02 0.78792747252E+01 0.65710719356E+01 0.60150157552E+01
 0.58301355320E+01 0.58301032747E+01 0.60149432747E+01 0.65710140306E+01 0.78792824113E+01
 0.10532260331E+02 0.16076491466E+02 0.28802398075E+02 0.53298970252E+02 0.92714061951E+02
 0.14750375827E+03 0.21401427970E+03 0.28336600356E+03 0.43581833694E+03 0.45736781366E+03
 0.43581822454E+03 0.37736540138E+03 0.29750765824E+03 0.21401401358E+03 0.14059089103E+03
 0.84315084458E+02 0.46475154094E+02 0.24596288309E+02 0.14119022968E+02 0.97088416787E+01
 0.75347562174E+01 0.65227982235E+01 0.61257208730E+01 0.60276856939E+01 0.61255702811E+01
 0.65226835742E+01 0.75348408765E+01 0.97090764497E+01 0.14119184795E+02 0.24596207503E+02
 0.46474890415E+02 0.84314872851E+02 0.14059092291E+03 0.21401427970E+03 0.29750799279E+03
 0.37736564784E+03 0.50475373677E+03 0.50475392823E+03 0.45785940207E+03 0.37736556438E+03
 0.28336560649E+03 0.19433011909E+03 0.12181073950E+03 0.69867795633E+02 0.37273572478E+02
 0.19886241057E+02 0.12234848383E+02 0.89097680683E+01 0.72639249719E+01 0.65462955099E+01
 0.62982857822E+01 0.62983254672E+01 0.65463333009E+01 0.72638815181E+01 0.89097500946E+01
 0.12234970708E+02 0.19886345281E+02 0.37273373958E+02 0.69867341159E+02 0.12181046935E+03
 0.19433032363E+03 0.28336600356E+03 0.37736564784E+03 0.45785912123E+03 0.50823075844E+03
 0.48381791701E+03 0.41776966982E+03 0.32800909255E+03 0.23489149881E+03 0.15377592870E+03
 0.92153110964E+02 0.50910126020E+02 0.26980382757E+02 0.15383625789E+02 0.10535560295E+02
 0.81902807267E+01 0.70862324655E+01 0.66460587346E+01 0.65356605127E+01 0.66460139260E+01
 0.70863053324E+01 0.81903768832E+01 0.10535475784E+02 0.15383522380E+02 0.26980511367E+02
 0.50910245243E+02 0.92152864983E+02 0.15377559653E+03 0.23489158966E+03 0.32800939995E+03
 0.41776959455E+03 0.48381756226E+03 0.48381791701E+03 0.43841768463E+03 0.36063271717E+03
 0.27009488743E+03 0.18475861027E+03 0.11569680349E+03 0.66589133114E+02 0.35986253163E+02
 0.19736636870E+02 0.12562131868E+02 0.93702076705E+01 0.77765155315E+01 0.70787746956E+01
 0.68371996014E+01 0.68370291063E+01 0.70785983329E+01 0.77766773647E+01 0.93703674898E+01
 0.12561913655E+02 0.19736406468E+02 0.35986525806E+02 0.66589664419E+02 0.11569697967E+03
 0.18475838170E+03 0.27009466952E+03 0.36063266996E+03 0.43841766708E+03 0.48381789491E+03
 0.41776966982E+03 0.36063271717E+03 0.28299982467E+03 0.20253030465E+03 0.13258575447E+03
 0.79694612036E+02 0.44585805536E+02 0.24463445351E+02 0.14819077858E+02 0.10659386775E+02
 0.85604953433E+01 0.75723605794E+01 0.71814872118E+01 0.70846037528E+01 0.71812308330E+01
 0.75723317418E+01 0.85607223139E+01 0.10659346674E+02 0.14818675073E+02 0.24463291682E+02
 0.44586258232E+02 0.79695195436E+02 0.13258585786E+03 0.20252993740E+03 0.28299938445E+03
 0.36063243044E+03 0.41776953778E+03 0.43888933872E+03 0.32800909255E+03 0.27009488743E+03
 0.20253030465E+03 0.13874098305E+03 0.87183264675E+02 0.50803369723E+02 0.28528726731E+02
 0.17006015134E+02 0.11889567999E+02 0.93539366851E+01 0.80831265396E+01 0.75357752032E+01
 0.73527096319E+01 0.73526995535E+01 0.75358109728E+01 0.80832283166E+01 0.93539392477E+01
 0.11889383385E+02 0.17005833275E+02 0.28528733480E+02 0.50803456565E+02 0.87183228915E+02
 0.13874082245E+03 0.20253010857E+03 0.27009464090E+03 0.32800881015E+03 0.36175348196E+03
 0.36175361857E+03 0.23489149881E+03 0.18475861027E+03 0.13258575447E+03 0.87183264675E+02
 0.53074232965E+02 0.30886202502E+02 0.18621007976E+02 0.12868983410E+02 0.10043842434E+02
 0.85511236434E+01 0.78624923764E+01 0.76031842622E+01 0.75431461572E+01 0.76032724462E+01
 0.78625740630E+01 0.85511667888E+01 0.10043919288E+02 0.12869100090E+02 0.18621000199E+02
 0.30885933352E+02 0.53073853425E+02 0.87183112160E+02 0.13258595199E+03 0.18475891285E+03
 0.23489162313E+03 0.27164803414E+03 0.28520487599E+03 0.27164806765E+03 0.15377592870E+03
 0.11569680349E+03 0.79694612036E+02 0.50803369723E+02 0.30886202502E+02 0.19218114440E+02
 0.13422021351E+02 0.10515564190E+02 0.89109280225E+01 0.81254571214E+01 0.78063680134E+01
 0.77109855327E+01 0.77109874002E+01 0.78063313951E+01 0.81253973566E+01 0.89110117096E+01
 0.10515846602E+02 0.13422250381E+02 0.19218033270E+02 0.30885940746E+02 0.50803307783E+02
 0.79694919872E+02 0.11569730455E+03 0.15377636759E+03 0.18627914818E+03 0.20514936172E+03
 0.20514927781E+03 0.18627888566E+03 0.92153110964E+02 0.66589133114E+02 0.44585805536E+02
 0.28528726731E+02 0.18621007976E+02 0.13422021351E+02 0.10683496877E+02 0.91070763747E+01
 0.82957607415E+01 0.79455278739E+01 0.78323366010E+01 0.78118299851E+01 0.78323625888E+01
 0.79453998041E+01 0.82955232416E+01 0.91070096664E+01 0.10683675639E+02 0.13422217546E+02
 0.18621087082E+02 0.28528808575E+02 0.44585976826E+02 0.66589316066E+02 0.92153273745E+02
 0.11674994022E+03 0.13474564029E+03 0.14137049853E+03 0.13474545725E+03 0.11674973732E+03
 0.50910126020E+02 0.35986253163E+02 0.24463445351E+02 0.17006015134E+02 0.12868983410E+02
 0.10515564190E+02 0.91070763747E+01 0.83547799369E+01 0.80153863129E+01 0.79018398315E+01
 0.78815240940E+01 0.78816307479E+01 0.79019452042E+01 0.80152170320E+01 0.83544585255E+01
 0.91068982512E+01 0.10515566562E+02 0.12869027027E+02 0.17006061802E+02 0.24463475338E+02
 0.35986134239E+02 0.50909836313E+02 0.66990964002E+02 0.80813895446E+02 0.88853530895E+02
 0.88853488880E+02 0.80813914556E+02 0.66991196057E+02 0.26980382757E+02 0.19736636870E+02
 0.14819077858E+02 0.11889567999E+02 0.10043842434E+02 0.89109280225E+01 0.82957607415E+01
 0.80153863129E+01 0.79240185889E+01 0.79151631067E+01 0.79204078944E+01 0.79153187631E+01
 0.79241593814E+01 0.80154300434E+01 0.82957365909E+01 0.89107941976E+01 0.10043560144E+02
 0.11889297675E+02 0.14818994320E+02 0.19736604402E+02 0.26980136166E+02 0.35837471935E+02
 0.44612534621E+02 0.51126757406E+02 0.53538758206E+02 0.51126816667E+02 0.44612808307E+02
 0.35837880214E+02 0.15383625789E+02 0.12562131868E+02 0.10659386775E+02 0.93539366851E+01
 0.85511236434E+01 0.81254571214E+01 0.79455278739E+01 0.79018398315E+01 0.79151631067E+01
 0.79345020739E+01 0.79345139973E+01 0.79152311432E+01 0.79020341781E+01 0.79458392305E+01
 0.81256948350E+01 0.85510838143E+01 0.93536977288E+01 0.10659234376E+02 0.12562148341E+02
 0.15383607550E+02 0.19283848512E+02 0.23751721790E+02 0.27747760835E+02 0.30121237284E+02
 0.30121146644E+02 0.27747654114E+02 0.23751797526E+02 0.19283992902E+02 0.10535560295E+02
 0.93702076705E+01 0.85604953433E+01 0.80831265396E+01 0.78624923764E+01 0.78063680134E+01
 0.78323366010E+01 0.78815240940E+01 0.79204078944E+01 0.79345139973E+01 0.79202717904E+01
 0.78813766108E+01 0.78323527638E+01 0.78066153480E+01 0.78628481549E+01 0.80834108441E+01
 0.85606435321E+01 0.93702467414E+01 0.10535514142E+02 0.12015121627E+02 0.13800868667E+02
 0.15652096822E+02 0.17081487493E+02 0.17621460773E+02 0.17081151786E+02 0.15651752097E+02
 0.13800756253E+02 0.12015175971E+02 0.81902807267E+01 0.77765155315E+01 0.75723605794E+01
 0.75357752032E+01 0.76031842622E+01 0.77109855327E+01 0.78118299851E+01 0.78816307479E+01
 0.79153187631E+01 0.79152311432E+01 0.78813766108E+01 0.78114914500E+01 0.77107506317E+01
 0.76032106638E+01 0.75360312626E+01 0.75726660150E+01 0.77767236484E+01 0.81903715027E+01
 0.88118807100E+01 0.95794356260E+01 0.10371186635E+02 0.11036546108E+02 0.11427170561E+02
 0.11427151238E+02 0.11036506556E+02 0.10371156967E+02 0.95794209704E+01 0.88118541732E+01
 0.70862324655E+01 0.70787746956E+01 0.71814872118E+01 0.73527096319E+01 0.75431461572E+01
 0.77109874002E+01 0.78323625888E+01 0.79019452042E+01 0.79241593814E+01 0.79020341781E+01
 0.78323527638E+01 0.77107506317E+01 0.75427711165E+01 0.73523905499E+01 0.71813450602E+01
 0.70788328399E+01 0.70864701480E+01 0.72241175384E+01 0.74800435594E+01 0.78079006191E+01
 0.81336253112E+01 0.83739591899E+01 0.84626922899E+01 0.83743830447E+01 0.81341118366E+01
 0.78080858025E+01 0.74798716244E+01 0.72238001886E+01 0.66460587346E+01 0.68371996014E+01
 0.70846037528E+01 0.73526995535E+01 0.76032724462E+01 0.78063313951E+01 0.79453998041E+01
 0.80152170320E+01 0.80154300434E+01 0.79458392305E+01 0.78066153480E+01 0.76032106638E+01
 0.73523905499E+01 0.70842451105E+01 0.68369346414E+01 0.66459853326E+01 0.65339643035E+01
 0.65052731878E+01 0.65462756513E+01 0.66285943751E+01 0.67151118266E+01 0.67697967568E+01
 0.67699815828E+01 0.67154762265E+01 0.66287806287E+01 0.65461387790E+01 0.65049903439E+01
 0.65338024124E+01 0.65356605127E+01 0.68370291063E+01 0.71812308330E+01 0.75358109728E+01
 0.78625740630E+01 0.81253973566E+01 0.82955232416E+01 0.83544585255E+01 0.82957365909E+01
 0.81256948350E+01 0.78628481549E+01 0.75360312626E+01 0.71813450602E+01 0.68369346414E+01
 0.65353470780E+01 0.62962930083E+01 0.61242159837E+01 0.60119322335E+01 0.59467282924E+01
 0.59145929741E+01 0.59022273389E+01 0.58993653945E+01 0.59020379219E+01 0.59142659343E+01
 0.59463965820E+01 0.60117838355E+01 0.61243632023E+01 0.62966447750E+01 0.66460139260E+01
 0.70785983329E+01 0.75723317418E+01 0.80832283166E+01 0.85511667888E+01 0.89110117096E+01
 0.91070096664E+01 0.91068982512E+01 0.89107941976E+01 0.85510838143E+01 0.80834108441E+01
 0.75726660150E+01 0.70788328399E+01 0.66459853326E+01 0.62962930083E+01 0.60304967127E+01
 0.58349865345E+01 0.56923118402E+01 0.55895884119E+01 0.55211439859E+01 0.54863414580E+01
 0.54860987676E+01 0.55206287588E+01 0.55892123687E+01 0.56922985470E+01 0.58352647563E+01
 0.60308656211E+01 0.62965621408E+01 0.70863053324E+01 0.77766773647E+01 0.85607223139E+01
 0.93539392477E+01 0.10043919288E+02 0.10515846602E+02 0.10683675639E+02 0.10515566562E+02
 0.10043560144E+02 0.93536977288E+01 0.85606435321E+01 0.77767236484E+01 0.70864701480E+01
 0.65339643035E+01 0.61242159837E+01 0.58349865345E+01 0.56332146471E+01 0.54899050828E+01
 0.53886004019E+01 0.53255625602E+01 0.53037253586E+01 0.53253479442E+01 0.53885383956E+01
 0.54902090796E+01 0.56336488296E+01 0.58351772917E+01 0.61240843395E+01 0.65337204034E+01
 0.81903768832E+01 0.93703674898E+01 0.10659346674E+02 0.11889383385E+02 0.12869100090E+02
 0.13422250381E+02 0.13422217546E+02 0.12869027027E+02 0.11889297675E+02 0.10659234376E+02
 0.93702467414E+01 0.81903715027E+01 0.72241175384E+01 0.65052731878E+01 0.60119322335E+01
 0.56923118402E+01 0.54899050828E+01 0.53608076138E+01 0.52804631294E+01 0.52405953330E+01
 0.52406559114E+01 0.52806798866E+01 0.53611781621E+01 0.54902512596E+01 0.56923800805E+01
 0.60116606450E+01 0.65048814110E+01 0.72238852306E+01 0.10535475784E+02 0.12561913655E+02
 0.14818675073E+02 0.17005833275E+02 0.18621000199E+02 0.19218033270E+02 0.18621087082E+02
 0.17006061802E+02 0.14818994320E+02 0.12562148341E+02 0.10535514142E+02 0.88118807100E+01
 0.74800435594E+01 0.65462756513E+01 0.59467282924E+01 0.55895884119E+01 0.53886004019E+01
 0.52804631294E+01 0.52274485968E+01 0.52115893291E+01 0.52277161167E+01 0.52806921328E+01
 0.53885428757E+01 0.55892968947E+01 0.59464316875E+01 0.65461405599E+01 0.74800795643E+01
 0.88119652245E+01 0.15383522380E+02 0.19736406468E+02 0.24463291682E+02 0.28528733480E+02
 0.30885933352E+02 0.30885940746E+02 0.28528808575E+02 0.24463475338E+02 0.19736604402E+02
 0.15383607550E+02 0.12015121627E+02 0.95794356260E+01 0.78079006191E+01 0.66285943751E+01
 0.59145929741E+01 0.55211439859E+01 0.53255625602E+01 0.52405953330E+01 0.52115893291E+01
 0.52117035266E+01 0.52406989359E+01 0.53253273414E+01 0.55206840975E+01 0.59143113795E+01
 0.66286555063E+01 0.78081286444E+01 0.95796224529E+01 0.12015184701E+02 0.26980511367E+02
 0.35986525806E+02 0.44586258232E+02 0.50803456565E+02 0.53073853425E+02 0.50803307783E+02
 0.44585976826E+02 0.35986134239E+02 0.26980136166E+02 0.19283848512E+02 0.13800868667E+02
 0.10371186635E+02 0.81336253112E+01 0.67151118266E+01 0.59022273389E+01 0.54863414580E+01
 0.53037253586E+01 0.52406559114E+01 0.52277161167E+01 0.52406989359E+01 0.53035771750E+01
 0.54860649939E+01 0.59022005583E+01 0.67154189154E+01 0.81338873195E+01 0.10371147202E+02
 0.13800757029E+02 0.19283987382E+02 0.50910245243E+02 0.66589664419E+02 0.79695195436E+02
 0.87183228915E+02 0.87183112160E+02 0.79694919872E+02 0.66589316066E+02 0.50909836313E+02
 0.35837471935E+02 0.23751721790E+02 0.15652096822E+02 0.11036546108E+02 0.83739591899E+01
 0.67697967568E+01 0.58993653945E+01 0.54860987676E+01 0.53253479442E+01 0.52806798866E+01
 0.52806921328E+01 0.53253273414E+01 0.54860649939E+01 0.58995227358E+01 0.67701699818E+01
 0.83741986318E+01 0.11036398428E+02 0.15651820573E+02 0.23751733679E+02 0.35837807295E+02
 0.92152864983E+02 0.11569697967E+03 0.13258585786E+03 0.13874082245E+03 0.13258595199E+03
 0.11569730455E+03 0.92153273745E+02 0.66990964002E+02 0.44612534621E+02 0.27747760835E+02
 0.17081487493E+02 0.11427170561E+02 0.84626922899E+01 0.67699815828E+01 0.59020379219E+01
 0.55206287588E+01 0.53885383956E+01 0.53611781621E+01 0.53885428757E+01 0.55206840975E+01
 0.59022005583E+01 0.67701699818E+01 0.84626813108E+01 0.11426914600E+02 0.17081293873E+02
 0.27747879228E+02 0.44612733205E+02 0.66990843478E+02 0.15377559653E+03 0.18475838170E+03
 0.20252993740E+03 0.20253010857E+03 0.18475891285E+03 0.15377636759E+03 0.11674994022E+03
 0.80813895446E+02 0.51126757406E+02 0.30121237284E+02 0.17621460773E+02 0.11427151238E+02
 0.83743830447E+01 0.67154762265E+01 0.59142659343E+01 0.55892123687E+01 0.54902090796E+01
 0.54902512596E+01 0.55892968947E+01 0.59143113795E+01 0.67154189154E+01 0.83741986318E+01
 0.11426914600E+02 0.17621368629E+02 0.30121405626E+02 0.51126969774E+02 0.80813748338E+02
 0.11674931752E+03 0.23489158966E+03 0.27009466952E+03 0.28299938445E+03 0.27009464090E+03
 0.23489162313E+03 0.18627914818E+03 0.13474564029E+03 0.88853530895E+02 0.53538758206E+02
 0.30121146644E+02 0.17081151786E+02 0.11036506556E+02 0.81341118366E+01 0.66287806287E+01
 0.59463965820E+01 0.56922985470E+01 0.56336488296E+01 0.56923800805E+01 0.59464316875E+01
 0.66286555063E+01 0.81338873195E+01 0.11036398428E+02 0.17081293873E+02 0.30121405626E+02
 0.53538863109E+02 0.88853373810E+02 0.13474536927E+03 0.18627896782E+03 0.32800939995E+03
 0.36063266996E+03 0.36063243044E+03 0.32800881015E+03 0.27164803414E+03 0.20514936172E+03
 0.14137049853E+03 0.88853488880E+02 0.51126816667E+02 0.27747654114E+02 0.15651752097E+02
 0.10371156967E+02 0.78080858025E+01 0.65461387790E+01 0.60117838355E+01 0.58352647563E+01
 0.58351772917E+01 0.60116606450E+01 0.65461405599E+01 0.78081286444E+01 0.10371147202E+02
 0.15651820573E+02 0.27747879228E+02 0.51126969774E+02 0.88853373810E+02 0.14137034513E+03
 0.20514956180E+03 0.27164861125E+03 0.41776959455E+03 0.43841766708E+03 0.41776953778E+03
 0.36175348196E+03 0.28520487599E+03 0.20514927781E+03 0.13474545725E+03 0.80813914556E+02
 0.44612808307E+02 0.23751797526E+02 0.13800756253E+02 0.95794209704E+01 0.74798716244E+01
 0.65049903439E+01 0.61243632023E+01 0.60308656211E+01 0.61240843395E+01 0.65048814110E+01
 0.74800795643E+01 0.95796224529E+01 0.13800757029E+02 0.23751733679E+02 0.44612733205E+02
 0.80813748338E+02 0.13474536927E+03 0.20514956180E+03 0.28520540951E+03 0.36175383046E+03
 0.48381756226E+03 0.48381789491E+03 0.43888933872E+03 0.36175361857E+03 0.27164806765E+03
 0.18627888566E+03 0.11674973732E+03 0.66991196057E+02 0.35837880214E+02 0.19283992902E+02
 0.12015175971E+02 0.88118541732E+01 0.72238001886E+01 0.65338024124E+01 0.62966447750E+01
 0.62965621408E+01 0.65337204034E+01 0.72238852306E+01 0.88119652245E+01 0.12015184701E+02
 0.19283987382E+02 0.35837807295E+02 0.66990843478E+02 0.11674931752E+03 0.18627896782E+03
 0.27164861125E+03 0.36175383046E+03 0.43888890904E+03 0.44793520212E+03 0.42644824729E+03
 0.36829218606E+03 0.28919957779E+03 0.20708246169E+03 0.13552836561E+03 0.81242793911E+02
 0.45079178779E+02 0.24295137762E+02 0.14342119373E+02 0.10103007107E+02 0.79907419016E+01
 0.70035064282E+01 0.66156312599E+01 0.65199627773E+01 0.66154644857E+01 0.70035726838E+01
 0.79909617655E+01 0.10102953278E+02 0.14341931069E+02 0.24295256438E+02 0.45079352988E+02
 0.81242478477E+02 0.13552788599E+03 0.20708254878E+03 0.28919997164E+03 0.36829203530E+03
 0.42644770599E+03 0.42644824729E+03 0.38647680599E+03 0.31795630639E+03 0.23814315556E+03
 0.16287452632E+03 0.10199016420E+03 0.58823695648E+02 0.32113219135E+02 0.18095304109E+02
 0.11928916214E+02 0.90657746758E+01 0.76354440667E+01 0.70161074322E+01 0.68055535537E+01
 0.68053100517E+01 0.70158505795E+01 0.76356640566E+01 0.90660112522E+01 0.11928660547E+02
 0.18095030223E+02 0.32113542373E+02 0.58824247615E+02 0.10199025923E+03 0.16287427929E+03
 0.23814304326E+03 0.31795625649E+03 0.38647657073E+03 0.42644807794E+03 0.36829218606E+03
 0.31795630639E+03 0.24952644268E+03 0.17856067387E+03 0.11688764464E+03 0.70343904768E+02