   2   2   0   0
  0.1737142E+02  0.2936640E-09  0.2936640E-09  0.4651930E-09  0.5000000E-15
  1.000000000000000E-004
  CAR 
 Ti                                      
     62.57998868    -53.78448393  301      8.37022333      1.00000000
    -53.784  0.0000E+00  0.0000E+00
    -53.397  0.0000E+00  0.0000E+00
    -53.009  0.0000E+00  0.0000E+00
    -52.621  0.0000E+00  0.0000E+00
    -52.233  0.0000E+00  0.0000E+00
    -51.845  0.0000E+00  0.0000E+00
    -51.457  0.0000E+00  0.0000E+00
    -51.069  0.0000E+00  0.0000E+00
    -50.681  0.0000E+00  0.0000E+00
    -50.294  0.0000E+00  0.0000E+00
    -49.906  0.0000E+00  0.0000E+00
    -49.518  0.0000E+00  0.0000E+00
    -49.130  0.0000E+00  0.0000E+00
    -48.742  0.3190E-13  0.1237E-13
    -48.354  0.6348E+01  0.2462E+01
    -47.966  0.3303E+01  0.4000E+01
    -47.578  0.0000E+00  0.4000E+01
    -47.190  0.0000E+00  0.4000E+01
    -46.803  0.0000E+00  0.4000E+01
    -46.415  0.0000E+00  0.4000E+01
    -46.027  0.0000E+00  0.4000E+01
    -45.639  0.0000E+00  0.4000E+01
    -45.251  0.0000E+00  0.4000E+01
    -44.863  0.0000E+00  0.4000E+01
    -44.475  0.0000E+00  0.4000E+01
    -44.087  0.0000E+00  0.4000E+01
    -43.700  0.0000E+00  0.4000E+01
    -43.312  0.0000E+00  0.4000E+01
    -42.924  0.0000E+00  0.4000E+01
    -42.536  0.0000E+00  0.4000E+01
    -42.148  0.0000E+00  0.4000E+01
    -41.760  0.0000E+00  0.4000E+01
    -41.372  0.0000E+00  0.4000E+01
    -40.984  0.0000E+00  0.4000E+01
    -40.597  0.0000E+00  0.4000E+01
    -40.209  0.0000E+00  0.4000E+01
    -39.821  0.0000E+00  0.4000E+01
    -39.433  0.0000E+00  0.4000E+01
    -39.045  0.0000E+00  0.4000E+01
    -38.657  0.0000E+00  0.4000E+01
    -38.269  0.0000E+00  0.4000E+01
    -37.881  0.0000E+00  0.4000E+01
    -37.493  0.0000E+00  0.4000E+01
    -37.106  0.0000E+00  0.4000E+01
    -36.718  0.0000E+00  0.4000E+01
    -36.330  0.0000E+00  0.4000E+01
    -35.942  0.0000E+00  0.4000E+01
    -35.554  0.0000E+00  0.4000E+01
    -35.166  0.0000E+00  0.4000E+01
    -34.778  0.0000E+00  0.4000E+01
    -34.390  0.0000E+00  0.4000E+01
    -34.003  0.0000E+00  0.4000E+01
    -33.615  0.0000E+00  0.4000E+01
    -33.227  0.0000E+00  0.4000E+01
    -32.839  0.0000E+00  0.4000E+01
    -32.451  0.0000E+00  0.4000E+01
    -32.063  0.0000E+00  0.4000E+01
    -31.675  0.0000E+00  0.4000E+01
    -31.287  0.0000E+00  0.4000E+01
    -30.899  0.0000E+00  0.4000E+01
    -30.512  0.0000E+00  0.4000E+01
    -30.124  0.0000E+00  0.4000E+01
    -29.736  0.0000E+00  0.4000E+01
    -29.348  0.0000E+00  0.4000E+01
    -28.960  0.0000E+00  0.4000E+01
    -28.572  0.0000E+00  0.4000E+01
    -28.184  0.0000E+00  0.4000E+01
    -27.796  0.0000E+00  0.4000E+01
    -27.409  0.0000E+00  0.4000E+01
    -27.021  0.0000E+00  0.4000E+01
    -26.633  0.0000E+00  0.4000E+01
    -26.245  0.0000E+00  0.4000E+01
    -25.857  0.0000E+00  0.4000E+01
    -25.469  0.0000E+00  0.4000E+01
    -25.081  0.6514E-01  0.4025E+01
    -24.693  0.1129E+02  0.8405E+01
    -24.305  0.1934E+02  0.1599E+02
    -23.918  0.0000E+00  0.1600E+02
    -23.530  0.0000E+00  0.1600E+02
    -23.142  0.0000E+00  0.1600E+02
    -22.754  0.0000E+00  0.1600E+02
    -22.366  0.0000E+00  0.1600E+02
    -21.978  0.0000E+00  0.1600E+02
    -21.590  0.0000E+00  0.1600E+02
    -21.202  0.0000E+00  0.1600E+02
    -20.815  0.0000E+00  0.1600E+02
    -20.427  0.0000E+00  0.1600E+02
    -20.039  0.0000E+00  0.1600E+02
    -19.651  0.0000E+00  0.1600E+02
    -19.263  0.0000E+00  0.1600E+02
    -18.875  0.0000E+00  0.1600E+02
    -18.487  0.0000E+00  0.1600E+02
    -18.099  0.0000E+00  0.1600E+02
    -17.711  0.0000E+00  0.1600E+02
    -17.324  0.0000E+00  0.1600E+02
    -16.936  0.0000E+00  0.1600E+02
    -16.548  0.0000E+00  0.1600E+02
    -16.160  0.0000E+00  0.1600E+02
    -15.772  0.0000E+00  0.1600E+02
    -15.384  0.0000E+00  0.1600E+02
    -14.996  0.0000E+00  0.1600E+02
    -14.608  0.0000E+00  0.1600E+02
    -14.221  0.0000E+00  0.1600E+02
    -13.833  0.0000E+00  0.1600E+02
    -13.445  0.0000E+00  0.1600E+02
    -13.057  0.0000E+00  0.1600E+02
    -12.669  0.0000E+00  0.1600E+02
    -12.281  0.0000E+00  0.1600E+02
    -11.893  0.0000E+00  0.1600E+02
    -11.505  0.0000E+00  0.1600E+02
    -11.118  0.0000E+00  0.1600E+02
    -10.730  0.0000E+00  0.1600E+02
    -10.342  0.0000E+00  0.1600E+02
     -9.954  0.0000E+00  0.1600E+02
     -9.566  0.0000E+00  0.1600E+02
     -9.178  0.0000E+00  0.1600E+02
     -8.790  0.0000E+00  0.1600E+02
     -8.402  0.0000E+00  0.1600E+02
     -8.014  0.0000E+00  0.1600E+02
     -7.627  0.0000E+00  0.1600E+02
     -7.239  0.0000E+00  0.1600E+02
     -6.851  0.0000E+00  0.1600E+02
     -6.463  0.0000E+00  0.1600E+02
     -6.075  0.0000E+00  0.1600E+02
     -5.687  0.0000E+00  0.1600E+02
     -5.299  0.0000E+00  0.1600E+02
     -4.911  0.0000E+00  0.1600E+02
     -4.524  0.0000E+00  0.1600E+02
     -4.136  0.0000E+00  0.1600E+02
     -3.748  0.0000E+00  0.1600E+02
     -3.360  0.0000E+00  0.1600E+02
     -2.972  0.0000E+00  0.1600E+02
     -2.584  0.0000E+00  0.1600E+02
     -2.196  0.0000E+00  0.1600E+02
     -1.808  0.0000E+00  0.1600E+02
     -1.420  0.0000E+00  0.1600E+02
     -1.033  0.0000E+00  0.1600E+02
     -0.645  0.0000E+00  0.1600E+02
     -0.257  0.0000E+00  0.1600E+02
      0.131  0.0000E+00  0.1600E+02
      0.519  0.0000E+00  0.1600E+02
      0.907  0.0000E+00  0.1600E+02
      1.295  0.0000E+00  0.1600E+02
      1.683  0.0000E+00  0.1600E+02
      2.070  0.7420E-06  0.1600E+02
      2.458  0.5534E-01  0.1602E+02
      2.846  0.9249E-01  0.1606E+02
      3.234  0.1853E+00  0.1614E+02
      3.622  0.2362E+00  0.1623E+02
      4.010  0.3021E+00  0.1635E+02
      4.398  0.3115E+00  0.1647E+02
      4.786  0.5365E+00  0.1668E+02
      5.174  0.4458E+00  0.1685E+02
      5.561  0.1050E+01  0.1727E+02
      5.949  0.1436E+01  0.1785E+02
      6.337  0.2079E+01  0.1869E+02
      6.725  0.2730E+01  0.1976E+02
      7.113  0.2298E+01  0.2066E+02
      7.501  0.2822E+01  0.2178E+02
      7.889  0.3628E+01  0.2322E+02
      8.277  0.1580E+01  0.2385E+02
      8.664  0.3071E+01  0.2506E+02
      9.052  0.4114E+01  0.2668E+02
      9.440  0.4932E+01  0.2863E+02
      9.828  0.3558E+01  0.3007E+02
     10.216  0.2202E+01  0.3094E+02
     10.604  0.2212E+01  0.3181E+02
     10.992  0.2068E+01  0.3263E+02
     11.380  0.3511E+01  0.3402E+02
     11.768  0.6053E+01  0.3642E+02
     12.155  0.2911E+01  0.3762E+02
     12.543  0.8212E+00  0.3795E+02
     12.931  0.1117E+01  0.3838E+02
     13.319  0.8231E+00  0.3871E+02
     13.707  0.6780E+00  0.3897E+02
     14.095  0.7085E+00  0.3925E+02
     14.483  0.5827E+00  0.3948E+02
     14.871  0.7177E+00  0.3977E+02
     15.258  0.3430E+00  0.3991E+02
     15.646  0.1101E+00  0.3996E+02
     16.034  0.1456E+00  0.4002E+02
     16.422  0.1938E+00  0.4010E+02
     16.810  0.4591E+00  0.4028E+02
     17.198  0.1695E+01  0.4094E+02
     17.586  0.1190E+01  0.4142E+02
     17.974  0.1361E+01  0.4195E+02
     18.361  0.1171E+01  0.4243E+02
     18.749  0.1244E+01  0.4292E+02
     19.137  0.1223E+01  0.4340E+02
     19.525  0.6975E+00  0.4369E+02
     19.913  0.9605E+00  0.4407E+02
     20.301  0.9385E+00  0.4444E+02
     20.689  0.7194E+00  0.4472E+02
     21.077  0.1576E+01  0.4534E+02
     21.465  0.1526E+01  0.4596E+02
     21.852  0.1346E+01  0.4650E+02
     22.240  0.1686E+01  0.4717E+02
     22.628  0.1285E+01  0.4768E+02
     23.016  0.1318E+01  0.4820E+02
     23.404  0.1524E+01  0.4880E+02
     23.792  0.1446E+01  0.4938E+02
     24.180  0.1373E+01  0.4992E+02
     24.568  0.1561E+01  0.5054E+02
     24.955  0.7878E+00  0.5086E+02
     25.343  0.1127E+01  0.5131E+02
     25.731  0.1262E+01  0.5181E+02
     26.119  0.9305E+00  0.5218E+02
     26.507  0.1044E+01  0.5260E+02
     26.895  0.1094E+01  0.5304E+02
     27.283  0.1576E+01  0.5365E+02
     27.671  0.1751E+01  0.5433E+02
     28.059  0.8198E+00  0.5466E+02
     28.446  0.1272E+01  0.5516E+02
     28.834  0.6132E+00  0.5541E+02
     29.222  0.9036E+00  0.5576E+02
     29.610  0.1429E+01  0.5633E+02
     29.998  0.1523E+01  0.5693E+02
     30.386  0.9889E+00  0.5732E+02
     30.774  0.1373E+01  0.5787E+02
     31.162  0.1264E+01  0.5837E+02
     31.549  0.1790E+01  0.5907E+02
     31.937  0.1249E+01  0.5959E+02
     32.325  0.1122E+01  0.6003E+02
     32.713  0.1324E+01  0.6055E+02
     33.101  0.1775E+01  0.6125E+02
     33.489  0.1712E+01  0.6192E+02
     33.877  0.1275E+01  0.6245E+02
     34.265  0.1770E+01  0.6315E+02
     34.653  0.1188E+01  0.6362E+02
     35.040  0.1367E+01  0.6417E+02
     35.428  0.1331E+01  0.6470E+02
     35.816  0.1521E+01  0.6530E+02
     36.204  0.1409E+01  0.6587E+02
     36.592  0.1282E+01  0.6637E+02
     36.980  0.1095E+01  0.6681E+02
     37.368  0.9219E+00  0.6718E+02
     37.756  0.1420E+01  0.6774E+02
     38.143  0.1751E+01  0.6843E+02
     38.531  0.1708E+01  0.6912E+02
     38.919  0.1265E+01  0.6963E+02
     39.307  0.1305E+01  0.7015E+02
     39.695  0.1668E+01  0.7080E+02
     40.083  0.1474E+01  0.7139E+02
     40.471  0.2203E+01  0.7228E+02
     40.859  0.1430E+01  0.7285E+02
     41.247  0.1423E+01  0.7341E+02
     41.634  0.1762E+01  0.7411E+02
     42.022  0.1230E+01  0.7459E+02
     42.410  0.2010E+01  0.7538E+02
     42.798  0.1765E+01  0.7609E+02
     43.186  0.2407E+01  0.7704E+02
     43.574  0.1779E+01  0.7777E+02
     43.962  0.1525E+01  0.7837E+02
     44.350  0.1436E+01  0.7894E+02
     44.737  0.1520E+01  0.7955E+02
     45.125  0.1224E+01  0.8003E+02
     45.513  0.1681E+01  0.8069E+02
     45.901  0.1359E+01  0.8123E+02
     46.289  0.1925E+01  0.8199E+02
     46.677  0.2057E+01  0.8280E+02
     47.065  0.1496E+01  0.8339E+02
     47.453  0.2029E+01  0.8418E+02
     47.840  0.1179E+01  0.8465E+02
     48.228  0.1714E+01  0.8532E+02
     48.616  0.1872E+01  0.8607E+02
     49.004  0.1919E+01  0.8684E+02
     49.392  0.2025E+01  0.8765E+02
     49.780  0.1852E+01  0.8837E+02
     50.168  0.2350E+01  0.8932E+02
     50.556  0.2800E+01  0.9043E+02
     50.944  0.1724E+01  0.9111E+02
     51.331  0.1903E+01  0.9187E+02
     51.719  0.1630E+01  0.9252E+02
     52.107  0.1279E+01  0.9302E+02
     52.495  0.1224E+01  0.9350E+02
     52.883  0.1561E+01  0.9411E+02
     53.271  0.1087E+01  0.9454E+02
     53.659  0.1586E+01  0.9518E+02
     54.047  0.8683E+00  0.9554E+02
     54.434  0.2486E+00  0.9565E+02
     54.822  0.2667E+00  0.9576E+02
     55.210  0.1348E+00  0.9582E+02
     55.598  0.1538E+00  0.9587E+02
     55.986  0.8244E-01  0.9591E+02
     56.374  0.7161E-01  0.9594E+02
     56.762  0.5322E-01  0.9596E+02
     57.150  0.9598E-01  0.9600E+02
     57.538  0.5968E-02  0.9600E+02
     57.925  0.0000E+00  0.9600E+02
     58.313  0.0000E+00  0.9600E+02
     58.701  0.0000E+00  0.9600E+02
     59.089  0.0000E+00  0.9600E+02
     59.477  0.0000E+00  0.9600E+02
     59.865  0.0000E+00  0.9600E+02
     60.253  0.0000E+00  0.9600E+02
     60.641  0.0000E+00  0.9600E+02
     61.028  0.0000E+00  0.9600E+02
     61.416  0.0000E+00  0.9600E+02
     61.804  0.0000E+00  0.9600E+02
     62.192  0.0000E+00  0.9600E+02
     62.580  0.0000E+00  0.9600E+02
