    2    2    1    1
  0.1737142E+02  0.2936640E-09  0.2936640E-09  0.4651930E-09  0.5000000E-15
  1.000000000000000E-004
  CAR 
 Ti                                      
     24    133     48
 
  0.0000000E+00  0.0000000E+00  0.0000000E+00  0.5787037E-03
      1        -48.495190   1.000000
      2        -48.357449   1.000000
      3        -25.103605   1.000000
      4        -24.460584   1.000000
      5        -24.460580   1.000000
      6        -24.395554   1.000000
      7        -24.359726   1.000000
      8        -24.359723   1.000000
      9          2.193590   1.000000
     10          5.674093   1.000000
     11          9.109492   0.000000
     12          9.119438   0.000000
     13          9.119446   0.000000
     14          9.232272   0.000000
     15          9.617735   0.000000
     16          9.617745   0.000000
     17          9.967331   0.000000
     18          9.967332   0.000000
     19         11.494843   0.000000
     20         11.494844   0.000000
     21         16.660372   0.000000
     22         22.920765   0.000000
     23         25.587800   0.000000
     24         25.718853   0.000000
     25         27.503481   0.000000
     26         27.503494   0.000000
     27         28.699728   0.000000
     28         28.699781   0.000000
     29         29.594195   0.000000
     30         29.594203   0.000000
     31         30.569402   0.000000
     32         33.451754   0.000000
     33         33.647680   0.000000
     34         33.647682   0.000000
     35         36.223022   0.000000
     36         36.738573   0.000000
     37         36.738699   0.000000
     38         38.373344   0.000000
     39         38.373406   0.000000
     40         40.426808   0.000000
     41         46.059557   0.000000
     42         49.673110   0.000000
     43         49.673217   0.000000
     44         49.808158   0.000000
     45         49.808161   0.000000
     46         49.912308   0.000000
     47         49.912426   0.000000
     48         52.922970   0.000000
 
  0.8333333E-01  0.6081532E-17  0.0000000E+00  0.3472222E-02
      1        -48.488785   1.000000
      2        -48.354962   1.000000
      3        -25.088409   1.000000
      4        -24.491744   1.000000
      5        -24.470986   1.000000
      6        -24.402084   1.000000
      7        -24.392287   1.000000
      8        -24.363888   1.000000
      9          2.385727   1.000000
     10          5.825634   1.000000
     11          8.749980   0.000000
     12          8.795276   0.000000
     13          9.256491   0.000000
     14          9.461109   0.000000
     15          9.539367   0.000000
     16          9.739281   0.000000
     17          9.849381   0.000000
     18          9.860307   0.000000
     19         11.551619   0.000000
     20         12.036716   0.000000
     21         16.639628   0.000000
     22         22.866427   0.000000
     23         25.040679   0.000000
     24         25.840743   0.000000
     25         26.060070   0.000000
     26         26.847100   0.000000
     27         27.559256   0.000000
     28         29.666130   0.000000
     29         30.175107   0.000000
     30         30.369513   0.000000
     31         32.249407   0.000000
     32         33.030277   0.000000
     33         33.211480   0.000000
     34         33.915737   0.000000
     35         35.206092   0.000000
     36         35.210403   0.000000
     37         37.773138   0.000000
     38         39.350460   0.000000
     39         39.832728   0.000000
     40         41.426403   0.000000
     41         46.222168   0.000000
     42         47.873076   0.000000
     43         47.983760   0.000000
     44         48.651437   0.000000
     45         49.897189   0.000000
     46         51.765607   0.000000
     47         51.923349   0.000000
     48         52.629698   0.000000
 
  0.1666667E+00 -0.4793372E-17  0.0000000E+00  0.3472222E-02
      1        -48.469736   1.000000
      2        -48.347290   1.000000
      3        -25.044862   1.000000
      4        -24.576840   1.000000
      5        -24.498395   1.000000
      6        -24.478965   1.000000
      7        -24.421669   1.000000
      8        -24.375817   1.000000
      9          2.941777   1.000000
     10          6.217500   1.000000
     11          8.066149   1.000000
     12          8.331700   0.862054
     13          9.258598   0.000000
     14          9.605610   0.000000
     15          9.639811   0.000000
     16          9.651537   0.000000
     17          9.843296   0.000000
     18         10.085854   0.000000
     19         11.670809   0.000000
     20         13.143912   0.000000
     21         16.583629   0.000000
     22         21.725915   0.000000
     23         24.254957   0.000000
     24         24.431867   0.000000
     25         25.436449   0.000000
     26         25.998449   0.000000
     27         27.398168   0.000000
     28         29.846631   0.000000
     29         31.066361   0.000000
     30         31.257500   0.000000
     31         31.531016   0.000000
     32         32.754952   0.000000
     33         33.792242   0.000000
     34         34.470944   0.000000
     35         34.734818   0.000000
     36         36.056688   0.000000
     37         39.852728   0.000000
     38         40.461563   0.000000
     39         41.361424   0.000000
     40         43.342781   0.000000
     41         45.734774   0.000000
     42         46.629406   0.000000
     43         46.692075   0.000000
     44         48.350796   0.000000
     45         50.144242   0.000000
     46         51.094884   0.000000
     47         53.106152   0.000000
     48         53.913974   0.000000
 
  0.2500000E+00  0.6382418E-17  0.0000000E+00  0.3472222E-02
      1        -48.442375   1.000000
      2        -48.338872   1.000000
      3        -24.979519   1.000000
      4        -24.694953   1.000000
      5        -24.593175   1.000000
      6        -24.534452   1.000000
      7        -24.454218   1.000000
      8        -24.393541   1.000000
      9          3.781469   1.000000
     10          6.602331   1.000000
     11          7.419441   1.000000
     12          7.922418   1.000000
     13          9.065222   0.000000
     14          9.311653   0.000000
     15          9.399600   0.000000
     16         10.248553   0.000000
     17         10.320419   0.000000
     18         10.597744   0.000000
     19         11.782264   0.000000
     20         14.435200   0.000000
     21         16.498939   0.000000
     22         19.621819   0.000000
     23         22.572306   0.000000
     24         23.637678   0.000000
     25         24.400057   0.000000
     26         25.680239   0.000000
     27         27.551762   0.000000
     28         29.992321   0.000000
     29         30.061571   0.000000
     30         30.370089   0.000000
     31         31.243297   0.000000
     32         33.910443   0.000000
     33         35.108621   0.000000
     34         35.645469   0.000000
     35         36.120711   0.000000
     36         39.128396   0.000000
     37         39.888907   0.000000
     38         41.740971   0.000000
     39         43.511635   0.000000
     40         43.862163   0.000000
     41         44.564221   0.000000
     42         46.915475   0.000000
     43         47.018793   0.000000
     44         48.980000   0.000000
     45         49.809234   0.000000
     46         50.465428   0.000000
     47         53.244977   0.000000
     48         53.533704   0.000000
 
  0.3333333E+00  0.3680420E-17  0.0000000E+00  0.3472222E-02
      1        -48.412392   1.000000
      2        -48.332137   1.000000
      3        -24.902578   1.000000
      4        -24.813844   1.000000
      5        -24.703048   1.000000
      6        -24.569140   1.000000
      7        -24.498104   1.000000
      8        -24.412340   1.000000
      9          4.750676   1.000000
     10          6.619903   1.000000
     11          6.919532   1.000000
     12          7.741491   1.000000
     13          9.055776   0.000000
     14          9.156715   0.000000
     15          9.179151   0.000000
     16         10.931784   0.000000
     17         10.987805   0.000000
     18         11.174369   0.000000
     19         11.859097   0.000000
     20         15.779197   0.000000
     21         16.184328   0.000000
     22         17.835559   0.000000
     23         21.116794   0.000000
     24         22.125559   0.000000
     25         23.484321   0.000000
     26         24.914042   0.000000
     27         26.764750   0.000000
     28         28.785573   0.000000
     29         30.248542   0.000000
     30         30.905594   0.000000
     31         32.414709   0.000000
     32         34.068357   0.000000
     33         37.045857   0.000000
     34         38.055374   0.000000
     35         38.096263   0.000000
     36         40.177362   0.000000
     37         41.205606   0.000000
     38         41.500578   0.000000
     39         42.933352   0.000000
     40         43.769560   0.000000
     41         46.563782   0.000000
     42         48.009714   0.000000
     43         48.406639   0.000000
     44         49.194036   0.000000
     45         49.837278   0.000000
     46         50.390534   0.000000
     47         51.119328   0.000000
     48         51.166384   0.000000
 
  0.4166667E+00  0.9135502E-16  0.0000000E+00  0.3472222E-02
      1        -48.387015   1.000000
      2        -48.330702   1.000000
      3        -24.900978   1.000000
      4        -24.831128   1.000000
      5        -24.781590   1.000000
      6        -24.593935   1.000000
      7        -24.545443   1.000000
      8        -24.426286   1.000000
      9          5.592178   1.000000
     10          6.397508   1.000000
     11          6.606540   1.000000
     12          7.703159   1.000000
     13          8.885173   0.000000
     14          9.026584   0.000000
     15          9.411438   0.000000
     16         11.483637   0.000000
     17         11.686151   0.000000
     18         11.885234   0.000000
     19         11.900445   0.000000
     20         14.870337   0.000000
     21         17.033007   0.000000
     22         17.531107   0.000000
     23         20.059736   0.000000
     24         20.872978   0.000000
     25         21.879950   0.000000
     26         24.232225   0.000000
     27         26.610060   0.000000
     28         27.667556   0.000000
     29         30.372277   0.000000
     30         31.797426   0.000000
     31         34.050218   0.000000
     32         34.245975   0.000000
     33         38.321357   0.000000
     34         39.449197   0.000000
     35         40.041602   0.000000
     36         40.480486   0.000000
     37         41.945670   0.000000
     38         41.945953   0.000000
     39         43.589478   0.000000
     40         43.734067   0.000000
     41         46.626043   0.000000
     42         47.975688   0.000000
     43         47.998716   0.000000
     44         48.258851   0.000000
     45         50.105617   0.000000
     46         50.621758   0.000000
     47         50.802617   0.000000
     48         51.287099   0.000000
 
  0.5000000E+00  0.1276484E-16  0.0000000E+00  0.1736111E-02
      1        -48.375982   1.000000
      2        -48.331200   1.000000
      3        -24.932866   1.000000
      4        -24.809796   1.000000
      5        -24.797530   1.000000
      6        -24.602690   1.000000
      7        -24.570044   1.000000
      8        -24.431454   1.000000
      9          6.021002   1.000000
     10          6.191039   1.000000
     11          6.500294   1.000000
     12          7.720215   1.000000
     13          8.825709   0.000000
     14          8.972600   0.000000
     15          9.521799   0.000000
     16         11.685697   0.000000
     17         11.913090   0.000000
     18         11.916265   0.000000
     19         12.703550   0.000000
     20         13.747968   0.000000
     21         17.703193   0.000000
     22         17.744930   0.000000
     23         19.657044   0.000000
     24         20.222838   0.000000
     25         21.044131   0.000000
     26         23.971946   0.000000
     27         26.613109   0.000000
     28         27.264245   0.000000
     29         30.415500   0.000000
     30         32.125557   0.000000
     31         33.978529   0.000000
     32         35.760851   0.000000
     33         37.780595   0.000000
     34         38.614111   0.000000
     35         41.196578   0.000000
     36         42.725837   0.000000
     37         42.742917   0.000000
     38         42.932344   0.000000
     39         43.653757   0.000000
     40         43.844356   0.000000
     41         44.425696   0.000000
     42         46.621196   0.000000
     43         46.673892   0.000000
     44         49.424978   0.000000
     45         50.299338   0.000000
     46         50.315813   0.000000
     47         51.381072   0.000000
     48         52.008668   0.000000
 
  0.1666667E+00  0.8333333E-01  0.0000000E+00  0.3472222E-02
      1        -48.476022   1.000000
      2        -48.350053   1.000000
      3        -25.059035   1.000000
      4        -24.543653   1.000000
      5        -24.504081   1.000000
      6        -24.439713   1.000000
      7        -24.415095   1.000000
      8        -24.376288   1.000000
      9          2.760666   1.000000
     10          6.101561   1.000000
     11          8.260899   0.999006
     12          8.448327   0.013584
     13          9.347395   0.000000
     14          9.539700   0.000000
     15          9.559881   0.000000
     16          9.678290   0.000000
     17          9.821800   0.000000
     18         10.007397   0.000000
     19         11.623275   0.000000
     20         12.828399   0.000000
     21         16.602829   0.000000
     22         22.403200   0.000000
     23         23.536423   0.000000
     24         25.876220   0.000000
     25         25.977172   0.000000
     26         26.014668   0.000000
     27         26.707563   0.000000
     28         29.501890   0.000000
     29         31.453991   0.000000
     30         31.836183   0.000000
     31         32.052395   0.000000
     32         32.203315   0.000000
     33         33.518542   0.000000
     34         33.683991   0.000000
     35         34.635215   0.000000
     36         35.733019   0.000000
     37         39.668815   0.000000
     38         40.177042   0.000000
     39         40.553850   0.000000
     40         43.044541   0.000000
     41         46.057000   0.000000
     42         46.443260   0.000000
     43         47.221912   0.000000
     44         48.268677   0.000000
     45         49.940968   0.000000
     46         51.678413   0.000000
     47         52.647661   0.000000
     48         53.605519   0.000000
 
  0.2500000E+00  0.8333333E-01  0.0000000E+00  0.6944444E-02
      1        -48.452541   1.000000
      2        -48.341637   1.000000
      3        -25.004412   1.000000
      4        -24.636945   1.000000
      5        -24.579842   1.000000
      6        -24.497772   1.000000
      7        -24.441242   1.000000
      8        -24.397499   1.000000
      9          3.464259   1.000000
     10          6.526649   1.000000
     11          7.655578   1.000000
     12          7.995615   1.000000
     13          9.130727   0.000000
     14          9.232111   0.000000
     15          9.657063   0.000000
     16          9.985849   0.000000
     17         10.064995   0.000000
     18         10.499848   0.000000
     19         11.713405   0.000000
     20         13.986390   0.000000
     21         16.548794   0.000000
     22         20.728200   0.000000
     23         22.054999   0.000000
     24         24.337078   0.000000
     25         25.570787   0.000000
     26         25.812737   0.000000
     27         27.224313   0.000000
     28         29.385750   0.000000
     29         29.785135   0.000000
     30         32.194113   0.000000
     31         32.245764   0.000000
     32         32.867849   0.000000
     33         34.373331   0.000000
     34         34.573427   0.000000
     35         34.810245   0.000000
     36         38.602964   0.000000
     37         39.984993   0.000000
     38         41.878634   0.000000
     39         42.337703   0.000000
     40         44.025707   0.000000
     41         45.394500   0.000000
     42         45.978442   0.000000
     43         46.573243   0.000000
     44         48.885548   0.000000
     45         49.427137   0.000000
     46         50.840024   0.000000
     47         53.331596   0.000000
     48         54.421102   0.000000
 
  0.3333333E+00  0.8333333E-01  0.0000000E+00  0.6944444E-02
      1        -48.423545   1.000000
      2        -48.334291   1.000000
      3        -24.932823   1.000000
      4        -24.753630   1.000000
      5        -24.670167   1.000000
      6        -24.551985   1.000000
      7        -24.480064   1.000000
      8        -24.420070   1.000000
      9          4.386654   1.000000
     10          6.763849   1.000000
     11          7.126613   1.000000
     12          7.685720   1.000000
     13          8.969693   0.000000
     14          9.077520   0.000000
     15          9.405747   0.000000
     16         10.453592   0.000000
     17         10.726186   0.000000
     18         11.126692   0.000000
     19         11.789622   0.000000
     20         15.290015   0.000000
     21         16.464376   0.000000
     22         18.616856   0.000000
     23         20.832034   0.000000
     24         22.835036   0.000000
     25         24.523551   0.000000
     26         25.078689   0.000000
     27         27.460106   0.000000
     28         28.217519   0.000000
     29         29.871561   0.000000
     30         32.078271   0.000000
     31         32.585095   0.000000
     32         33.624137   0.000000
     33         35.469423   0.000000
     34         36.299328   0.000000
     35         37.293568   0.000000
     36         39.570157   0.000000
     37         41.449201   0.000000
     38         42.129100   0.000000
     39         43.564131   0.000000
     40         44.174909   0.000000
     41         45.314992   0.000000
     42         47.010166   0.000000
     43         47.075965   0.000000
     44         48.418043   0.000000
     45         50.322348   0.000000
     46         51.047453   0.000000
     47         51.533473   0.000000
     48         52.374218   0.000000
 
  0.4166667E+00  0.8333333E-01  0.0000000E+00  0.6944444E-02
      1        -48.395343   1.000000
      2        -48.330548   1.000000
      3        -24.856502   1.000000
      4        -24.856365   1.000000
      5        -24.749255   1.000000
      6        -24.594076   1.000000
      7        -24.527761   1.000000
      8        -24.439430   1.000000
      9          5.326029   1.000000
     10          6.610835   1.000000
     11          6.747475   1.000000
     12          7.614310   1.000000
     13          8.813194   0.000000
     14          9.149590   0.000000
     15          9.299868   0.000000
     16         11.066003   0.000000
     17         11.338560   0.000000
     18         11.825645   0.000000
     19         11.837810   0.000000
     20         15.722093   0.000000
     21         16.612936   0.000000
     22         17.528090   0.000000
     23         19.731175   0.000000
     24         21.521119   0.000000
     25         22.775134   0.000000
     26         24.249070   0.000000
     27         26.991774   0.000000
     28         27.591388   0.000000
     29         30.415387   0.000000
     30         32.620652   0.000000
     31         33.688655   0.000000
     32         33.982334   0.000000
     33         36.827078   0.000000
     34         38.389919   0.000000
     35         39.497286   0.000000
     36         40.391701   0.000000
     37         40.866419   0.000000
     38         42.085463   0.000000
     39         43.743636   0.000000
     40         44.297441   0.000000
     41         46.256529   0.000000
     42         47.715328   0.000000
     43         48.515134   0.000000
     44         48.992257   0.000000
     45         50.063625   0.000000
     46         50.260923   0.000000
     47         51.061014   0.000000
     48         51.354942   0.000000
 
  0.5000000E+00  0.8333333E-01  0.0000000E+00  0.6944444E-02
      1        -48.376447   1.000000
      2        -48.331245   1.000000
      3        -24.915716   1.000000
      4        -24.798176   1.000000
      5        -24.795184   1.000000
      6        -24.616984   1.000000
      7        -24.569555   1.000000
      8        -24.450793   1.000000
      9          5.990637   1.000000
     10          6.376196   1.000000
     11          6.550779   1.000000
     12          7.628376   1.000000
     13          8.766929   0.000000
     14          8.968574   0.000000
     15          9.516686   0.000000
     16         11.617280   0.000000
     17         11.701184   0.000000
     18         11.859485   0.000000
     19         12.575576   0.000000
     20         14.271629   0.000000
     21         17.709851   0.000000
     22         17.776358   0.000000
     23         19.038228   0.000000
     24         20.479687   0.000000
     25         21.313814   0.000000
     26         23.746671   0.000000
     27         26.431324   0.000000
     28         27.520295   0.000000
     29         30.660321   0.000000
     30         33.022751   0.000000
     31         33.973803   0.000000
     32         35.331065   0.000000
     33         38.083545   0.000000
     34         38.530512   0.000000
     35         40.204641   0.000000
     36         40.735354   0.000000
     37         42.297050   0.000000
     38         42.941461   0.000000
     39         43.052981   0.000000
     40         43.855855   0.000000
     41         46.577451   0.000000
     42         46.924564   0.000000
     43         47.873808   0.000000
     44         48.946892   0.000000
     45         50.475736   0.000000
     46         50.820636   0.000000
     47         51.175909   0.000000
     48         52.029139   0.000000
 
  0.3333333E+00  0.1666667E+00  0.0000000E+00  0.3472222E-02
      1        -48.427478   1.000000
      2        -48.335211   1.000000
      3        -24.943307   1.000000
      4        -24.700386   1.000000
      5        -24.689764   1.000000
      6        -24.531608   1.000000
      7        -24.473972   1.000000
      8        -24.436970   1.000000
      9          4.263012   1.000000
     10          6.889641   1.000000
     11          7.230625   1.000000
     12          7.575588   1.000000
     13          8.883584   0.000000
     14          9.069599   0.000000
     15          9.528238   0.000000
     16         10.216637   0.000000
     17         10.681941   0.000000
     18         11.128568   0.000000
     19         11.733217   0.000000
     20         15.135641   0.000000
     21         16.556274   0.000000
     22         19.618445   0.000000
     23         19.786354   0.000000
     24         23.222599   0.000000
     25         25.017509   0.000000
     26         25.925434   0.000000
     27         26.038908   0.000000
     28         29.312258   0.000000
     29         29.521420   0.000000
     30         32.143437   0.000000
     31         33.920007   0.000000
     32         34.130410   0.000000
     33         34.449614   0.000000
     34         34.562787   0.000000
     35         36.276364   0.000000
     36         39.670295   0.000000
     37         41.797342   0.000000
     38         42.513148   0.000000
     39         43.983419   0.000000
     40         44.737812   0.000000
     41         44.869036   0.000000
     42         45.996883   0.000000
     43         46.234896   0.000000
     44         48.367809   0.000000
     45         49.489903   0.000000
     46         51.108177   0.000000
     47         52.711214   0.000000
     48         53.935530   0.000000
 
  0.4166667E+00  0.1666667E+00  0.0000000E+00  0.6944444E-02
      1        -48.399905   1.000000
      2        -48.330858   1.000000
      3        -24.870327   1.000000
      4        -24.797280   1.000000
      5        -24.745069   1.000000
      6        -24.587050   1.000000
      7        -24.518391   1.000000
      8        -24.474114   1.000000
      9          5.200652   1.000000
     10          6.885338   1.000000
     11          6.957009   1.000000
     12          7.362352   1.000000
     13          8.665898   0.000000
     14          9.215057   0.000000
     15          9.274827   0.000000
     16         10.595141   0.000000
     17         11.306854   0.000000
     18         11.746035   0.000000
     19         11.849049   0.000000
     20         16.431911   0.000000
     21         16.476051   0.000000
     22         17.806603   0.000000
     23         18.678370   0.000000
     24         22.176991   0.000000
     25         23.952093   0.000000
     26         23.986113   0.000000
     27         25.461539   0.000000
     28         29.550871   0.000000
     29         30.357002   0.000000
     30         33.091295   0.000000
     31         34.189934   0.000000
     32         34.372154   0.000000
     33         35.666966   0.000000
     34         36.158902   0.000000
     35         37.544932   0.000000
     36         40.442523   0.000000
     37         42.335169   0.000000
     38         42.371183   0.000000
     39         43.805909   0.000000
     40         45.157931   0.000000
     41         45.633328   0.000000
     42         46.985386   0.000000
     43         47.373294   0.000000
     44         47.715307   0.000000
     45         50.256120   0.000000
     46         50.721123   0.000000
     47         52.742642   0.000000
     48         52.821330   0.000000
 
  0.5000000E+00  0.1666667E+00  0.0000000E+00  0.6944444E-02
      1        -48.376550   1.000000
      2        -48.331010   1.000000
      3        -24.870792   1.000000
      4        -24.799614   1.000000
      5        -24.770619   1.000000
      6        -24.641251   1.000000
      7        -24.568170   1.000000
      8        -24.499070   1.000000
      9          6.021776   1.000000
     10          6.663638   1.000000
     11          6.724260   1.000000
     12          7.397359   1.000000
     13          8.602952   0.000000
     14          8.998742   0.000000
     15          9.496204   0.000000
     16         11.099312   0.000000
     17         11.675247   0.000000
     18         11.751993   0.000000
     19         12.594634   0.000000
     20         15.205659   0.000000
     21         17.635309   0.000000
     22         17.726300   0.000000
     23         17.992671   0.000000
     24         21.125345   0.000000
     25         22.099054   0.000000
     26         23.162944   0.000000
     27         24.861776   0.000000
     28         29.547107   0.000000
     29         31.184081   0.000000
     30         33.777988   0.000000
     31         34.856181   0.000000
     32         35.060439   0.000000
     33         36.332103   0.000000
     34         38.031416   0.000000
     35         38.580202   0.000000
     36         40.118190   0.000000
     37         42.256444   0.000000
     38         42.730264   0.000000
     39         42.956190   0.000000
     40         43.333664   0.000000
     41         46.977880   0.000000
     42         47.664782   0.000000
     43         48.841163   0.000000
     44         49.398304   0.000000
     45         50.342325   0.000000
     46         51.410995   0.000000
     47         51.601336   0.000000
     48         52.485997   0.000000
 
 -0.4166667E+00  0.1666667E+00  0.0000000E+00  0.3472222E-02
      1        -48.366273   1.000000
      2        -48.333348   1.000000
      3        -24.897402   1.000000
      4        -24.777073   1.000000
      5        -24.763517   1.000000
      6        -24.664784   1.000000
      7        -24.596595   1.000000
      8        -24.507861   1.000000
      9          6.400305   1.000000
     10          6.570212   1.000000
     11          6.587452   1.000000
     12          7.429660   1.000000
     13          8.634686   0.000000
     14          8.844440   0.000000
     15          9.628961   0.000000
     16         11.470121   0.000000
     17         11.688449   0.000000
     18         11.753369   0.000000
     19         13.148941   0.000000
     20         14.225352   0.000000
     21         17.458176   0.000000
     22         18.266164   0.000000
     23         18.498874   0.000000
     24         20.435760   0.000000
     25         21.157485   0.000000
     26         22.893101   0.000000
     27         24.617211   0.000000
     28         29.520436   0.000000
     29         31.490466   0.000000
     30         33.893757   0.000000
     31         34.805755   0.000000
     32         35.842216   0.000000
     33         37.534183   0.000000
     34         38.492282   0.000000
     35         39.149029   0.000000
     36         39.307574   0.000000
     37         41.084462   0.000000
     38         42.420691   0.000000
     39         42.559960   0.000000
     40         45.323659   0.000000
     41         47.265296   0.000000
     42         47.330497   0.000000
     43         47.784736   0.000000
     44         50.046158   0.000000
     45         50.727035   0.000000
     46         51.264197   0.000000
     47         51.943060   0.000000
     48         52.307784   0.000000
 
  0.5000000E+00  0.2500000E+00  0.0000000E+00  0.3472222E-02
      1        -48.376501   1.000000
      2        -48.330820   1.000000
      3        -24.832435   1.000000
      4        -24.800264   1.000000
      5        -24.777501   1.000000
      6        -24.638866   1.000000
      7        -24.567403   1.000000
      8        -24.534436   1.000000