 DBCSR| CPU Multiplication driver                                           BLAS (U)
 DBCSR| Multrec recursion limit                                              512 (U)
 DBCSR| Multiplication stack size                                           1000 (D)
 DBCSR| Maximum elements for images                                    UNLIMITED (U)
 DBCSR| Multiplicative factor virtual images                                   1 (U)
 DBCSR| Use multiplication densification                                       T (D)
 DBCSR| Multiplication size stacks                                             3 (U)
 DBCSR| Use memory pool for CPU allocation                                     F (U)
 DBCSR| Number of 3D layers                                               SINGLE (U)
 DBCSR| Use MPI memory allocation                                              F (U)
 DBCSR| Use RMA algorithm                                                      F (U)
 DBCSR| Use Communication thread                                               T (U)
 DBCSR| Communication thread load                                             45 (D)
 DBCSR| MPI: My process id                                                     0
 DBCSR| MPI: Number of processes                                               8
 DBCSR| OMP: Current number of threads                                        12
 DBCSR| OMP: Max number of threads                                            12
 DBCSR| Split modifier for TAS multiplication algorithm                  1.0E+00 (U)


  **** **** ******  **  PROGRAM STARTED AT               2025-08-04 14:54:48.109
 ***** ** ***  *** **   PROGRAM STARTED ON                          i04r09c05s08
 **    ****   ******    PROGRAM STARTED BY                               di38fab
 ***** **    ** ** **   PROGRAM PROCESS ID                               2493171
  **** **  *******  **  PROGRAM STARTED IN /hppfs/scratch/04/di38fab/09_GTH/Delt
                                           a_Set/Cl/aug-SZV-MOLOPT-GTH-tier-2-SR
                                           /8x8x8

 CP2K| version string:                 CP2K version 2025.1 (Development Version)
 CP2K| source code revision number:                                  git:3130539
 CP2K| cp2kflags: omp libint fftw3 libxc parallel scalapack max_contr=4         
 CP2K| is freely available from                            https://www.cp2k.org/
 CP2K| Program compiled at                         Tue Jun  3 16:14:32 CEST 2025
 CP2K| Program compiled on                                               login01
 CP2K| Program compiled for                                        Supermuc-foss
 CP2K| Data directory path                  /hppfs/work/pn36zo/di38fab/cp2k/data
 CP2K| Input file name                                                    GW.inp

 GLOBAL| Force Environment number                                              1
 GLOBAL| Basis set file name            /hppfs/scratch/04/di38fab/09_GTH/BASIS_A
 GLOBAL| Potential file name            /hppfs/work/pn36zo/di38fab/cp2k/data/GTH
 GLOBAL| MM Potential file name                                     MM_POTENTIAL
 GLOBAL| Coordinate file name                                             Cl.cif
 GLOBAL| Method name                                                        CP2K
 GLOBAL| Project name                                                       WSe2
 GLOBAL| Run type                                                         ENERGY
 GLOBAL| FFT library                                                       FFTW3
 GLOBAL| Diagonalization library                                       ScaLAPACK
 GLOBAL| Cholesky decomposition library                                ScaLAPACK
 GLOBAL| DGEMM library                                                      BLAS
 GLOBAL| Orthonormality check for eigenvectors                          DISABLED
 GLOBAL| Matrix multiplication library                                 ScaLAPACK
 GLOBAL| All-to-all communication in single precision                          F
 GLOBAL| FFTs using library dependent lengths                                  F
 GLOBAL| Grid backend                                                       AUTO
 GLOBAL| Global print level                                               MEDIUM
 GLOBAL| MPI I/O enabled                                                       T
 GLOBAL| Total number of message passing processes                             8
 GLOBAL| Number of threads for this process                                   12
 GLOBAL| This output is from process                                           0
 GLOBAL| OpenMP stack size per thread (OMP_STACKSIZE)                    default
 GLOBAL| CPU model name             Intel(R) Xeon(R) Platinum 8174 CPU @ 3.10GHz

 MEMORY| system memory details [Kb]
 MEMORY|                        rank 0           min           max       average
 MEMORY| MemTotal             98436664      98436660      98436664      98436662
 MEMORY| MemFree              84339328      84339328      84441960      84390644
 MEMORY| Buffers                     0             0             0             0
 MEMORY| Cached                2359292       2359292       2375364       2367328
 MEMORY| Slab                  1296640       1296304       1296640       1296472
 MEMORY| SReclaimable           282276        282276        283412        282844
 MEMORY| MemLikelyFree        86980896      86980896      87100736      87040816


 *** Fundamental physical constants (SI units) ***

 *** Literature: B. J. Mohr and B. N. Taylor,
 ***             CODATA recommended values of the fundamental physical
 ***             constants: 2006, Web Version 5.1
 ***             http://physics.nist.gov/constants

 Speed of light in vacuum [m/s]                             2.99792458000000E+08
 Magnetic constant or permeability of vacuum [N/A**2]       1.25663706143592E-06
 Electric constant or permittivity of vacuum [F/m]          8.85418781762039E-12
 Planck constant (h) [J*s]                                  6.62606896000000E-34
 Planck constant (h-bar) [J*s]                              1.05457162825177E-34
 Elementary charge [C]                                      1.60217648700000E-19
 Electron mass [kg]                                         9.10938215000000E-31
 Electron g factor [ ]                                     -2.00231930436220E+00
 Proton mass [kg]                                           1.67262163700000E-27
 Fine-structure constant                                    7.29735253760000E-03
 Rydberg constant [1/m]                                     1.09737315685270E+07
 Avogadro constant [1/mol]                                  6.02214179000000E+23
 Boltzmann constant [J/K]                                   1.38065040000000E-23
 Atomic mass unit [kg]                                      1.66053878200000E-27
 Bohr radius [m]                                            5.29177208590000E-11

 *** Conversion factors ***

 [u] -> [a.u.]                                              1.82288848426455E+03
 [Angstrom] -> [Bohr] = [a.u.]                              1.88972613288564E+00
 [a.u.] = [Bohr] -> [Angstrom]                              5.29177208590000E-01
 [a.u.] -> [s]                                              2.41888432650478E-17
 [a.u.] -> [fs]                                             2.41888432650478E-02
 [a.u.] -> [J]                                              4.35974393937059E-18
 [a.u.] -> [N]                                              8.23872205491840E-08
 [a.u.] -> [K]                                              3.15774647902944E+05
 [a.u.] -> [kJ/mol]                                         2.62549961709828E+03
 [a.u.] -> [kcal/mol]                                       6.27509468713739E+02
 [a.u.] -> [Pa]                                             2.94210107994716E+13
 [a.u.] -> [bar]                                            2.94210107994716E+08
 [a.u.] -> [atm]                                            2.90362800883016E+08
 [a.u.] -> [eV]                                             2.72113838565563E+01
 [a.u.] -> [Hz]                                             6.57968392072181E+15
 [a.u.] -> [1/cm] (wave numbers)                            2.19474631370540E+05
 [a.u./Bohr**2] -> [1/cm]                                   5.14048714338585E+03
 

 CELL_TOP| Volume [angstrom^3]:                                       305.428517
 CELL_TOP| Vector a [angstrom     7.779     0.000     0.000   |a| =     7.778750
 CELL_TOP| Vector b [angstrom     0.000     4.349     0.000   |b| =     4.349410
 CELL_TOP| Vector c [angstrom     0.000     0.000     9.028   |c| =     9.027540
 CELL_TOP| Angle (b,c), alpha [degree]:                                90.000000
 CELL_TOP| Angle (a,c), beta  [degree]:                                90.000000
 CELL_TOP| Angle (a,b), gamma [degree]:                                90.000000
 CELL_TOP| Numerically orthorhombic:                                         YES
 CELL_TOP| Periodicity                                                       XYZ

 CELL_CIF| Volume [angstrom^3]:                                       305.428517
 CELL_CIF| Vector a [angstrom     7.779     0.000     0.000   |a| =     7.778750
 CELL_CIF| Vector b [angstrom     0.000     4.349     0.000   |b| =     4.349410
 CELL_CIF| Vector c [angstrom     0.000     0.000     9.028   |c| =     9.027540
 CELL_CIF| Angle (b,c), alpha [degree]:                                90.000000
 CELL_CIF| Angle (a,c), beta  [degree]:                                90.000000
 CELL_CIF| Angle (a,b), gamma [degree]:                                90.000000
 CELL_CIF| Numerically orthorhombic:                                         YES
 CELL_CIF| Periodicity                                                       XYZ

 GENERATE|  Preliminary Number of Bonds generated:                             0
 GENERATE|  Achieved consistency in connectivity generation.

 CELL| Volume [angstrom^3]:                                           305.428517
 CELL| Vector a [angstrom]:       7.779     0.000     0.000   |a| =     7.778750
 CELL| Vector b [angstrom]:       0.000     4.349     0.000   |b| =     4.349410
 CELL| Vector c [angstrom]:       0.000     0.000     9.028   |c| =     9.027540
 CELL| Angle (b,c), alpha [degree]:                                    90.000000
 CELL| Angle (a,c), beta  [degree]:                                    90.000000
 CELL| Angle (a,b), gamma [degree]:                                    90.000000
 CELL| Numerically orthorhombic:                                             YES
 CELL| Periodicity                                                           XYZ

 CELL_REF| Volume [angstrom^3]:                                       305.428517
 CELL_REF| Vector a [angstrom     7.779     0.000     0.000   |a| =     7.778750
 CELL_REF| Vector b [angstrom     0.000     4.349     0.000   |b| =     4.349410
 CELL_REF| Vector c [angstrom     0.000     0.000     9.028   |c| =     9.027540
 CELL_REF| Angle (b,c), alpha [degree]:                                90.000000
 CELL_REF| Angle (a,c), beta  [degree]:                                90.000000
 CELL_REF| Angle (a,b), gamma [degree]:                                90.000000
 CELL_REF| Numerically orthorhombic:                                         YES
 CELL_REF| Periodicity                                                       XYZ

 *** WARNING in cryssym.F:180 :: Symmetry library SPGLIB not available ***


 *******************************************************************************
                                    Kpoints
 *******************************************************************************
 BRILLOUIN| K-point scheme                                        Monkhorst-Pack
 BRILLOUIN| K-Point grid                                             8    8    8
 BRILLOUIN| Accuracy in Symmetry determination                      0.100000E-05
 BRILLOUIN| K-Point point group symmetrization                               OFF
 BRILLOUIN| Wavefunction type                                            COMPLEX
 BRILLOUIN| List of Kpoints [2 Pi/Bohr]                                      256
 BRILLOUIN| Number           Weight            X              Y              Z
 BRILLOUIN|     1           0.00391       -0.43750       -0.43750       -0.43750
 BRILLOUIN|     2           0.00391       -0.43750       -0.43750       -0.31250
 BRILLOUIN|     3           0.00391       -0.43750       -0.43750       -0.18750
 BRILLOUIN|     4           0.00391       -0.43750       -0.43750       -0.06250
 BRILLOUIN|     5           0.00391       -0.43750       -0.43750        0.06250
 BRILLOUIN|     6           0.00391       -0.43750       -0.43750        0.18750
 BRILLOUIN|     7           0.00391       -0.43750       -0.43750        0.31250
 BRILLOUIN|     8           0.00391       -0.43750       -0.43750        0.43750
 BRILLOUIN|     9           0.00391       -0.43750       -0.31250       -0.43750
 BRILLOUIN|    10           0.00391       -0.43750       -0.31250       -0.31250
 BRILLOUIN|    11           0.00391       -0.43750       -0.31250       -0.18750
 BRILLOUIN|    12           0.00391       -0.43750       -0.31250       -0.06250
 BRILLOUIN|    13           0.00391       -0.43750       -0.31250        0.06250
 BRILLOUIN|    14           0.00391       -0.43750       -0.31250        0.18750
 BRILLOUIN|    15           0.00391       -0.43750       -0.31250        0.31250
 BRILLOUIN|    16           0.00391       -0.43750       -0.31250        0.43750
 BRILLOUIN|    17           0.00391       -0.43750       -0.18750       -0.43750
 BRILLOUIN|    18           0.00391       -0.43750       -0.18750       -0.31250
 BRILLOUIN|    19           0.00391       -0.43750       -0.18750       -0.18750
 BRILLOUIN|    20           0.00391       -0.43750       -0.18750       -0.06250
 BRILLOUIN|    21           0.00391       -0.43750       -0.18750        0.06250
 BRILLOUIN|    22           0.00391       -0.43750       -0.18750        0.18750
 BRILLOUIN|    23           0.00391       -0.43750       -0.18750        0.31250
 BRILLOUIN|    24           0.00391       -0.43750       -0.18750        0.43750
 BRILLOUIN|    25           0.00391       -0.43750       -0.06250       -0.43750
 BRILLOUIN|    26           0.00391       -0.43750       -0.06250       -0.31250
 BRILLOUIN|    27           0.00391       -0.43750       -0.06250       -0.18750
 BRILLOUIN|    28           0.00391       -0.43750       -0.06250       -0.06250
 BRILLOUIN|    29           0.00391       -0.43750       -0.06250        0.06250
 BRILLOUIN|    30           0.00391       -0.43750       -0.06250        0.18750
 BRILLOUIN|    31           0.00391       -0.43750       -0.06250        0.31250
 BRILLOUIN|    32           0.00391       -0.43750       -0.06250        0.43750
 BRILLOUIN|    33           0.00391       -0.43750        0.06250       -0.43750
 BRILLOUIN|    34           0.00391       -0.43750        0.06250       -0.31250
 BRILLOUIN|    35           0.00391       -0.43750        0.06250       -0.18750
 BRILLOUIN|    36           0.00391       -0.43750        0.06250       -0.06250
 BRILLOUIN|    37           0.00391       -0.43750        0.06250        0.06250
 BRILLOUIN|    38           0.00391       -0.43750        0.06250        0.18750
 BRILLOUIN|    39           0.00391       -0.43750        0.06250        0.31250
 BRILLOUIN|    40           0.00391       -0.43750        0.06250        0.43750
 BRILLOUIN|    41           0.00391       -0.43750        0.18750       -0.43750
 BRILLOUIN|    42           0.00391       -0.43750        0.18750       -0.31250
 BRILLOUIN|    43           0.00391       -0.43750        0.18750       -0.18750
 BRILLOUIN|    44           0.00391       -0.43750        0.18750       -0.06250
 BRILLOUIN|    45           0.00391       -0.43750        0.18750        0.06250
 BRILLOUIN|    46           0.00391       -0.43750        0.18750        0.18750
 BRILLOUIN|    47           0.00391       -0.43750        0.18750        0.31250
 BRILLOUIN|    48           0.00391       -0.43750        0.18750        0.43750
 BRILLOUIN|    49           0.00391       -0.43750        0.31250       -0.43750
 BRILLOUIN|    50           0.00391       -0.43750        0.31250       -0.31250
 BRILLOUIN|    51           0.00391       -0.43750        0.31250       -0.18750
 BRILLOUIN|    52           0.00391       -0.43750        0.31250       -0.06250
 BRILLOUIN|    53           0.00391       -0.43750        0.31250        0.06250
 BRILLOUIN|    54           0.00391       -0.43750        0.31250        0.18750
 BRILLOUIN|    55           0.00391       -0.43750        0.31250        0.31250
 BRILLOUIN|    56           0.00391       -0.43750        0.31250        0.43750
 BRILLOUIN|    57           0.00391       -0.43750        0.43750       -0.43750
 BRILLOUIN|    58           0.00391       -0.43750        0.43750       -0.31250
 BRILLOUIN|    59           0.00391       -0.43750        0.43750       -0.18750
 BRILLOUIN|    60           0.00391       -0.43750        0.43750       -0.06250
 BRILLOUIN|    61           0.00391       -0.43750        0.43750        0.06250
 BRILLOUIN|    62           0.00391       -0.43750        0.43750        0.18750
 BRILLOUIN|    63           0.00391       -0.43750        0.43750        0.31250
 BRILLOUIN|    64           0.00391       -0.43750        0.43750        0.43750
 BRILLOUIN|    65           0.00391       -0.31250       -0.43750       -0.43750
 BRILLOUIN|    66           0.00391       -0.31250       -0.43750       -0.31250
 BRILLOUIN|    67           0.00391       -0.31250       -0.43750       -0.18750
 BRILLOUIN|    68           0.00391       -0.31250       -0.43750       -0.06250
 BRILLOUIN|    69           0.00391       -0.31250       -0.43750        0.06250
 BRILLOUIN|    70           0.00391       -0.31250       -0.43750        0.18750
 BRILLOUIN|    71           0.00391       -0.31250       -0.43750        0.31250
 BRILLOUIN|    72           0.00391       -0.31250       -0.43750        0.43750
 BRILLOUIN|    73           0.00391       -0.31250       -0.31250       -0.43750
 BRILLOUIN|    74           0.00391       -0.31250       -0.31250       -0.31250
 BRILLOUIN|    75           0.00391       -0.31250       -0.31250       -0.18750
 BRILLOUIN|    76           0.00391       -0.31250       -0.31250       -0.06250
 BRILLOUIN|    77           0.00391       -0.31250       -0.31250        0.06250
 BRILLOUIN|    78           0.00391       -0.31250       -0.31250        0.18750
 BRILLOUIN|    79           0.00391       -0.31250       -0.31250        0.31250
 BRILLOUIN|    80           0.00391       -0.31250       -0.31250        0.43750
 BRILLOUIN|    81           0.00391       -0.31250       -0.18750       -0.43750
 BRILLOUIN|    82           0.00391       -0.31250       -0.18750       -0.31250
 BRILLOUIN|    83           0.00391       -0.31250       -0.18750       -0.18750
 BRILLOUIN|    84           0.00391       -0.31250       -0.18750       -0.06250
 BRILLOUIN|    85           0.00391       -0.31250       -0.18750        0.06250
 BRILLOUIN|    86           0.00391       -0.31250       -0.18750        0.18750
 BRILLOUIN|    87           0.00391       -0.31250       -0.18750        0.31250
 BRILLOUIN|    88           0.00391       -0.31250       -0.18750        0.43750
 BRILLOUIN|    89           0.00391       -0.31250       -0.06250       -0.43750
 BRILLOUIN|    90           0.00391       -0.31250       -0.06250       -0.31250
 BRILLOUIN|    91           0.00391       -0.31250       -0.06250       -0.18750
 BRILLOUIN|    92           0.00391       -0.31250       -0.06250       -0.06250
 BRILLOUIN|    93           0.00391       -0.31250       -0.06250        0.06250
 BRILLOUIN|    94           0.00391       -0.31250       -0.06250        0.18750
 BRILLOUIN|    95           0.00391       -0.31250       -0.06250        0.31250
 BRILLOUIN|    96           0.00391       -0.31250       -0.06250        0.43750
 BRILLOUIN|    97           0.00391       -0.31250        0.06250       -0.43750
 BRILLOUIN|    98           0.00391       -0.31250        0.06250       -0.31250
 BRILLOUIN|    99           0.00391       -0.31250        0.06250       -0.18750
 BRILLOUIN|   100           0.00391       -0.31250        0.06250       -0.06250
 BRILLOUIN|   101           0.00391       -0.31250        0.06250        0.06250
 BRILLOUIN|   102           0.00391       -0.31250        0.06250        0.18750
 BRILLOUIN|   103           0.00391       -0.31250        0.06250        0.31250
 BRILLOUIN|   104           0.00391       -0.31250        0.06250        0.43750
 BRILLOUIN|   105           0.00391       -0.31250        0.18750       -0.43750
 BRILLOUIN|   106           0.00391       -0.31250        0.18750       -0.31250
 BRILLOUIN|   107           0.00391       -0.31250        0.18750       -0.18750
 BRILLOUIN|   108           0.00391       -0.31250        0.18750       -0.06250
 BRILLOUIN|   109           0.00391       -0.31250        0.18750        0.06250
 BRILLOUIN|   110           0.00391       -0.31250        0.18750        0.18750
 BRILLOUIN|   111           0.00391       -0.31250        0.18750        0.31250
 BRILLOUIN|   112           0.00391       -0.31250        0.18750        0.43750
 BRILLOUIN|   113           0.00391       -0.31250        0.31250       -0.43750
 BRILLOUIN|   114           0.00391       -0.31250        0.31250       -0.31250
 BRILLOUIN|   115           0.00391       -0.31250        0.31250       -0.18750
 BRILLOUIN|   116           0.00391       -0.31250        0.31250       -0.06250
 BRILLOUIN|   117           0.00391       -0.31250        0.31250        0.06250
 BRILLOUIN|   118           0.00391       -0.31250        0.31250        0.18750
 BRILLOUIN|   119           0.00391       -0.31250        0.31250        0.31250
 BRILLOUIN|   120           0.00391       -0.31250        0.31250        0.43750
 BRILLOUIN|   121           0.00391       -0.31250        0.43750       -0.43750
 BRILLOUIN|   122           0.00391       -0.31250        0.43750       -0.31250
 BRILLOUIN|   123           0.00391       -0.31250        0.43750       -0.18750
 BRILLOUIN|   124           0.00391       -0.31250        0.43750       -0.06250
 BRILLOUIN|   125           0.00391       -0.31250        0.43750        0.06250
 BRILLOUIN|   126           0.00391       -0.31250        0.43750        0.18750
 BRILLOUIN|   127           0.00391       -0.31250        0.43750        0.31250
 BRILLOUIN|   128           0.00391       -0.31250        0.43750        0.43750
 BRILLOUIN|   129           0.00391       -0.18750       -0.43750       -0.43750
 BRILLOUIN|   130           0.00391       -0.18750       -0.43750       -0.31250
 BRILLOUIN|   131           0.00391       -0.18750       -0.43750       -0.18750
 BRILLOUIN|   132           0.00391       -0.18750       -0.43750       -0.06250
 BRILLOUIN|   133           0.00391       -0.18750       -0.43750        0.06250
 BRILLOUIN|   134           0.00391       -0.18750       -0.43750        0.18750
 BRILLOUIN|   135           0.00391       -0.18750       -0.43750        0.31250
 BRILLOUIN|   136           0.00391       -0.18750       -0.43750        0.43750
 BRILLOUIN|   137           0.00391       -0.18750       -0.31250       -0.43750
 BRILLOUIN|   138           0.00391       -0.18750       -0.31250       -0.31250
 BRILLOUIN|   139           0.00391       -0.18750       -0.31250       -0.18750
 BRILLOUIN|   140           0.00391       -0.18750       -0.31250       -0.06250
 BRILLOUIN|   141           0.00391       -0.18750       -0.31250        0.06250
 BRILLOUIN|   142           0.00391       -0.18750       -0.31250        0.18750
 BRILLOUIN|   143           0.00391       -0.18750       -0.31250        0.31250
 BRILLOUIN|   144           0.00391       -0.18750       -0.31250        0.43750
 BRILLOUIN|   145           0.00391       -0.18750       -0.18750       -0.43750
 BRILLOUIN|   146           0.00391       -0.18750       -0.18750       -0.31250
 BRILLOUIN|   147           0.00391       -0.18750       -0.18750       -0.18750
 BRILLOUIN|   148           0.00391       -0.18750       -0.18750       -0.06250
 BRILLOUIN|   149           0.00391       -0.18750       -0.18750        0.06250
 BRILLOUIN|   150           0.00391       -0.18750       -0.18750        0.18750
 BRILLOUIN|   151           0.00391       -0.18750       -0.18750        0.31250
 BRILLOUIN|   152           0.00391       -0.18750       -0.18750        0.43750
 BRILLOUIN|   153           0.00391       -0.18750       -0.06250       -0.43750
 BRILLOUIN|   154           0.00391       -0.18750       -0.06250       -0.31250
 BRILLOUIN|   155           0.00391       -0.18750       -0.06250       -0.18750
 BRILLOUIN|   156           0.00391       -0.18750       -0.06250       -0.06250
 BRILLOUIN|   157           0.00391       -0.18750       -0.06250        0.06250
 BRILLOUIN|   158           0.00391       -0.18750       -0.06250        0.18750
 BRILLOUIN|   159           0.00391       -0.18750       -0.06250        0.31250
 BRILLOUIN|   160           0.00391       -0.18750       -0.06250        0.43750
 BRILLOUIN|   161           0.00391       -0.18750        0.06250       -0.43750
 BRILLOUIN|   162           0.00391       -0.18750        0.06250       -0.31250
 BRILLOUIN|   163           0.00391       -0.18750        0.06250       -0.18750
 BRILLOUIN|   164           0.00391       -0.18750        0.06250       -0.06250
 BRILLOUIN|   165           0.00391       -0.18750        0.06250        0.06250
 BRILLOUIN|   166           0.00391       -0.18750        0.06250        0.18750
 BRILLOUIN|   167           0.00391       -0.18750        0.06250        0.31250
 BRILLOUIN|   168           0.00391       -0.18750        0.06250        0.43750
 BRILLOUIN|   169           0.00391       -0.18750        0.18750       -0.43750
 BRILLOUIN|   170           0.00391       -0.18750        0.18750       -0.31250
 BRILLOUIN|   171           0.00391       -0.18750        0.18750       -0.18750
 BRILLOUIN|   172           0.00391       -0.18750        0.18750       -0.06250
 BRILLOUIN|   173           0.00391       -0.18750        0.18750        0.06250
 BRILLOUIN|   174           0.00391       -0.18750        0.18750        0.18750
 BRILLOUIN|   175           0.00391       -0.18750        0.18750        0.31250
 BRILLOUIN|   176           0.00391       -0.18750        0.18750        0.43750
 BRILLOUIN|   177           0.00391       -0.18750        0.31250       -0.43750
 BRILLOUIN|   178           0.00391       -0.18750        0.31250       -0.31250
 BRILLOUIN|   179           0.00391       -0.18750        0.31250       -0.18750
 BRILLOUIN|   180           0.00391       -0.18750        0.31250       -0.06250
 BRILLOUIN|   181           0.00391       -0.18750        0.31250        0.06250
 BRILLOUIN|   182           0.00391       -0.18750        0.31250        0.18750
 BRILLOUIN|   183           0.00391       -0.18750        0.31250        0.31250
 BRILLOUIN|   184           0.00391       -0.18750        0.31250        0.43750
 BRILLOUIN|   185           0.00391       -0.18750        0.43750       -0.43750
 BRILLOUIN|   186           0.00391       -0.18750        0.43750       -0.31250
 BRILLOUIN|   187           0.00391       -0.18750        0.43750       -0.18750
 BRILLOUIN|   188           0.00391       -0.18750        0.43750       -0.06250
 BRILLOUIN|   189           0.00391       -0.18750        0.43750        0.06250
 BRILLOUIN|   190           0.00391       -0.18750        0.43750        0.18750
 BRILLOUIN|   191           0.00391       -0.18750        0.43750        0.31250
 BRILLOUIN|   192           0.00391       -0.18750        0.43750        0.43750
 BRILLOUIN|   193           0.00391       -0.06250       -0.43750       -0.43750
 BRILLOUIN|   194           0.00391       -0.06250       -0.43750       -0.31250
 BRILLOUIN|   195           0.00391       -0.06250       -0.43750       -0.18750
 BRILLOUIN|   196           0.00391       -0.06250       -0.43750       -0.06250
 BRILLOUIN|   197           0.00391       -0.06250       -0.43750        0.06250
 BRILLOUIN|   198           0.00391       -0.06250       -0.43750        0.18750
 BRILLOUIN|   199           0.00391       -0.06250       -0.43750        0.31250
 BRILLOUIN|   200           0.00391       -0.06250       -0.43750        0.43750
 BRILLOUIN|   201           0.00391       -0.06250       -0.31250       -0.43750
 BRILLOUIN|   202           0.00391       -0.06250       -0.31250       -0.31250
 BRILLOUIN|   203           0.00391       -0.06250       -0.31250       -0.18750
 BRILLOUIN|   204           0.00391       -0.06250       -0.31250       -0.06250
 BRILLOUIN|   205           0.00391       -0.06250       -0.31250        0.06250
 BRILLOUIN|   206           0.00391       -0.06250       -0.31250        0.18750
 BRILLOUIN|   207           0.00391       -0.06250       -0.31250        0.31250
 BRILLOUIN|   208           0.00391       -0.06250       -0.31250        0.43750
 BRILLOUIN|   209           0.00391       -0.06250       -0.18750       -0.43750
 BRILLOUIN|   210           0.00391       -0.06250       -0.18750       -0.31250
 BRILLOUIN|   211           0.00391       -0.06250       -0.18750       -0.18750
 BRILLOUIN|   212           0.00391       -0.06250       -0.18750       -0.06250
 BRILLOUIN|   213           0.00391       -0.06250       -0.18750        0.06250
 BRILLOUIN|   214           0.00391       -0.06250       -0.18750        0.18750
 BRILLOUIN|   215           0.00391       -0.06250       -0.18750        0.31250
 BRILLOUIN|   216           0.00391       -0.06250       -0.18750        0.43750
 BRILLOUIN|   217           0.00391       -0.06250       -0.06250       -0.43750
 BRILLOUIN|   218           0.00391       -0.06250       -0.06250       -0.31250
 BRILLOUIN|   219           0.00391       -0.06250       -0.06250       -0.18750
 BRILLOUIN|   220           0.00391       -0.06250       -0.06250       -0.06250
 BRILLOUIN|   221           0.00391       -0.06250       -0.06250        0.06250
 BRILLOUIN|   222           0.00391       -0.06250       -0.06250        0.18750
 BRILLOUIN|   223           0.00391       -0.06250       -0.06250        0.31250
 BRILLOUIN|   224           0.00391       -0.06250       -0.06250        0.43750
 BRILLOUIN|   225           0.00391       -0.06250        0.06250       -0.43750
 BRILLOUIN|   226           0.00391       -0.06250        0.06250       -0.31250
 BRILLOUIN|   227           0.00391       -0.06250        0.06250       -0.18750
 BRILLOUIN|   228           0.00391       -0.06250        0.06250       -0.06250
 BRILLOUIN|   229           0.00391       -0.06250        0.06250        0.06250
 BRILLOUIN|   230           0.00391       -0.06250        0.06250        0.18750
 BRILLOUIN|   231           0.00391       -0.06250        0.06250        0.31250
 BRILLOUIN|   232           0.00391       -0.06250        0.06250        0.43750
 BRILLOUIN|   233           0.00391       -0.06250        0.18750       -0.43750
 BRILLOUIN|   234           0.00391       -0.06250        0.18750       -0.31250
 BRILLOUIN|   235           0.00391       -0.06250        0.18750       -0.18750
 BRILLOUIN|   236           0.00391       -0.06250        0.18750       -0.06250
 BRILLOUIN|   237           0.00391       -0.06250        0.18750        0.06250
 BRILLOUIN|   238           0.00391       -0.06250        0.18750        0.18750
 BRILLOUIN|   239           0.00391       -0.06250        0.18750        0.31250
 BRILLOUIN|   240           0.00391       -0.06250        0.18750        0.43750
 BRILLOUIN|   241           0.00391       -0.06250        0.31250       -0.43750
 BRILLOUIN|   242           0.00391       -0.06250        0.31250       -0.31250
 BRILLOUIN|   243           0.00391       -0.06250        0.31250       -0.18750
 BRILLOUIN|   244           0.00391       -0.06250        0.31250       -0.06250
 BRILLOUIN|   245           0.00391       -0.06250        0.31250        0.06250
 BRILLOUIN|   246           0.00391       -0.06250        0.31250        0.18750
 BRILLOUIN|   247           0.00391       -0.06250        0.31250        0.31250
 BRILLOUIN|   248           0.00391       -0.06250        0.31250        0.43750
 BRILLOUIN|   249           0.00391       -0.06250        0.43750       -0.43750
 BRILLOUIN|   250           0.00391       -0.06250        0.43750       -0.31250
 BRILLOUIN|   251           0.00391       -0.06250        0.43750       -0.18750
 BRILLOUIN|   252           0.00391       -0.06250        0.43750       -0.06250
 BRILLOUIN|   253           0.00391       -0.06250        0.43750        0.06250
 BRILLOUIN|   254           0.00391       -0.06250        0.43750        0.18750
 BRILLOUIN|   255           0.00391       -0.06250        0.43750        0.31250
 BRILLOUIN|   256           0.00391       -0.06250        0.43750        0.43750
 *******************************************************************************

 *******************************************************************************
 *******************************************************************************
 **                                                                           **
 **     #####                         ##              ##                      **
 **    ##   ##            ##          ##              ##                      **
 **   ##     ##                       ##            ######                    **
 **   ##     ##  ##   ##  ##   #####  ##  ##   ####   ##    #####    #####    **
 **   ##     ##  ##   ##  ##  ##      ## ##   ##      ##   ##   ##  ##   ##   **
 **   ##  ## ##  ##   ##  ##  ##      ####     ###    ##   ######   ######    **
 **    ##  ###   ##   ##  ##  ##      ## ##      ##   ##   ##       ##        **
 **     #######   #####   ##   #####  ##  ##  ####    ##    #####   ##        **
 **           ##                                                    ##        **
 **                                                                           **
 **                                                ... make the atoms dance   **
 **                                                                           **
 **            Copyright (C) by CP2K developers group (2000-2025)             **
 **                      J. Chem. Phys. 152, 194103 (2020)                    **
 **                                                                           **
 *******************************************************************************

 DFT| Spin restricted Kohn-Sham (RKS) calculation                            RKS
 DFT| Multiplicity                                                             1
 DFT| Number of spin states                                                    1
 DFT| Charge                                                                   0
 DFT| Self-interaction correction (SIC)                                       NO
 DFT| Cutoffs: density                                              1.000000E-10
 DFT|          gradient                                             1.000000E-10
 DFT|          tau                                                  1.000000E-10
 DFT|          cutoff_smoothing_range                               0.000000E+00
 DFT| XC density smoothing                                                  NONE
 DFT| XC derivatives                                                          PW

 FUNCTIONAL| PBE:
 FUNCTIONAL| J.P.Perdew, K.Burke, M.Ernzerhof, Phys. Rev. Letter, vol. 77, n 18,
 FUNCTIONAL|  pp. 3865-3868, (1996) {spin unpolarized}                          


 QS| Method:                                                                 GPW
 QS| Density plane wave grid type                        NON-SPHERICAL FULLSPACE
 QS| Number of grid levels:                                                    4
 QS| Density cutoff [a.u.]:                                                500.0
 QS| Multi grid cutoff [a.u.]: 1) grid level                               500.0
 QS|                           2) grid level                               166.7
 QS|                           3) grid level                                55.6
 QS|                           4) grid level                                18.5
 QS| Grid level progression factor:                                          3.0
 QS| Relative density cutoff [a.u.]:                                        50.0
 QS| Interaction thresholds: eps_pgf_orb:                                1.0E-16
 QS|                         eps_filter_matrix:                          0.0E+00
 QS|                         eps_core_charge:                            1.0E-18
 QS|                         eps_rho_gspace:                             1.0E-16
 QS|                         eps_rho_rspace:                             1.0E-16
 QS|                         eps_gvg_rspace:                             1.0E-08
 QS|                         eps_ppl:                                    1.0E-02
 QS|                         eps_ppnl:                                   1.0E-10


 ATOMIC KIND INFORMATION

  1. Atomic kind: Cl                                    Number of atoms:       8

     Orbital Basis Set                              aug-SZV-MOLOPT-GTH-tier-2-SR

       Number of orbital shell sets:                                           1
       Number of orbital shells:                                               5
       Number of primitive Cartesian functions:                                5
       Number of Cartesian basis functions:                                   14
       Number of spherical basis functions:                                   13
       Norm type:                                                              2

       Normalised Cartesian orbitals:

                        Set   Shell   Orbital            Exponent    Coefficient

                          1       1    2s                0.150015      -0.058490
                                                         0.200000       0.000000
                                                         0.461213      -0.342539
                                                         1.470718       0.018727
                                                         2.379078       0.403013

                          1       2    3s                0.150015       0.322264
                                                         0.200000      -0.223009
                                                         0.461213       0.077125
                                                         1.470718      -0.009793
                                                         2.379078       0.000000

                          1       3    3px               0.150015      -0.051764
                                                         0.200000       0.000000
                                                         0.461213      -0.325785
                                                         1.470718      -0.580854
                                                         2.379078       0.636314
                          1       3    3py               0.150015      -0.051764
                                                         0.200000       0.000000
                                                         0.461213      -0.325785
                                                         1.470718      -0.580854
                                                         2.379078       0.636314
                          1       3    3pz               0.150015      -0.051764
                                                         0.200000       0.000000
                                                         0.461213      -0.325785
                                                         1.470718      -0.580854
                                                         2.379078       0.636314

                          1       4    4px               0.150015       0.273135
                                                         0.200000      -0.258090
                                                         0.461213       0.199915
                                                         1.470718       0.005756
                                                         2.379078       0.000000
                          1       4    4py               0.150015       0.273135
                                                         0.200000      -0.258090
                                                         0.461213       0.199915
                                                         1.470718       0.005756
                                                         2.379078       0.000000
                          1       4    4pz               0.150015       0.273135
                                                         0.200000      -0.258090
                                                         0.461213       0.199915
                                                         1.470718       0.005756
                                                         2.379078       0.000000

                          1       5    4dx2              0.150015       0.038841
                                                         0.200000      -0.005184
                                                         0.461213       0.178599
                                                         1.470718       0.643444
                                                         2.379078       0.000000
                          1       5    4dxy              0.150015       0.067274
                                                         0.200000      -0.008978
                                                         0.461213       0.309343
                                                         1.470718       1.114478
                                                         2.379078       0.000000
                          1       5    4dxz              0.150015       0.067274
                                                         0.200000      -0.008978
                                                         0.461213       0.309343
                                                         1.470718       1.114478
                                                         2.379078       0.000000
                          1       5    4dy2              0.150015       0.038841
                                                         0.200000      -0.005184
                                                         0.461213       0.178599
                                                         1.470718       0.643444
                                                         2.379078       0.000000
                          1       5    4dyz              0.150015       0.067274
                                                         0.200000      -0.008978
                                                         0.461213       0.309343
                                                         1.470718       1.114478
                                                         2.379078       0.000000
                          1       5    4dz2              0.150015       0.038841
                                                         0.200000      -0.005184
                                                         0.461213       0.178599
                                                         1.470718       0.643444
                                                         2.379078       0.000000

       Atomic covalent radius [Angstrom]:                                  0.990

       Atomic van der Waals radius [Angstrom]:                             1.750

     GTH Potential information for                                       GTH-PBE

       Description:                       Goedecker-Teter-Hutter pseudopotential
                                           Goedecker et al., PRB 54, 1703 (1996)
                                          Hartwigsen et al., PRB 58, 3641 (1998)
                                                      Krack, TCA 114, 145 (2005)

       Gaussian exponent of the core charge distribution:               2.974420
       Electronic configuration (s p d ...):                               2   5

       Parameters of the local part of the GTH pseudopotential:

                          rloc        C1          C2          C3          C4
                        0.410000   -6.392082

       Parameters of the non-local part of the GTH (SOC) pseudopotential:

                   l      r(l)      h(i,j,l)
                                    k(i,j,l)
                   0    0.339539   15.218990   -4.934523
                                   -4.934523    6.370442
                   1    0.378474    4.338775    0.000000
                                    0.000000    0.000000
                                    0.045289   -0.032578
                                   -0.032578    0.038547


 MOLECULE KIND INFORMATION


 All atoms are their own molecule, skipping detailed information


 TOTAL NUMBERS AND MAXIMUM NUMBERS

  Total number of            - Atomic kinds:                                   1
                             - Atoms:                                          8
                             - Shell sets:                                     8
                             - Shells:                                        40
                             - Primitive Cartesian functions:                 40
                             - Cartesian basis functions:                    112
                             - Spherical basis functions:                    104

  Maximum angular momentum of- Orbital basis functions:                        2
                             - Local part of the GTH pseudopotential:          0
                             - Non-local part of the GTH pseudopotential:      3


 MODULE QUICKSTEP: ATOMIC COORDINATES IN ANGSTROM

   Atom Kind Element         X             Y             Z       Z(eff)     Mass
      1    1 Cl   17      0.000000      1.778126      8.111064   7.0000  35.4530
      2    1 Cl   17      0.000000      0.396579      3.597294   7.0000  35.4530
      3    1 Cl   17      0.000000      3.952831      5.430246   7.0000  35.4530
      4    1 Cl   17      0.000000      2.571284      0.916476   7.0000  35.4530
      5    1 Cl   17      3.889375      3.952831      8.111064   7.0000  35.4530
      6    1 Cl   17      3.889375      2.571284      3.597294   7.0000  35.4530
      7    1 Cl   17      3.889375      1.778126      5.430246   7.0000  35.4530
      8    1 Cl   17      3.889375      0.396579      0.916476   7.0000  35.4530



 SCF PARAMETERS         Density guess:                                    ATOMIC
                        --------------------------------------------------------
                        max_scf:                                             500
                        max_scf_history:                                       0
                        max_diis:                                              4
                        --------------------------------------------------------
                        eps_scf:                                        1.00E-09
                        eps_scf_history:                                0.00E+00
                        eps_diis:                                       1.00E-01
                        eps_eigval:                                     1.00E-05
                        --------------------------------------------------------
                        level_shift [a.u.]:                             0.000000
                        added MOs                                        76    0
                        --------------------------------------------------------
                        Mixing method:                            BROYDEN_MIXING
                                                charge density mixing in g-space
                        --------------------------------------------------------
                        No outer SCF

 PW_GRID| Information for grid number                                          1
 PW_GRID| Grid distributed over                                     8 processors
 PW_GRID| Real space group dimensions                                     8    1
 PW_GRID| the grid is blocked:                                                NO
 PW_GRID| Cutoff [a.u.]                                                    500.0
 PW_GRID| spherical cutoff:                                                   NO
 PW_GRID|   Bounds   1            -75      74                Points:         150
 PW_GRID|   Bounds   2            -45      44                Points:          90
 PW_GRID|   Bounds   3            -90      89                Points:         180
 PW_GRID| Volume element (a.u.^3)  0.8482E-03     Volume (a.u.^3)      2061.1338
 PW_GRID| Grid span                                                    FULLSPACE
 PW_GRID|   Distribution                         Average         Max         Min
 PW_GRID|   G-Vectors                           303750.0      303750      303750
 PW_GRID|   G-Rays                                2025.0        2025        2025
 PW_GRID|   Real Space Points                   303750.0      307800      291600

 PW_GRID| Information for grid number                                          2
 PW_GRID| Number of the reference grid                                         1
 PW_GRID| Grid distributed over                                     8 processors
 PW_GRID| Real space group dimensions                                     8    1
 PW_GRID| the grid is blocked:                                                NO
 PW_GRID| Cutoff [a.u.]                                                    166.7
 PW_GRID| spherical cutoff:                                                   NO
 PW_GRID|   Bounds   1            -45      44                Points:          90
 PW_GRID|   Bounds   2            -24      23                Points:          48
 PW_GRID|   Bounds   3            -50      49                Points:         100
 PW_GRID| Volume element (a.u.^3)  0.4771E-02     Volume (a.u.^3)      2061.1338
 PW_GRID| Grid span                                                    FULLSPACE
 PW_GRID|   Distribution                         Average         Max         Min
 PW_GRID|   G-Vectors                            54000.0       54090       53910
 PW_GRID|   G-Rays                                 600.0         601         599
 PW_GRID|   Real Space Points                    54000.0       57600       52800

 PW_GRID| Information for grid number                                          3
 PW_GRID| Number of the reference grid                                         1
 PW_GRID| Grid distributed over                                     8 processors
 PW_GRID| Real space group dimensions                                     8    1
 PW_GRID| the grid is blocked:                                                NO
 PW_GRID| Cutoff [a.u.]                                                     55.6
 PW_GRID| spherical cutoff:                                                   NO
 PW_GRID|   Bounds   1            -27      26                Points:          54
 PW_GRID|   Bounds   2            -13      13                Points:          27
 PW_GRID|   Bounds   3            -30      29                Points:          60
 PW_GRID| Volume element (a.u.^3)  0.2356E-01     Volume (a.u.^3)      2061.1338
 PW_GRID| Grid span                                                    FULLSPACE
 PW_GRID|   Distribution                         Average         Max         Min
 PW_GRID|   G-Vectors                            10935.0       11070       10854
 PW_GRID|   G-Rays                                 202.5         205         201
 PW_GRID|   Real Space Points                    10935.0       11340        9720

 PW_GRID| Information for grid number                                          4
 PW_GRID| Number of the reference grid                                         1
 PW_GRID| Grid distributed over                                     8 processors
 PW_GRID| Real space group dimensions                                     8    1
 PW_GRID| the grid is blocked:                                                NO
 PW_GRID| Cutoff [a.u.]                                                     18.5
 PW_GRID| spherical cutoff:                                                   NO
 PW_GRID|   Bounds   1            -15      14                Points:          30
 PW_GRID|   Bounds   2             -7       7                Points:          15
 PW_GRID|   Bounds   3            -18      17                Points:          36
 PW_GRID| Volume element (a.u.^3)  0.1272         Volume (a.u.^3)      2061.1338
 PW_GRID| Grid span                                                    FULLSPACE
 PW_GRID|   Distribution                         Average         Max         Min
 PW_GRID|   G-Vectors                             2025.0        2070        1980
 PW_GRID|   G-Rays                                  67.5          69          66
 PW_GRID|   Real Space Points                     2025.0        2160        1620

 POISSON| Solver                                                        PERIODIC
 POISSON| Periodicity                                                        XYZ

 RS_GRID| Information for grid number                                          1
 RS_GRID|   Bounds   1            -75      74                Points:         150
 RS_GRID|   Bounds   2            -45      44                Points:          90
 RS_GRID|   Bounds   3            -90      89                Points:         180
 RS_GRID| Real space fully replicated
 RS_GRID| Group size                                                           1

 RS_GRID| Information for grid number                                          2
 RS_GRID|   Bounds   1            -45      44                Points:          90
 RS_GRID|   Bounds   2            -24      23                Points:          48
 RS_GRID|   Bounds   3            -50      49                Points:         100
 RS_GRID| Real space fully replicated
 RS_GRID| Group size                                                           1

 RS_GRID| Information for grid number                                          3
 RS_GRID|   Bounds   1            -27      26                Points:          54
 RS_GRID|   Bounds   2            -13      13                Points:          27
 RS_GRID|   Bounds   3            -30      29                Points:          60
 RS_GRID| Real space fully replicated
 RS_GRID| Group size                                                           1

 RS_GRID| Information for grid number                                          4
 RS_GRID|   Bounds   1            -15      14                Points:          30
 RS_GRID|   Bounds   2             -7       7                Points:          15
 RS_GRID|   Bounds   3            -18      17                Points:          36
 RS_GRID| Real space fully replicated
 RS_GRID| Group size                                                           1

 Number of electrons:                                                         56
 Number of occupied orbitals:                                                 28
 Number of molecular orbitals:                                               104

 Number of orbital functions:                                                104
 Number of independent orbital functions:                                    104

 Extrapolation method: initial_guess

 Atomic guess: The first density matrix is obtained in terms of atomic orbitals
               and electronic configurations assigned to each atomic kind

 Guess for atomic kind: Cl

 Electronic structure
    Total number of core electrons                                         10.00
    Total number of valence electrons                                       7.00
    Total number of electrons                                              17.00
    Multiplicity                                                   not specified
    S   [  2.00  2.00] 2.00
    P   [  6.00] 5.00


 *******************************************************************************
                  Iteration          Convergence                     Energy [au]
 *******************************************************************************
                          1        0.144553E-01                 -14.773472170041
                          2        0.103826E-01                 -14.773520859391
                          3        0.209257E-03                 -14.773545895501
                          4        0.113146E-07                 -14.773545905876

 Energy components [Hartree]           Total Energy ::          -14.773545905876
                                        Band Energy ::           -2.961224969626
                                     Kinetic Energy ::            5.577209169161
                                   Potential Energy ::          -20.350755075037
                                      Virial (-V/T) ::            3.648913723295
                                        Core Energy ::          -24.684703226432
                                          XC Energy ::           -2.746205887251
                                     Coulomb Energy ::           12.657363207807
                       Total Pseudopotential Energy ::          -30.320861783028
                       Local Pseudopotential Energy ::          -33.436837430203
                    Nonlocal Pseudopotential Energy ::            3.115975647175
                                        Confinement ::            0.589493874350

 Orbital energies  State     L     Occupation   Energy[a.u.]          Energy[eV]

                       1     0          2.000      -0.739297          -20.117292

                       1     1          5.000      -0.296526           -8.068889


 Total Electron Density at R=0:                                         0.000417
 Re-scaling the density matrix to get the right number of electrons
                  # Electrons              Trace(P)               Scaling factor
                           56                56.000                        1.000


 SCF WAVEFUNCTION OPTIMIZATION

  Step     Update method      Time    Convergence         Total energy    Change
  ------------------------------------------------------------------------------
     1 NoMix/Diag. 0.50E-01    1.7     0.76079988      -120.0722745533 -1.20E+02
     2 Broy./Diag. 0.50E-01    1.7     0.00102282      -119.8124041428  2.60E-01
     3 Broy./Diag. 0.50E-01    1.7     0.02525284      -119.8449700677 -3.26E-02
     4 Broy./Diag. 0.50E-01    1.7     0.00035976      -119.8707670948 -2.58E-02
     5 Broy./Diag. 0.50E-01    1.7     0.00889517      -119.8388199029  3.19E-02
     6 Broy./Diag. 0.50E-01    1.7     0.00016467      -119.7817339047  5.71E-02
     7 Broy./Diag. 0.50E-01    1.7     0.00316927      -119.7547723969  2.70E-02
     8 Broy./Diag. 0.50E-01    1.7     0.00011034      -119.7142323118  4.05E-02
     9 Broy./Diag. 0.50E-01    1.7     0.00128485      -119.7115204731  2.71E-03
    10 Broy./Diag. 0.50E-01    1.7     0.00003776      -119.7039900864  7.53E-03
    11 Broy./Diag. 0.50E-01    1.7     0.00038837      -119.7069874682 -3.00E-03
    12 Broy./Diag. 0.50E-01    1.7     0.00001298      -119.7068183415  1.69E-04
    13 Broy./Diag. 0.50E-01    1.7     0.00009227      -119.7064630336  3.55E-04
    14 Broy./Diag. 0.50E-01    1.7     0.00001924      -119.7068320668 -3.69E-04
    15 Broy./Diag. 0.50E-01    1.7     0.00000716      -119.7069435529 -1.11E-04
    16 Broy./Diag. 0.50E-01    1.7     0.00001009      -119.7069961537 -5.26E-05
    17 Broy./Diag. 0.50E-01    1.7     0.00002963      -119.7070975702 -1.01E-04
    18 Broy./Diag. 0.50E-01    1.7     0.00000586      -119.7072689220 -1.71E-04
    19 Broy./Diag. 0.50E-01    1.7     0.00000339      -119.7072186620  5.03E-05
    20 Broy./Diag. 0.50E-01    1.7     0.00000119      -119.7071824106  3.63E-05
    21 Broy./Diag. 0.50E-01    1.7     0.00001522      -119.7073249804 -1.43E-04
    22 Broy./Diag. 0.50E-01    1.7     0.00000314      -119.7074960588 -1.71E-04
    23 Broy./Diag. 0.50E-01    1.7     0.00000366      -119.7075498979 -5.38E-05
    24 Broy./Diag. 0.50E-01    1.7     0.00000424      -119.7075990832 -4.92E-05
    25 Broy./Diag. 0.50E-01    1.7     0.00000031      -119.7076256542 -2.66E-05
    26 Broy./Diag. 0.50E-01    1.7     0.00000033      -119.7076215920  4.06E-06
    27 Broy./Diag. 0.50E-01    1.7     0.00000075      -119.7076094268  1.22E-05
    28 Broy./Diag. 0.50E-01    1.7     0.00000033      -119.7076049015  4.53E-06
    29 Broy./Diag. 0.50E-01    1.7     0.00000037      -119.7076068337 -1.93E-06
    30 Broy./Diag. 0.50E-01    1.7     0.00000031      -119.7076066331  2.01E-07
    31 Broy./Diag. 0.50E-01    1.7     0.00000029      -119.7076044111  2.22E-06
    32 Broy./Diag. 0.50E-01    1.7     0.00000091      -119.7075875859  1.68E-05
    33 Broy./Diag. 0.50E-01    1.7     0.00000007      -119.7075771803  1.04E-05
    34 Broy./Diag. 0.50E-01    1.7     0.00000042      -119.7075756611  1.52E-06
    35 Broy./Diag. 0.50E-01    1.7     0.00000011      -119.7075780279 -2.37E-06
    36 Broy./Diag. 0.50E-01    1.7     0.00000045      -119.7075845297 -6.50E-06
    37 Broy./Diag. 0.50E-01    1.7     0.00000025      -119.7075908510 -6.32E-06
    38 Broy./Diag. 0.50E-01    1.7     0.00000013      -119.7075938235 -2.97E-06
    39 Broy./Diag. 0.50E-01    1.7     0.00000015      -119.7075948107 -9.87E-07
    40 Broy./Diag. 0.50E-01    1.7     0.00000005      -119.7075948136 -2.88E-09
    41 Broy./Diag. 0.50E-01    1.7     0.00000018      -119.7075968784 -2.06E-06
    42 Broy./Diag. 0.50E-01    1.7     0.00000023      -119.7076008399 -3.96E-06
    43 Broy./Diag. 0.50E-01    1.7     0.00000003      -119.7076036940 -2.85E-06
    44 Broy./Diag. 0.50E-01    1.7     0.00000008      -119.7076023286  1.37E-06
    45 Broy./Diag. 0.50E-01    1.7     0.00000006      -119.7076002966  2.03E-06
    46 Broy./Diag. 0.50E-01    1.7     0.00000014      -119.7075964581  3.84E-06
    47 Broy./Diag. 0.50E-01    1.7     0.00000003      -119.7075952716  1.19E-06
    48 Broy./Diag. 0.50E-01    1.7     0.00000003      -119.7075952115  6.01E-08
    49 Broy./Diag. 0.50E-01    1.7     0.00000001      -119.7075955286 -3.17E-07
    50 Broy./Diag. 0.50E-01    1.7     0.00000002      -119.7075958241 -2.95E-07
    51 Broy./Diag. 0.50E-01    1.7     0.00000003      -119.7075962089 -3.85E-07
    52 Broy./Diag. 0.50E-01    1.7     8.9964E-09      -119.7075963024 -9.35E-08
    53 Broy./Diag. 0.50E-01    1.7     4.9301E-09      -119.7075962810  2.14E-08
    54 Broy./Diag. 0.50E-01    1.7     7.2142E-09      -119.7075964046 -1.24E-07
    55 Broy./Diag. 0.50E-01    1.7     5.6232E-09      -119.7075966029 -1.98E-07
    56 Broy./Diag. 0.50E-01    1.7     8.2759E-09      -119.7075968762 -2.73E-07
    57 Broy./Diag. 0.50E-01    1.7     9.1907E-10      -119.7075969464 -7.03E-08

  *** SCF run converged in    57 steps ***


  Electronic density on regular grids:        -56.0000000000       -0.0000000000
  Core density on regular grids:               56.0000000000        0.0000000000
  Total charge density on r-space grids:       -0.0000000000
  Total charge density g-space grids:           0.0000000000

  Overlap energy of the core charge distribution:               0.00000000392585
  Self energy of the core charge distribution:               -269.71014237892746
  Core Hamiltonian energy:                                     61.75149326564307
  Hartree energy:                                             111.36829542422223
  Exchange-correlation energy:                                -23.11724326130044

  Total energy:                                              -119.70759694643678

 !-----------------------------------------------------------------------------!
                     Mulliken Population Analysis

 #  Atom  Element  Kind  Atomic population                           Net charge
       1     Cl       1          7.000000                             -0.000000
       2     Cl       1          7.000000                              0.000000
       3     Cl       1          7.000000                              0.000000
       4     Cl       1          7.000000                             -0.000000
       5     Cl       1          7.000000                              0.000000
       6     Cl       1          7.000000                             -0.000000
       7     Cl       1          7.000000                             -0.000000
       8     Cl       1          7.000000                              0.000000
 # Total charge                             56.000000                 -0.000000

 !-----------------------------------------------------------------------------!

 !-----------------------------------------------------------------------------!
                           Hirshfeld Charges

  #Atom  Element  Kind  Ref Charge     Population                    Net charge
      1       Cl     1       7.000          7.000                        -0.000
      2       Cl     1       7.000          7.000                         0.000
      3       Cl     1       7.000          7.000                         0.000
      4       Cl     1       7.000          7.000                        -0.000
      5       Cl     1       7.000          7.000                         0.000
      6       Cl     1       7.000          7.000                        -0.000
      7       Cl     1       7.000          7.000                        -0.000
      8       Cl     1       7.000          7.000                         0.000

  Total Charge                                                           -0.000
 !-----------------------------------------------------------------------------!

 KPOINTS| Band Structure Calculation
 KPOINTS| Number of k-point sets                                               1
 KPOINTS| Number of added MOs/bands                                           -1
 KPOINTS| Number of k-points in set    1                                     148
 KPOINTS| In units of b-vector [2pi/Bohr]
 KPOINTS| Special point     1 not specifi     0.000000     0.000000     0.000000
 KPOINTS| Special point     2 not specifi     0.500000     0.500000     0.000000
 KPOINTS| Special point     3 not specifi     0.328159     0.671841     0.000000
 KPOINTS| Special point     4 not specifi     0.000000     0.000000     0.000000
 KPOINTS| Time for k-point line                                            0.929

 ENERGY| Total FORCE_EVAL ( QS ) energy [hartree]           -119.707596946436780

 -------------------------------------------------------------------------------
 -                                                                             -
 -                                DBCSR STATISTICS                             -
 -                                                                             -
 -------------------------------------------------------------------------------
 COUNTER                                    TOTAL       BLAS       SMM       ACC
 flops inhomo. stacks                           0       0.0%      0.0%      0.0%
 flops total                         0.000000E+00       0.0%      0.0%      0.0%
 flops max/rank                      0.000000E+00       0.0%      0.0%      0.0%
 matmuls inhomo. stacks                         0       0.0%      0.0%      0.0%
 matmuls total                                  0       0.0%      0.0%      0.0%
 number of processed stacks                     0       0.0%      0.0%      0.0%
 average stack size                                     0.0       0.0       0.0
 marketing flops                     0.000000E+00
 -------------------------------------------------------------------------------
 -                                                                             -
 -                      DBCSR MESSAGE PASSING PERFORMANCE                      -
 -                                                                             -
 -------------------------------------------------------------------------------
 ROUTINE             CALLS      AVE VOLUME [Bytes]
 MP_Bcast                1                     12.
 MP_Allreduce           19                     21.
 MP_Alltoall       1212080                   5704.
 -------------------------------------------------------------------------------

 -------------------------------------------------------------------------------
 -                                                                             -
 -                                DBM STATISTICS                               -
 -                                                                             -
 -------------------------------------------------------------------------------
    M  x    N  x    K                                          COUNT     PERCENT
 -------------------------------------------------------------------------------

 -------------------------------------------------------------------------------
 -                                                                             -
 -                                GRID STATISTICS                              -
 -                                                                             -
 -------------------------------------------------------------------------------
 LP    KERNEL             BACKEND                              COUNT     PERCENT
 4     collocate ortho    CPU                                 529192      50.43%
 4     integrate ortho    CPU                                 520068      49.56%
 0     collocate general  CPU                                     16       0.00%
 0     integrate general  CPU                                      8       0.00%
 -------------------------------------------------------------------------------

 MEMORY| Estimated peak process memory [MiB]                                 689

 -------------------------------------------------------------------------------
 ----                             MULTIGRID INFO                            ----
 -------------------------------------------------------------------------------
 count for grid        1:           2584          cutoff [a.u.]          500.00
 count for grid        2:          16004          cutoff [a.u.]          166.67
 count for grid        3:          11152          cutoff [a.u.]           55.56
 count for grid        4:           8996          cutoff [a.u.]           18.52
 total gridlevel count  :          38736

 -------------------------------------------------------------------------------
 -                                                                             -
 -                         MESSAGE PASSING PERFORMANCE                         -
 -                                                                             -
 -------------------------------------------------------------------------------

 ROUTINE             CALLS      AVE VOLUME [Bytes]
 MP_Group                6
 MP_Bcast           529075                    520.
 MP_Allreduce        27400                    471.
 MP_Sync                 4
 MP_Alltoall          1031               13497600.
 MP_SendRecv          1638                 772369.
 MP_ISendRecv         1603                 765244.
 MP_Wait            365271
 MP_comm_split           4
 MP_ISend           386444                   2479.
 MP_IRecv           617600                   1553.
 -------------------------------------------------------------------------------


 -------------------------------------------------------------------------------
 -                                                                             -
 -                           R E F E R E N C E S                               -
 -                                                                             -
 -------------------------------------------------------------------------------
 
 CP2K version 2025.1 (Development Version), the CP2K developers group (2025).
 CP2K is freely available from https://www.cp2k.org/ .
 
 T. D. Kuehne, M. Iannuzzi, M. Del Ben, V. V. Rybkin, P. Seewald, F. Stein, T. 
 Laino, R. Z. Khaliullin, O. Schuett, F. Schiffmann, D. Golze, J. Wilhelm, S. 
 Chulkov, M. H. Bani-Hashemian, V. Weber, U. Borstnik, M. Taillefumier, A. S. 
 Jakobovits, A. Lazzaro, H. Pabst, T. Mueller, R. Schade, M. Guidon, S. 
 Andermatt, N. Holmberg, G. K. Schenter, A. Hehn, A. Bussy, F. Belleflamme, G. 
 Tabacchi, A. Gloess, M. Lass, I. Bethune, C. J. Mundy, C. Plessl, M. Watkins, 
 J. VandeVondele, M. Krack, J. Hutter.
 J. Chem. Phys. 152, 194103 (2020).
 CP2K: An electronic structure and molecular dynamics software package - 
 Quickstep: Efficient and accurate electronic structure calculations.
 https://doi.org/10.1063/5.0007045

 O. Schuett, P. Messmer, J. Hutter, J. VandeVondele.
 Electronic Structure Calculations on Graphics Processing Units, 173-190 (2016).
 GPU-Accelerated Sparse Matrix-Matrix Multiplication for Linear Scaling Density 
 Functional Theory.
 https://doi.org/10.1002/9781118670712.ch8

 J. Hutter, M. Iannuzzi, F. Schiffmann, J. VandeVondele.
 WIREs Comput Mol Sci. 4, 15-25 (2014).
 CP2K: atomistic simulations of condensed matter systems.
 https://doi.org/10.1002/wcms.1159

 U. Borstnik, J. VandeVondele, V. Weber, J. Hutter.
 Parallel Comput. 40, 47-58 (2014).
 Sparse matrix multiplication: The distributed block-compressed sparse row 
 library.
 https://doi.org/10.1016/j.parco.2014.03.012

 J. VandeVondele, J. Hutter.
 J. Chem. Phys. 127, 114105 (2007).
 Gaussian basis sets for accurate calculations on molecular systems in gas and 
 condensed phases.
 https://doi.org/10.1063/1.2770708

 J. VandeVondele, M. Krack, F. Mohamed, M. Parrinello, T. Chassaing, J. Hutter.
 Comput. Phys. Commun. 167, 103-128 (2005).
 QUICKSTEP: Fast and accurate density functional calculations using a mixed 
 Gaussian and plane waves approach.
 https://doi.org/10.1016/j.cpc.2004.12.014

 M. Krack.
 Theor. Chem. Acc. 114, 145-152 (2005).
 Pseudopotentials for H to Kr optimized for gradient-corrected 
 exchange-correlation functionals.
 https://doi.org/10.1007/s00214-005-0655-y

 M. Frigo, S. G. Johnson.
 Proc. IEEE 93, 216-231 (2005).
 The design and implementation of FFTW3.
 https://doi.org/10.1109/JPROC.2004.840301

 C. Hartwigsen, S. Goedecker, J. Hutter.
 Phys. Rev. B 58, 3641-3662 (1998).
 Relativistic separable dual-space Gaussian pseudopotentials from H to Rn.
 https://doi.org/10.1103/PhysRevB.58.3641

 G. Lippert, J. Hutter, M. Parrinello.
 Mol. Phys. 92, 477-487 (1997).
 A hybrid Gaussian and plane wave density functional scheme.
 https://doi.org/10.1080/002689797170220

 S. Goedecker, M. Teter, J. Hutter.
 Phys. Rev. B 54, 1703-1710 (1996).
 Separable dual-space Gaussian pseudopotentials.
 https://doi.org/10.1103/PhysRevB.54.1703

 J. P. Perdew, K. Burke, M. Ernzerhof.
 Phys. Rev. Lett. 77, 3865-3868 (1996).
 Generalized gradient approximation made simple.
 https://doi.org/10.1103/PhysRevLett.77.3865


 -------------------------------------------------------------------------------
 -                                                                             -
 -                                T I M I N G                                  -
 -                                                                             -
 -------------------------------------------------------------------------------
 SUBROUTINE                       CALLS  ASD         SELF TIME        TOTAL TIME
                                MAXIMUM       AVERAGE  MAXIMUM  AVERAGE  MAXIMUM
 CP2K                                 1  1.0    0.009    0.013  100.029  100.030
 qs_energies                          1  2.0    0.017    0.126   99.712   99.773
 scf_env_do_scf                       1  3.0    0.000    0.000   98.329   98.330
 scf_env_do_scf_inner_loop           57  4.0    0.010    0.012   98.329   98.330
 do_general_diag_kp                  58  5.9    0.328    0.342   84.251   84.735
 qs_scf_new_mos_kp                   57  5.0    0.000    0.001   83.467   83.964
 copy_dbcsr_to_fm                 59416  7.0    0.632    0.667   29.510   29.867
 dbcsr_complete_redistribute      88600  8.3    3.571    3.752   27.597   29.580
 kpoint_density_transform            57  7.0    0.108    0.115   20.326   20.357
 dbcsr_desymmetrize_deep         118376  7.5    2.055    2.149   14.021   17.691
 rskp_transform                   29480  7.0   10.032   11.468   10.032   11.468
 cp_fm_start_copy_general         88144  7.3    1.978    2.543   11.279   11.407
 copy_fm_to_dbcsr                 29184  8.0    0.175    0.182    9.705   11.290
 mp_alltoall_i22                 206976  8.8    5.313   10.926    5.313   10.926
 dbcsr_finalize                  210096  8.8    1.036    1.107    7.440    7.859
 cp_cfm_geeig                      1861  6.9    0.016    0.018    7.479    7.564
 qs_ks_update_qs_env                 57  5.0    0.000    0.000    7.069    7.300
 rebuild_ks_matrix                   57  6.0    0.000    0.000    6.809    7.040
 qs_ks_build_kohn_sham_matrix        57  7.0    0.020    0.020    6.809    7.039
 mp_alltoall_d11v                620928  9.4    6.442    6.691    6.442    6.691
 mp_allgather_i                  176288  8.3    5.993    6.257    5.993    6.257
 cp_cfm_heevd                      1861  7.9    0.003    0.003    5.720    5.787
 cp_cfm_heevd_base                 1861  8.9    5.717    5.784    5.717    5.784
 transform_dmat                   14592  8.0    4.846    5.574    4.846    5.574
 mp_cart_sub                     118834  9.0    4.992    5.014    4.992    5.014
 fft_wrap_pw1pw2                   1031 10.0    0.013    0.015    4.406    4.449
 dbcsr_merge_all                  88600 10.3    2.373    2.678    4.100    4.432
 fft_wrap_pw1pw2_500                686 11.3    0.342    0.352    4.168    4.220
 hybrid_alltoall_any             118376  8.5    0.489    0.530    4.016    4.212
 qs_rho_update_rho_low               58  5.0    0.000    0.000    4.118    4.123
 calculate_rho_elec                  58  6.0    0.128    0.130    4.117    4.123
 mp_alltoall_i11v                384176  9.0    3.940    4.050    3.940    4.050
 fft3d_ps                          1031 12.0    1.667    1.703    3.428    3.484
 qs_vxc_create                       57  8.0    0.001    0.001    3.329    3.339
 xc_vxc_pw_create                    57  9.0    0.132    0.134    3.328    3.338
 gspace_mixing                       56  5.0    0.121    0.122    3.154    3.154
 sum_up_and_integrate                57  8.0    0.001    0.001    2.727    2.963
 mp_cart_create                   59423  9.0    2.879    2.959    2.879    2.959
 integrate_v_rspace                  57  9.0    0.015    0.022    2.721    2.957
 broyden_mixing                      56  6.0    2.596    2.626    2.650    2.657
 mp_bcast_iv                     352599  8.3    2.091    2.365    2.091    2.365
 density_rs2pw                       58  7.0    0.002    0.003    1.971    2.312
 xc_pw_derive                       342 11.0    0.002    0.002    2.135    2.165
 grid_collocate_task_list            58  7.0    2.006    2.162    2.006    2.162
 dbcsr_work_create               206976  8.8    1.265    1.301    1.947    2.015
 dbcsr_create_new                314371  8.4    1.449    1.525    1.740    1.835
 xc_rho_set_and_dset_create          57 10.0    0.074    0.077    1.798    1.811
 transfer_rs2pw                     234  8.0    0.003    0.003    1.253    1.716
 mp_alltoall_z22v                  1031 14.0    1.515    1.631    1.515    1.631
 dbcsr_work_destroy_all          206976  9.8    0.983    0.996    1.552    1.580
 grid_integrate_task_list            57 10.0    1.343    1.567    1.343    1.567
 transfer_rs2pw_500                  60  8.9    0.428    0.455    1.033    1.513
 dbcsr_iterator_start            587371  9.1    1.189    1.203    1.382    1.416
 xc_pw_divergence                    57 10.0    0.001    0.001    1.380    1.411
 potential_pw2rs                     57 10.0    0.007    0.007    1.363    1.368
 copy_fm_to_dbcsr_bc              29184  9.0    0.386    0.410    1.303    1.360
 copy_dbcsr_to_fm_bc              59416  8.0    0.605    0.630    1.313    1.336
 dbcsr_copy                       46664  8.1    0.133    0.138    1.183    1.312
 cp_fm_finish_copy_general        36628  7.8    1.227    1.234    1.283    1.296
 dbcsr_data_new                 2217044  9.8    1.208    1.271    1.208    1.271
 dbcsr_data_release             3041167 10.2    1.196    1.236    1.196    1.236
 tree_to_linear_d                 88600 11.3    1.186    1.232    1.186    1.232
 mp_sendrecv_dv                    1638 10.0    0.730    1.171    0.730    1.171
 dbcsr_copy_into_existing         29336 10.0    0.849    0.970    1.021    1.146
 x_to_yz                            570 13.2    0.145    0.156    1.037    1.074
 cp_cfm_triangular_multiply        5583  7.9    1.049    1.062    1.049    1.062
 dbcsr_destroy                   297043  8.3    0.493    0.511    0.913    0.964
 transfer_pw2rs                     229 11.0    0.002    0.002    0.935    0.936
 mp_waitall_1                    365271  8.3    0.585    0.931    0.585    0.931
 dbcsr_iterator_stop             587371  9.1    0.729    0.743    0.861    0.878
 yz_to_x                            461 12.9    0.091    0.102    0.714    0.771
 kpoint_density_matrices             57  7.0    0.038    0.039    0.722    0.747
 transfer_pw2rs_500                  58 11.9    0.381    0.389    0.702    0.735
 mp_bcast_im                     176288  8.3    0.640    0.730    0.640    0.730
 quick_finalize                  118376  9.5    0.382    0.396    0.667    0.699
 parallel_gemm_fm                  7296  8.0    0.007    0.007    0.657    0.681
 parallel_gemm_fm_gemm             7296  9.0    0.007    0.007    0.651    0.674
 cp_fm_gemm                        7296 10.0    0.644    0.667    0.644    0.667
 xc_functional_eval                  57 11.0    0.001    0.001    0.588    0.599
 pbe_lda_eval                        57 12.0    0.587    0.598    0.587    0.598
 mp_comm_free                    178291  9.0    0.455    0.499    0.455    0.499
 pw_scatter_p                       570 12.2    0.368    0.376    0.368    0.376
 write_kpoints_restart               57  5.0    0.003    0.006    0.373    0.374
 mp_isend_dv                      88736  8.3    0.342    0.367    0.342    0.367
 dbcsr_sort_indices              237568 11.0    0.325    0.345    0.325    0.345
 cp_cfm_triangular_invert          1861  7.9    0.333    0.339    0.333    0.339
 cp_cfm_cholesky_decompose         1861  7.9    0.315    0.324    0.315    0.324
 kpoint_set_mo_occupation            57  7.0    0.046    0.047    0.186    0.275
 scf_post_calculation_gpw             1  3.0    0.000    0.000    0.271    0.271
 write_available_results              1  4.0    0.000    0.000    0.271    0.271
 write_mo_free_results                1  5.0    0.113    0.223    0.271    0.271
 pw_poisson_solve                    57  8.0    0.001    0.001    0.267    0.268
 evaluate_core_matrix_traces         57  6.0    0.000    0.000    0.260    0.261
 calculate_ptrace_kp                114  7.0    0.013    0.014    0.260    0.261
 dbcsr_dot                        17329  8.0    0.102    0.109    0.248    0.250
 calculate_hirshfeld_normalizat       1  6.0    0.007    0.008    0.136    0.245
 dbcsr_set                       166029  8.2    0.158    0.163    0.238    0.245
 mp_sum_dm3                          57  8.0    0.140    0.229    0.140    0.229
 dbcsr_reserve_all_blocks         29184 10.0    0.045    0.050    0.213    0.226
 mp_isendrecv_dv                   1603 13.0    0.087    0.217    0.087    0.217
 dbcsr_iterator_seek             587371 10.1    0.192    0.215    0.192    0.215
 transfer_pw2rs_170                  57 12.0    0.079    0.083    0.176    0.205
 mp_sum_d                         18207  8.8    0.155    0.194    0.155    0.194
 dbcsr_make_index_exist          314371  9.4    0.181    0.194    0.181    0.194
 dbcsr_reserve_blocks             30592 10.8    0.148    0.161    0.177    0.191
 merge_index                      88600 11.3    0.175    0.186    0.175    0.186
 transfer_rs2pw_170                  58  9.0    0.075    0.079    0.165    0.184
 pw_integral_ab_c1d_c1d_gs           57  9.0    0.170    0.172    0.174    0.175
 fft_wrap_pw1pw2_170                115 10.5    0.013    0.015    0.163    0.175
 mp_irecv_iv                     352576  8.3    0.022    0.172    0.022    0.172
 dbcsr_data_copy_aa2              88600 11.3    0.150    0.167    0.150    0.167
 self_consistency_check              57  5.0    0.012    0.013    0.155    0.162
 pw_gather_p                        461 11.9    0.151    0.154    0.151    0.154
 mp_sum_dv                          352  3.6    0.073    0.152    0.073    0.152
 cp_fm_write_unformatted            456  6.0    0.096    0.134    0.109    0.149
 dbcsr_switch_data_area          118376 10.5    0.105    0.109    0.138    0.142
 init_scf_run                         1  3.0    0.000    0.000    0.137    0.139
 scf_env_initial_rho_setup            1  4.0    0.000    0.000    0.137    0.139
 cp_fm_cleanup_copy_general       62608  7.0    0.087    0.089    0.131    0.134
 cp_sm_mix                         8664  6.0    0.044    0.047    0.125    0.134
 restraint_control                    1  2.0    0.000    0.000    0.061    0.122
 mp_sum_i                             4  2.8    0.061    0.122    0.061    0.122
 pw_derive                          513 11.3    0.114    0.121    0.114    0.121
 mp_isend_iv                     198472  8.3    0.032    0.119    0.032    0.119
 cp_cfm_scale_and_add_fm           7444  6.9    0.113    0.115    0.113    0.115
 pw_copy                            855 10.5    0.105    0.109    0.105    0.109
 qs_init_subsys                       1  2.0    0.001    0.002    0.102    0.102
 qs_env_setup                         1  3.0    0.000    0.000    0.099    0.100
 qs_env_rebuild_pw_env                2  3.5    0.000    0.000    0.099    0.099
 pw_env_rebuild                       1  5.0    0.001    0.001    0.098    0.099
 pw_grid_setup                        4  6.0    0.000    0.000    0.093    0.094
 pw_grid_setup_internal               4  7.0    0.002    0.003    0.093    0.094
 parser_read_line                  4942  4.1    0.002    0.002    0.091    0.093
 dbcsr_get_data_size_used        206976  9.8    0.085    0.093    0.085    0.093
 parser_read_line_low                22  6.3    0.008    0.032    0.090    0.091
 mp_irecv_im2                    176288  8.3    0.011    0.087    0.011    0.087
 broadcast_input_information         22  7.3    0.028    0.038    0.082    0.087
 dbcsr_zero                      166029  9.2    0.080    0.086    0.080    0.086
 qs_energies_init_hamiltonians        1  3.0    0.000    0.000    0.084    0.084
 mp_max_d                          8666  7.0    0.061    0.078    0.061    0.078
 dbcsr_distribution_new           88602  8.6    0.071    0.076    0.071    0.076
 topology_control                     1  2.0    0.000    0.000    0.075    0.075
 dbcsr_make_dbcsr_index          237568 11.0    0.067    0.072    0.067    0.072
 mp_sum_dm                           56  7.0    0.034    0.068    0.034    0.068
 pw_grid_sort                         4  8.0    0.042    0.044    0.065    0.068
 pw_poisson_set                      58  8.9    0.001    0.001    0.066    0.067
 pw_copy_from_array                 570 12.2    0.052    0.063    0.052    0.063
 mp_isend_im2                     99236  8.3    0.014    0.056    0.014    0.056
 mp_irecv_dv                      88736  8.3    0.051    0.055    0.051    0.055
 qs_env_update_s_mstruct              1  4.0    0.000    0.000    0.049    0.052
 read_cell_cif                        2  4.5    0.002    0.005    0.051    0.051
 transfer_pw2rs_60                   57 12.0    0.015    0.016    0.043    0.050
 cp_cfm_to_cfm_columns             1861  7.9    0.046    0.048    0.046    0.048
 create_qs_kind_set                   1  2.0    0.000    0.000    0.048    0.048
 fft_wrap_pw1pw2_60                 115 10.5    0.003    0.003    0.046    0.048
 read_qs_kind                         1  3.0    0.025    0.026    0.048    0.048
 cp_cfm_to_fm                      1861  6.9    0.046    0.047    0.046    0.047
 coordinate_control                   1  3.0    0.001    0.001    0.046    0.046
 coordinate_control_READ_COORDI       1  4.0    0.000    0.000    0.046    0.046
 read_coordinate_cif                  1  5.0    0.002    0.002    0.046    0.046
 calculate_rho_core                   1  5.0    0.003    0.003    0.041    0.046
 mp_send_dv                         456  7.0    0.011    0.045    0.011    0.045
 transfer_rs2pw_60                   58  9.0    0.012    0.013    0.041    0.044
 pw_axpy                            574  9.3    0.040    0.044    0.040    0.044
 mixing_init                          1  5.0    0.040    0.041    0.041    0.041
 pw_copy_to_array                   461 11.9    0.036    0.038    0.036    0.038
 cp_dbcsr_alloc_block_from_nbl     1408  5.6    0.022    0.026    0.032    0.036
 mp_bcast_i_src                      88  8.3    0.029    0.034    0.029    0.034
 build_core_hamiltonian_matrix        1  4.0    0.001    0.001    0.032    0.034
 mp_bcast_am_src                     22  8.3    0.013    0.015    0.025    0.028
 cp_fm_to_fm_matrix                3648  8.0    0.026    0.026    0.026    0.026
 sort_shells                          4  9.0    0.023    0.024    0.023    0.024
 pw_zero                            286 10.4    0.021    0.024    0.021    0.024
 hirshfeld_integration                1  6.0    0.008    0.008    0.021    0.021
 fft_wrap_pw1pw2_20                 115 10.5    0.001    0.001    0.017    0.017
 pw_grid_assign                       4  8.0    0.014    0.015    0.015    0.015
 mp_recv_dv                        1368  7.0    0.002    0.014    0.002    0.014
 cp_fm_create                       480  4.2    0.014    0.014    0.014    0.014
 transfer_pw2rs_20                   57 12.0    0.005    0.005    0.012    0.013
 transfer_rs2pw_20                   58  9.0    0.004    0.004    0.012    0.013
 mixing_allocate                      1  3.0    0.001    0.001    0.010    0.011
 -------------------------------------------------------------------------------

 The number of warnings for this run is : 1
 
 -------------------------------------------------------------------------------
  **** **** ******  **  PROGRAM ENDED AT                 2025-08-04 14:56:28.475
 ***** ** ***  *** **   PROGRAM RAN ON                              i04r09c05s08
 **    ****   ******    PROGRAM RAN BY                                   di38fab
 ***** **    ** ** **   PROGRAM PROCESS ID                               2493171
  **** **  *******  **  PROGRAM STOPPED IN /hppfs/scratch/04/di38fab/09_GTH/Delt
                                           a_Set/Cl/aug-SZV-MOLOPT-GTH-tier-2-SR
                                           /8x8x8
