K                                       
   1.00000000000000     
     5.285890    0.000000    0.000000
     0.000000    5.285890    0.000000
     0.000000    0.000000    5.285890
   K 
     2
Direct
  0.000000  0.000000  0.000000
  0.500000  0.500000  0.500000
 
   48   48   48
  705.32      696.48      666.76      609.68      522.74      413.15      297.26      193.81      115.62      65.231    
  36.527      20.600      12.017      7.5015      5.0893      3.7557      3.0288      2.6667      2.4917      2.3920    
  2.3397      2.3278      2.3222      2.3005      2.2859      2.3005      2.3222      2.3278      2.3397      2.3920    
  2.4917      2.6667      3.0288      3.7557      5.0893      7.5015      12.017      20.600      36.527      65.231    
  115.62      193.81      297.26      413.15      522.74      609.68      666.76      696.48      696.48      687.08    
  655.98      597.55      510.22      401.65      287.99      187.33      111.70      63.158      35.493      20.083    
  11.767      7.3792      5.0275      3.7246      3.0139      2.6596      2.4881      2.3906      2.3394      2.3274    
  2.3216      2.3003      2.2862      2.3003      2.3216      2.3274      2.3394      2.3906      2.4881      2.6596    
  3.0139      3.7246      5.0275      7.3792      11.767      20.083      35.493      63.158      111.70      187.33    
  287.99      401.65      510.22      597.55      655.98      687.08      666.76      655.98      621.65      560.41    
  473.00      368.20      261.52      169.07      100.76      57.392      32.590      18.630      11.060      7.0312    
  4.8507      3.6352      2.9710      2.6391      2.4779      2.3867      2.3387      2.3263      2.3197      2.3001    
  2.2873      2.3001      2.3197      2.3263      2.3387      2.3867      2.4779      2.6391      2.9710      3.6352    
  4.8507      7.0312      11.060      18.630      32.590      57.392      100.76      169.07      261.52      368.20    
  473.00      560.41      621.65      655.98      609.68      597.55      560.41      497.75      413.16      316.46    
  221.79      142.30      85.016      49.129      28.350      16.500      10.013      6.5087      4.5825      3.4990    
  2.9056      2.6079      2.4624      2.3809      2.3378      2.3247      2.3171      2.2999      2.2893      2.2999    
  2.3171      2.3247      2.3378      2.3809      2.4624      2.6079      2.9056      3.4990      4.5825      6.5087    
  10.013      16.500      28.350      49.129      85.016      142.30      221.79      316.46      413.16      497.75    
  560.41      597.55      522.74      510.22      473.00      413.16      336.52      253.14      174.98      111.73    
  67.399      39.855      23.477      14.030      8.7795      5.8812      4.2556      3.3321      2.8254      2.5697    
  2.4439      2.3741      2.3368      2.3229      2.3142      2.3002      2.2921      2.3002      2.3142      2.3229    
  2.3368      2.3741      2.4439      2.5697      2.8254      3.3321      4.2556      5.8812      8.7795      14.030    
  23.477      39.855      67.399      111.73      174.98      253.14      336.52      413.16      473.00      510.22    
  413.15      401.65      368.20      316.46      253.14      187.36      128.29      82.223      50.669      30.815    
  18.649      11.547      7.5106      5.2199      3.9056      3.1524      2.7390      2.5289      2.4243      2.3670    
  2.3356      2.3212      2.3119      2.3013      2.2958      2.3013      2.3119      2.3212      2.3356      2.3670    
  2.4243      2.5289      2.7390      3.1524      3.9056      5.2199      7.5106      11.547      18.649      30.815    
  50.669      82.223      128.29      187.36      253.14      316.46      368.20      401.65      297.26      287.99    
  261.52      221.79      174.98      128.29      87.963      57.413      36.539      22.872      14.363      9.2928    
  6.3237      4.5845      3.5643      2.9763      2.6542      2.4891      2.4057      2.3601      2.3340      2.3199    
  2.3107      2.3032      2.2999      2.3032      2.3107      2.3199      2.3340      2.3601      2.4057      2.4891    
  2.6542      2.9763      3.5643      4.5845      6.3237      9.2928      14.363      22.872      36.539      57.413    
  87.963      128.29      174.98      221.79      261.52      287.99      193.81      187.33      169.07      142.30    
  111.73      82.223      57.413      38.719      25.435      16.518      10.866      7.3965      5.2906      4.0169    
  3.2562      2.8171      2.5775      2.4534      2.3893      2.3535      2.3320      2.3188      2.3107      2.3059    
  2.3042      2.3059      2.3107      2.3188      2.3320      2.3535      2.3893      2.4534      2.5775      2.8171    
  3.2562      4.0169      5.2906      7.3965      10.866      16.518      25.435      38.719      57.413      82.223    
  111.73      142.30      169.07      187.33      115.62      111.70      100.76      85.016      67.399      50.669    
  36.539      25.435      17.332      11.802      8.1921      5.8914      4.4418      3.5407      2.9965      2.6833    
  2.5130      2.4236      2.3755      2.3473      2.3294      2.3180      2.3115      2.3088      2.3082      2.3088    
  2.3115      2.3180      2.3294      2.3473      2.3755      2.4236      2.5130      2.6833      2.9965      3.5407    
  4.4418      5.8914      8.1921      11.802      17.332      25.435      36.539      50.669      67.399      85.016    
  100.76      111.70      65.231      63.158      57.392      49.129      39.855      30.815      22.872      16.518    
  11.802      8.4877      6.2401      4.7490      3.7782      3.1636      2.7914      2.5783      2.4625      2.4000    
  2.3643      2.3417      2.3267      2.3173      2.3128      2.3116      2.3116      2.3116      2.3128      2.3173    
  2.3267      2.3417      2.3643      2.4000      2.4625      2.5783      2.7914      3.1636      3.7782      4.7490    
  6.2401      8.4877      11.802      16.518      22.872      30.815      39.855      49.129      57.392      63.158    
  36.527      35.493      32.590      28.350      23.477      18.649      14.363      10.866      8.1921      6.2401    
  4.8616      3.9145      3.2841      2.8821      2.6394      2.5012      2.4251      2.3822      2.3553      2.3369    
  2.3242      2.3169      2.3141      2.3139      2.3142      2.3139      2.3141      2.3169      2.3242      2.3369    
  2.3553      2.3822      2.4251      2.5012      2.6394      2.8821      3.2841      3.9145      4.8616      6.2401    
  8.1921      10.866      14.363      18.649      23.477      28.350      32.590      35.493      20.600      20.083    
  18.630      16.500      14.030      11.547      9.2928      7.3965      5.8914      4.7490      3.9145      3.3280    
  2.9343      2.6838      2.5334      2.4474      2.3985      2.3686      2.3479      2.3327      2.3223      2.3167    
  2.3150      2.3154      2.3158      2.3154      2.3150      2.3167      2.3223      2.3327      2.3479      2.3686    
  2.3985      2.4474      2.5334      2.6838      2.9343      3.3280      3.9145      4.7490      5.8914      7.3965    
  9.2928      11.547      14.030      16.500      18.630      20.083      12.017      11.767      11.060      10.013    
  8.7795      7.5106      6.3237      5.2906      4.4418      3.7782      3.2841      2.9343      2.7001      2.5521    
  2.4631      2.4109      2.3791      2.3576      2.3415      2.3292      2.3209      2.3167      2.3156      2.3160    
  2.3164      2.3160      2.3156      2.3167      2.3209      2.3292      2.3415      2.3576      2.3791      2.4109    
  2.4631      2.5521      2.7001      2.9343      3.2841      3.7782      4.4418      5.2906      6.3237      7.5106    
  8.7795      10.013      11.060      11.767      7.5015      7.3792      7.0312      6.5087      5.8812      5.2199    
  4.5845      4.0169      3.5407      3.1636      2.8821      2.6838      2.5521      2.4689      2.4177      2.3856    
  2.3640      2.3480      2.3355      2.3261      2.3198      2.3166      2.3155      2.3157      2.3158      2.3157    
  2.3155      2.3166      2.3198      2.3261      2.3355      2.3480      2.3640      2.3856      2.4177      2.4689    
  2.5521      2.6838      2.8821      3.1636      3.5407      4.0169      4.5845      5.2199      5.8812      6.5087    
  7.0312      7.3792      5.0893      5.0275      4.8507      4.5825      4.2556      3.9056      3.5643      3.2562    
  2.9965      2.7914      2.6394      2.5334      2.4631      2.4177      2.3878      2.3669      2.3513      2.3391    
  2.3298      2.3231      2.3187      2.3161      2.3148      2.3143      2.3142      2.3143      2.3148      2.3161    
  2.3187      2.3231      2.3298      2.3391      2.3513      2.3669      2.3878      2.4177      2.4631      2.5334    
  2.6394      2.7914      2.9965      3.2562      3.5643      3.9056      4.2556      4.5825      4.8507      5.0275    
  3.7557      3.7246      3.6352      3.4990      3.3321      3.1524      2.9763      2.8171      2.6833      2.5783    
  2.5012      2.4474      2.4109      2.3856      2.3669      2.3521      2.3402      2.3311      2.3245      2.3202    
  2.3172      2.3150      2.3132      2.3120      2.3116      2.3120      2.3132      2.3150      2.3172      2.3202    
  2.3245      2.3311      2.3402      2.3521      2.3669      2.3856      2.4109      2.4474      2.5012      2.5783    
  2.6833      2.8171      2.9763      3.1524      3.3321      3.4990      3.6352      3.7246      3.0288      3.0139    
  2.9710      2.9056      2.8254      2.7390      2.6542      2.5775      2.5130      2.4625      2.4251      2.3985    
  2.3791      2.3640      2.3513      2.3402      2.3311      2.3245      2.3201      2.3173      2.3152      2.3130    
  2.3107      2.3089      2.3082      2.3089      2.3107      2.3130      2.3152      2.3173      2.3201      2.3245    
  2.3311      2.3402      2.3513      2.3640      2.3791      2.3985      2.4251      2.4625      2.5130      2.5775    
  2.6542      2.7390      2.8254      2.9056      2.9710      3.0139      2.6667      2.6596      2.6391      2.6079    
  2.5697      2.5289      2.4891      2.4534      2.4236      2.4000      2.3822      2.3686      2.3576      2.3480    
  2.3391      2.3311      2.3245      2.3197      2.3167      2.3147      2.3128      2.3103      2.3074      2.3051    
  2.3042      2.3051      2.3074      2.3103      2.3128      2.3147      2.3167      2.3197      2.3245      2.3311    
  2.3391      2.3480      2.3576      2.3686      2.3822      2.4000      2.4236      2.4534      2.4891      2.5289    
  2.5697      2.6079      2.6391      2.6596      2.4917      2.4881      2.4779      2.4624      2.4439      2.4243    
  2.4057      2.3893      2.3755      2.3643      2.3553      2.3479      2.3415      2.3355      2.3298      2.3245    
  2.3201      2.3167      2.3143      2.3123      2.3099      2.3068      2.3035      2.3009      2.2999      2.3009    
  2.3035      2.3068      2.3099      2.3123      2.3143      2.3167      2.3201      2.3245      2.3298      2.3355    
  2.3415      2.3479      2.3553      2.3643      2.3755      2.3893      2.4057      2.4243      2.4439      2.4624    
  2.4779      2.4881      2.3920      2.3906      2.3867      2.3809      2.3741      2.3670      2.3601      2.3535    
  2.3473      2.3417      2.3369      2.3327      2.3292      2.3261      2.3231      2.3202      2.3173      2.3147    
  2.3123      2.3096      2.3065      2.3029      2.2994      2.2968      2.2958      2.2968      2.2994      2.3029    
  2.3065      2.3096      2.3123      2.3147      2.3173      2.3202      2.3231      2.3261      2.3292      2.3327    
  2.3369      2.3417      2.3473      2.3535      2.3601      2.3670      2.3741      2.3809      2.3867      2.3906    
  2.3397      2.3394      2.3387      2.3378      2.3368      2.3356      2.3340      2.3320      2.3294      2.3267    
  2.3242      2.3223      2.3209      2.3198      2.3187      2.3172      2.3152      2.3128      2.3099      2.3065    
  2.3028      2.2989      2.2955      2.2930      2.2921      2.2930      2.2955      2.2989      2.3028      2.3065    
  2.3099      2.3128      2.3152      2.3172      2.3187      2.3198      2.3209      2.3223      2.3242      2.3267    
  2.3294      2.3320      2.3340      2.3356      2.3368      2.3378      2.3387      2.3394      2.3278      2.3274    
  2.3263      2.3247      2.3229      2.3212      2.3199      2.3188      2.3180      2.3173      2.3169      2.3167    
  2.3167      2.3166      2.3161      2.3150      2.3130      2.3103      2.3068      2.3029      2.2989      2.2952    
  2.2921      2.2900      2.2893      2.2900      2.2921      2.2952      2.2989      2.3029      2.3068      2.3103    
  2.3130      2.3150      2.3161      2.3166      2.3167      2.3167      2.3169      2.3173      2.3180      2.3188    
  2.3199      2.3212      2.3229      2.3247      2.3263      2.3274      2.3222      2.3216      2.3197      2.3171    
  2.3142      2.3119      2.3107      2.3107      2.3115      2.3128      2.3141      2.3150      2.3156      2.3155    
  2.3148      2.3132      2.3107      2.3074      2.3035      2.2994      2.2955      2.2921      2.2895      2.2879    
  2.2873      2.2879      2.2895      2.2921      2.2955      2.2994      2.3035      2.3074      2.3107      2.3132    
  2.3148      2.3155      2.3156      2.3150      2.3141      2.3128      2.3115      2.3107      2.3107      2.3119    
  2.3142      2.3171      2.3197      2.3216      2.3005      2.3003      2.3001      2.2999      2.3002      2.3013    
  2.3032      2.3059      2.3088      2.3116      2.3139      2.3154      2.3160      2.3157      2.3143      2.3120    
  2.3089      2.3051      2.3009      2.2968      2.2930      2.2900      2.2879      2.2866      2.2862      2.2866    
  2.2879      2.2900      2.2930      2.2968      2.3009      2.3051      2.3089      2.3120      2.3143      2.3157    
  2.3160      2.3154      2.3139      2.3116      2.3088      2.3059      2.3032      2.3013      2.3002      2.2999    
  2.3001      2.3003      2.2859      2.2862      2.2873      2.2893      2.2921      2.2958      2.2999      2.3042    
  2.3082      2.3116      2.3142      2.3158      2.3164      2.3158      2.3142      2.3116      2.3082      2.3042    
  2.2999      2.2958      2.2921      2.2893      2.2873      2.2862      2.2859      2.2862      2.2873      2.2893    
  2.2921      2.2958      2.2999      2.3042      2.3082      2.3116      2.3142      2.3158      2.3164      2.3158    
  2.3142      2.3116      2.3082      2.3042      2.2999      2.2958      2.2921      2.2893      2.2873      2.2862    
  2.3005      2.3003      2.3001      2.2999      2.3002      2.3013      2.3032      2.3059      2.3088      2.3116    
  2.3139      2.3154      2.3160      2.3157      2.3143      2.3120      2.3089      2.3051      2.3009      2.2968    
  2.2930      2.2900      2.2879      2.2866      2.2862      2.2866      2.2879      2.2900      2.2930      2.2968    
  2.3009      2.3051      2.3089      2.3120      2.3143      2.3157      2.3160      2.3154      2.3139      2.3116    
  2.3088      2.3059      2.3032      2.3013      2.3002      2.2999      2.3001      2.3003      2.3222      2.3216    
  2.3197      2.3171      2.3142      2.3119      2.3107      2.3107      2.3115      2.3128      2.3141      2.3150    
  2.3156      2.3155      2.3148      2.3132      2.3107      2.3074      2.3035      2.2994      2.2955      2.2921    
  2.2895      2.2879      2.2873      2.2879      2.2895      2.2921      2.2955      2.2994      2.3035      2.3074    
  2.3107      2.3132      2.3148      2.3155      2.3156      2.3150      2.3141      2.3128      2.3115      2.3107    
  2.3107      2.3119      2.3142      2.3171      2.3197      2.3216      2.3278      2.3274      2.3263      2.3247    
  2.3229      2.3212      2.3199      2.3188      2.3180      2.3173      2.3169      2.3167      2.3167      2.3166    
  2.3161      2.3150      2.3130      2.3103      2.3068      2.3029      2.2989      2.2952      2.2921      2.2900    
  2.2893      2.2900      2.2921      2.2952      2.2989      2.3029      2.3068      2.3103      2.3130      2.3150    
  2.3161      2.3166      2.3167      2.3167      2.3169      2.3173      2.3180      2.3188      2.3199      2.3212    
  2.3229      2.3247      2.3263      2.3274      2.3397      2.3394      2.3387      2.3378      2.3368      2.3356    
  2.3340      2.3320      2.3294      2.3267      2.3242      2.3223      2.3209      2.3198      2.3187      2.3172    
  2.3152      2.3128      2.3099      2.3065      2.3028      2.2989      2.2955      2.2930      2.2921      2.2930    
  2.2955      2.2989      2.3028      2.3065      2.3099      2.3128      2.3152      2.3172      2.3187      2.3198    
  2.3209      2.3223      2.3242      2.3267      2.3294      2.3320      2.3340      2.3356      2.3368      2.3378    
  2.3387      2.3394      2.3920      2.3906      2.3867      2.3809      2.3741      2.3670      2.3601      2.3535    
  2.3473      2.3417      2.3369      2.3327      2.3292      2.3261      2.3231      2.3202      2.3173      2.3147    
  2.3123      2.3096      2.3065      2.3029      2.2994      2.2968      2.2958      2.2968      2.2994      2.3029    
  2.3065      2.3096      2.3123      2.3147      2.3173      2.3202      2.3231      2.3261      2.3292      2.3327    
  2.3369      2.3417      2.3473      2.3535      2.3601      2.3670      2.3741      2.3809      2.3867      2.3906    
  2.4917      2.4881      2.4779      2.4624      2.4439      2.4243      2.4057      2.3893      2.3755      2.3643    
  2.3553      2.3479      2.3415      2.3355      2.3298      2.3245      2.3201      2.3167      2.3143      2.3123    
  2.3099      2.3068      2.3035      2.3009      2.2999      2.3009      2.3035      2.3068      2.3099      2.3123    
  2.3143      2.3167      2.3201      2.3245      2.3298      2.3355      2.3415      2.3479      2.3553      2.3643    
  2.3755      2.3893      2.4057      2.4243      2.4439      2.4624      2.4779      2.4881      2.6667      2.6596    
  2.6391      2.6079      2.5697      2.5289      2.4891      2.4534      2.4236      2.4000      2.3822      2.3686    
  2.3576      2.3480      2.3391      2.3311      2.3245      2.3197      2.3167      2.3147      2.3128      2.3103    
  2.3074      2.3051      2.3042      2.3051      2.3074      2.3103      2.3128      2.3147      2.3167      2.3197    
  2.3245      2.3311      2.3391      2.3480      2.3576      2.3686      2.3822      2.4000      2.4236      2.4534    
  2.4891      2.5289      2.5697      2.6079      2.6391      2.6596      3.0288      3.0139      2.9710      2.9056    
  2.8254      2.7390      2.6542      2.5775      2.5130      2.4625      2.4251      2.3985      2.3791      2.3640    
  2.3513      2.3402      2.3311      2.3245      2.3201      2.3173      2.3152      2.3130      2.3107      2.3089    
  2.3082      2.3089      2.3107      2.3130      2.3152      2.3173      2.3201      2.3245      2.3311      2.3402    
  2.3513      2.3640      2.3791      2.3985      2.4251      2.4625      2.5130      2.5775      2.6542      2.7390    
  2.8254      2.9056      2.9710      3.0139      3.7557      3.7246      3.6352      3.4990      3.3321      3.1524    
  2.9763      2.8171      2.6833      2.5783      2.5012      2.4474      2.4109      2.3856      2.3669      2.3521    
  2.3402      2.3311      2.3245      2.3202      2.3172      2.3150      2.3132      2.3120      2.3116      2.3120    
  2.3132      2.3150      2.3172      2.3202      2.3245      2.3311      2.3402      2.3521      2.3669      2.3856    
  2.4109      2.4474      2.5012      2.5783      2.6833      2.8171      2.9763      3.1524      3.3321      3.4990    
  3.6352      3.7246      5.0893      5.0275      4.8507      4.5825      4.2556      3.9056      3.5643      3.2562    
  2.9965      2.7914      2.6394      2.5334      2.4631      2.4177      2.3878      2.3669      2.3513      2.3391    
  2.3298      2.3231      2.3187      2.3161      2.3148      2.3143      2.3142      2.3143      2.3148      2.3161    
  2.3187      2.3231      2.3298      2.3391      2.3513      2.3669      2.3878      2.4177      2.4631      2.5334    
  2.6394      2.7914      2.9965      3.2562      3.5643      3.9056      4.2556      4.5825      4.8507      5.0275    
  7.5015      7.3792      7.0312      6.5087      5.8812      5.2199      4.5845      4.0169      3.5407      3.1636    
  2.8821      2.6838      2.5521      2.4689      2.4177      2.3856      2.3640      2.3480      2.3355      2.3261    
  2.3198      2.3166      2.3155      2.3157      2.3158      2.3157      2.3155      2.3166      2.3198      2.3261    
  2.3355      2.3480      2.3640      2.3856      2.4177      2.4689      2.5521      2.6838      2.8821      3.1636    
  3.5407      4.0169      4.5845      5.2199      5.8812      6.5087      7.0312      7.3792      12.017      11.767    
  11.060      10.013      8.7795      7.5106      6.3237      5.2906      4.4418      3.7782      3.2841      2.9343    
  2.7001      2.5521      2.4631      2.4109      2.3791      2.3576      2.3415      2.3292      2.3209      2.3167    
  2.3156      2.3160      2.3164      2.3160      2.3156      2.3167      2.3209      2.3292      2.3415      2.3576    
  2.3791      2.4109      2.4631      2.5521      2.7001      2.9343      3.2841      3.7782      4.4418      5.2906    
  6.3237      7.5106      8.7795      10.013      11.060      11.767      20.600      20.083      18.630      16.500    
  14.030      11.547      9.2928      7.3965      5.8914      4.7490      3.9145      3.3280      2.9343      2.6838    
  2.5334      2.4474      2.3985      2.3686      2.3479      2.3327      2.3223      2.3167      2.3150      2.3154    
  2.3158      2.3154      2.3150      2.3167      2.3223      2.3327      2.3479      2.3686      2.3985      2.4474    
  2.5334      2.6838      2.9343      3.3280      3.9145      4.7490      5.8914      7.3965      9.2928      11.547    
  14.030      16.500      18.630      20.083      36.527      35.493      32.590      28.350      23.477      18.649    
  14.363      10.866      8.1921      6.2401      4.8616      3.9145      3.2841      2.8821      2.6394      2.5012    
  2.4251      2.3822      2.3553      2.3369      2.3242      2.3169      2.3141      2.3139      2.3142      2.3139    
  2.3141      2.3169      2.3242      2.3369      2.3553      2.3822      2.4251      2.5012      2.6394      2.8821    
  3.2841      3.9145      4.8616      6.2401      8.1921      10.866      14.363      18.649      23.477      28.350    
  32.590      35.493      65.231      63.158      57.392      49.129      39.855      30.815      22.872      16.518    
  11.802      8.4877      6.2401      4.7490      3.7782      3.1636      2.7914      2.5783      2.4625      2.4000    
  2.3643      2.3417      2.3267      2.3173      2.3128      2.3116      2.3116      2.3116      2.3128      2.3173    
  2.3267      2.3417      2.3643      2.4000      2.4625      2.5783      2.7914      3.1636      3.7782      4.7490    
  6.2401      8.4877      11.802      16.518      22.872      30.815      39.855      49.129      57.392      63.158    
  115.62      111.70      100.76      85.016      67.399      50.669      36.539      25.435      17.332      11.802    
  8.1921      5.8914      4.4418      3.5407      2.9965      2.6833      2.5130      2.4236      2.3755      2.3473    
  2.3294      2.3180      2.3115      2.3088      2.3082      2.3088      2.3115      2.3180      2.3294      2.3473    
  2.3755      2.4236      2.5130      2.6833      2.9965      3.5407      4.4418      5.8914      8.1921      11.802    
  17.332      25.435      36.539      50.669      67.399      85.016      100.76      111.70      193.81      187.33    
  169.07      142.30      111.73      82.223      57.413      38.719      25.435      16.518      10.866      7.3965    
  5.2906      4.0169      3.2562      2.8171      2.5775      2.4534      2.3893      2.3535      2.3320      2.3188    
  2.3107      2.3059      2.3042      2.3059      2.3107      2.3188      2.3320      2.3535      2.3893      2.4534    
  2.5775      2.8171      3.2562      4.0169      5.2906      7.3965      10.866      16.518      25.435      38.719    
  57.413      82.223      111.73      142.30      169.07      187.33      297.26      287.99      261.52      221.79    
  174.98      128.29      87.963      57.413      36.539      22.872      14.363      9.2928      6.3237      4.5845    
  3.5643      2.9763      2.6542      2.4891      2.4057      2.3601      2.3340      2.3199      2.3107      2.3032    
  2.2999      2.3032      2.3107      2.3199      2.3340      2.3601      2.4057      2.4891      2.6542      2.9763    
  3.5643      4.5845      6.3237      9.2928      14.363      22.872      36.539      57.413      87.963      128.29    
  174.98      221.79      261.52      287.99      413.15      401.65      368.20      316.46      253.14      187.36    
  128.29      82.223      50.669      30.815      18.649      11.547      7.5106      5.2199      3.9056      3.1524    
  2.7390      2.5289      2.4243      2.3670      2.3356      2.3212      2.3119      2.3013      2.2958      2.3013    
  2.3119      2.3212      2.3356      2.3670      2.4243      2.5289      2.7390      3.1524      3.9056      5.2199    
  7.5106      11.547      18.649      30.815      50.669      82.223      128.29      187.36      253.14      316.46    
  368.20      401.65      522.74      510.22      473.00      413.16      336.52      253.14      174.98      111.73    
  67.399      39.855      23.477      14.030      8.7795      5.8812      4.2556      3.3321      2.8254      2.5697    
  2.4439      2.3741      2.3368      2.3229      2.3142      2.3002      2.2921      2.3002      2.3142      2.3229    
  2.3368      2.3741      2.4439      2.5697      2.8254      3.3321      4.2556      5.8812      8.7795      14.030    
  23.477      39.855      67.399      111.73      174.98      253.14      336.52      413.16      473.00      510.22    
  609.68      597.55      560.41      497.75      413.16      316.46      221.79      142.30      85.016      49.129    
  28.350      16.500      10.013      6.5087      4.5825      3.4990      2.9056      2.6079      2.4624      2.3809    
  2.3378      2.3247      2.3171      2.2999      2.2893      2.2999      2.3171      2.3247      2.3378      2.3809    
  2.4624      2.6079      2.9056      3.4990      4.5825      6.5087      10.013      16.500      28.350      49.129    
  85.016      142.30      221.79      316.46      413.16      497.75      560.41      597.55      666.76      655.98    
  621.65      560.41      473.00      368.20      261.52      169.07      100.76      57.392      32.590      18.630    
  11.060      7.0312      4.8507      3.6352      2.9710      2.6391      2.4779      2.3867      2.3387      2.3263    
  2.3197      2.3001      2.2873      2.3001      2.3197      2.3263      2.3387      2.3867      2.4779      2.6391    
  2.9710      3.6352      4.8507      7.0312      11.060      18.630      32.590      57.392      100.76      169.07    
  261.52      368.20      473.00      560.41      621.65      655.98      696.48      687.08      655.98      597.55    
  510.22      401.65      287.99      187.33      111.70      63.158      35.493      20.083      11.767      7.3792    
  5.0275      3.7246      3.0139      2.6596      2.4881      2.3906      2.3394      2.3274      2.3216      2.3003    
  2.2862      2.3003      2.3216      2.3274      2.3394      2.3906      2.4881      2.6596      3.0139      3.7246    
  5.0275      7.3792      11.767      20.083      35.493      63.158      111.70      187.33      287.99      401.65    
  510.22      597.55      655.98      687.08      696.48      687.08      655.98      597.55      510.22      401.65    
  287.99      187.33      111.70      63.158      35.493      20.083      11.767      7.3792      5.0275      3.7246    
  3.0139      2.6596      2.4881      2.3906      2.3394      2.3274      2.3216      2.3003      2.2862      2.3003    
  2.3216      2.3274      2.3394      2.3906      2.4881      2.6596      3.0139      3.7246      5.0275      7.3792    
  11.767      20.083      35.493      63.158      111.70      187.33      287.99      401.65      510.22      597.55    
  655.98      687.08      687.08      677.16      644.84      585.28      497.74      390.31      278.95      181.05    
  107.92      61.162      34.493      19.583      11.524      7.2600      4.9671      3.6941      2.9992      2.6526    
  2.4846      2.3893      2.3392      2.3270      2.3210      2.3003      2.2866      2.3003      2.3210      2.3270    
  2.3392      2.3893      2.4846      2.6526      2.9992      3.6941      4.9671      7.2600      11.524      19.583    
  34.493      61.162      107.92      181.05      278.95      390.31      497.74      585.28      644.84      677.16    
  655.98      644.84      609.71      547.89      460.77      357.44      253.14      163.36      97.377      55.612    
  31.684      18.177      10.838      6.9210      4.7944      3.6066      2.9572      2.6325      2.4746      2.3855    
  2.3386      2.3260      2.3193      2.3002      2.2879      2.3002      2.3193      2.3260      2.3386      2.3855    
  2.4746      2.6325      2.9572      3.6066      4.7944      6.9210      10.838      18.177      31.684      55.612    
  97.377      163.36      253.14      357.44      460.77      547.89      609.71      644.84      597.55      585.28    