K                                       
   1.00000000000000     
     5.285890    0.000000    0.000000
     0.000000    5.285890    0.000000
     0.000000    0.000000    5.285890
   K 
     2
Direct
  0.000000  0.000000  0.000000
  0.500000  0.500000  0.500000
 
   48   48   48
 0.70531514402E+03 0.69648480575E+03 0.66676292356E+03 0.60967577571E+03 0.52274215631E+03
 0.41315366321E+03 0.29725955123E+03 0.19380869655E+03 0.11562074040E+03 0.65231381799E+02
 0.36526545978E+02 0.20599811819E+02 0.12016605811E+02 0.75014708243E+01 0.50892792520E+01
 0.37557290129E+01 0.30288286622E+01 0.26667392541E+01 0.24916739403E+01 0.23920143717E+01
 0.23396746440E+01 0.23278048016E+01 0.23222436102E+01 0.23004630366E+01 0.22858554508E+01
 0.23004630366E+01 0.23222436102E+01 0.23278048016E+01 0.23396746440E+01 0.23920143717E+01
 0.24916739403E+01 0.26667392541E+01 0.30288286622E+01 0.37557290129E+01 0.50892792520E+01
 0.75014708243E+01 0.12016605811E+02 0.20599811819E+02 0.36526545978E+02 0.65231381799E+02
 0.11562074040E+03 0.19380869655E+03 0.29725955123E+03 0.41315366321E+03 0.52274215631E+03
 0.60967577571E+03 0.66676292356E+03 0.69648480575E+03 0.69648480575E+03 0.68708019506E+03
 0.65597806156E+03 0.59755175460E+03 0.51021984498E+03 0.40164569543E+03 0.28799412027E+03
 0.18733049324E+03 0.11170288242E+03 0.63157880309E+02 0.35492722128E+02 0.20083307128E+02
 0.11766596591E+02 0.73791636333E+01 0.50275035389E+01 0.37245806755E+01 0.30138790999E+01
 0.26595887882E+01 0.24880956254E+01 0.23906198846E+01 0.23394103295E+01 0.23274014768E+01
 0.23215791037E+01 0.23003427964E+01 0.22862075845E+01 0.23003427964E+01 0.23215791037E+01
 0.23274014768E+01 0.23394103295E+01 0.23906198846E+01 0.24880956254E+01 0.26595887882E+01
 0.30138790999E+01 0.37245806755E+01 0.50275035389E+01 0.73791636333E+01 0.11766596591E+02
 0.20083307128E+02 0.35492722128E+02 0.63157880309E+02 0.11170288242E+03 0.18733049324E+03
 0.28799412027E+03 0.40164569543E+03 0.51021984498E+03 0.59755175460E+03 0.65597806156E+03
 0.68708019506E+03 0.66676292356E+03 0.65597806156E+03 0.62165273256E+03 0.56040896680E+03
 0.47299768856E+03 0.36820187424E+03 0.26152271502E+03 0.16906508004E+03 0.10076446687E+03
 0.57392186011E+02 0.32589589776E+02 0.18630438178E+02 0.11059942594E+02 0.70311591928E+01
 0.48507298998E+01 0.36352303143E+01 0.29709926573E+01 0.26390864262E+01 0.24778748632E+01
 0.23866968481E+01 0.23387136246E+01 0.23262772338E+01 0.23197156478E+01 0.23000763567E+01
 0.22873144000E+01 0.23000763567E+01 0.23197156478E+01 0.23262772338E+01 0.23387136246E+01
 0.23866968481E+01 0.24778748632E+01 0.26390864262E+01 0.29709926573E+01 0.36352303143E+01
 0.48507298998E+01 0.70311591928E+01 0.11059942594E+02 0.18630438178E+02 0.32589589776E+02
 0.57392186011E+02 0.10076446687E+03 0.16906508004E+03 0.26152271502E+03 0.36820187424E+03
 0.47299768856E+03 0.56040896680E+03 0.62165273256E+03 0.65597806156E+03 0.60967577571E+03
 0.59755175460E+03 0.56040896680E+03 0.49775251822E+03 0.41316007509E+03 0.31646120786E+03
 0.22179120246E+03 0.14230139016E+03 0.85015715941E+02 0.49128908196E+02 0.28349531150E+02
 0.16499504360E+02 0.10012896105E+02 0.65086874332E+01 0.45824714937E+01 0.34990282776E+01
 0.29056011903E+01 0.26078753076E+01 0.24624467219E+01 0.23809209335E+01 0.23377889768E+01
 0.23246677932E+01 0.23170514403E+01 0.22999233105E+01 0.22892774772E+01 0.22999233105E+01
 0.23170514403E+01 0.23246677932E+01 0.23377889768E+01 0.23809209335E+01 0.24624467219E+01
 0.26078753076E+01 0.29056011903E+01 0.34990282776E+01 0.45824714937E+01 0.65086874332E+01
 0.10012896105E+02 0.16499504360E+02 0.28349531150E+02 0.49128908196E+02 0.85015715941E+02
 0.14230139016E+03 0.22179120246E+03 0.31646120786E+03 0.41316007509E+03 0.49775251822E+03
 0.56040896680E+03 0.59755175460E+03 0.52274215631E+03 0.51021984498E+03 0.47299768856E+03
 0.41316007509E+03 0.33652003090E+03 0.25313879027E+03 0.17498232500E+03 0.11173091048E+03
 0.67399062806E+02 0.39855141813E+02 0.23476651984E+02 0.14029817611E+02 0.87794529405E+01
 0.58812308547E+01 0.42556344255E+01 0.33321299927E+01 0.28254212728E+01 0.25697400688E+01
 0.24438579201E+01 0.23741252199E+01 0.23367680685E+01 0.23228895843E+01 0.23142204832E+01
 0.23002300640E+01 0.22921370167E+01 0.23002300640E+01 0.23142204832E+01 0.23228895843E+01
 0.23367680685E+01 0.23741252199E+01 0.24438579201E+01 0.25697400688E+01 0.28254212728E+01
 0.33321299927E+01 0.42556344255E+01 0.58812308547E+01 0.87794529405E+01 0.14029817611E+02
 0.23476651984E+02 0.39855141813E+02 0.67399062806E+02 0.11173091048E+03 0.17498232500E+03
 0.25313879027E+03 0.33652003090E+03 0.41316007509E+03 0.47299768856E+03 0.51021984498E+03
 0.41315366321E+03 0.40164569543E+03 0.36820187424E+03 0.31646120786E+03 0.25313879027E+03
 0.18735504611E+03 0.12829360148E+03 0.82222953596E+02 0.50668547987E+02 0.30814986209E+02
 0.18649093993E+02 0.11547175561E+02 0.75105754615E+01 0.52199349619E+01 0.39056331484E+01
 0.31523680697E+01 0.27389675804E+01 0.25288646860E+01 0.24243128326E+01 0.23670284780E+01
 0.23355881527E+01 0.23212313890E+01 0.23119325337E+01 0.23012952493E+01 0.22957775175E+01
 0.23012952493E+01 0.23119325337E+01 0.23212313890E+01 0.23355881527E+01 0.23670284780E+01
 0.24243128326E+01 0.25288646860E+01 0.27389675804E+01 0.31523680697E+01 0.39056331484E+01
 0.52199349619E+01 0.75105754615E+01 0.11547175561E+02 0.18649093993E+02 0.30814986209E+02
 0.50668547987E+02 0.82222953596E+02 0.12829360148E+03 0.18735504611E+03 0.25313879027E+03
 0.31646120786E+03 0.36820187424E+03 0.40164569543E+03 0.29725955123E+03 0.28799412027E+03
 0.26152271502E+03 0.22179120246E+03 0.17498232500E+03 0.12829360148E+03 0.87963470110E+02
 0.57413278161E+02 0.36539160846E+02 0.22871903140E+02 0.14362533131E+02 0.92927846123E+01
 0.63236993907E+01 0.45845464129E+01 0.35643496385E+01 0.29763216200E+01 0.26541921786E+01
 0.24891014428E+01 0.24056986787E+01 0.23600822067E+01 0.23340401173E+01 0.23198572632E+01
 0.23107091281E+01 0.23032246750E+01 0.22999155035E+01 0.23032246750E+01 0.23107091281E+01
 0.23198572632E+01 0.23340401173E+01 0.23600822067E+01 0.24056986787E+01 0.24891014428E+01
 0.26541921786E+01 0.29763216200E+01 0.35643496385E+01 0.45845464129E+01 0.63236993907E+01
 0.92927846123E+01 0.14362533131E+02 0.22871903140E+02 0.36539160846E+02 0.57413278161E+02
 0.87963470110E+02 0.12829360148E+03 0.17498232500E+03 0.22179120246E+03 0.26152271502E+03
 0.28799412027E+03 0.19380869655E+03 0.18733049324E+03 0.16906508004E+03 0.14230139016E+03
 0.11173091048E+03 0.82222953596E+02 0.57413278161E+02 0.38718642541E+02 0.25435468205E+02
 0.16518104219E+02 0.10866028862E+02 0.73965200756E+01 0.52906351949E+01 0.40169468011E+01
 0.32561979099E+01 0.28171414747E+01 0.25774773403E+01 0.24534126891E+01 0.23892530939E+01
 0.23534893687E+01 0.23319577199E+01 0.23187851661E+01 0.23106724188E+01 0.23058567010E+01
 0.23041702470E+01 0.23058567010E+01 0.23106724188E+01 0.23187851661E+01 0.23319577199E+01
 0.23534893687E+01 0.23892530939E+01 0.24534126891E+01 0.25774773403E+01 0.28171414747E+01
 0.32561979099E+01 0.40169468011E+01 0.52906351949E+01 0.73965200756E+01 0.10866028862E+02
 0.16518104219E+02 0.25435468205E+02 0.38718642541E+02 0.57413278161E+02 0.82222953596E+02
 0.11173091048E+03 0.14230139016E+03 0.16906508004E+03 0.18733049324E+03 0.11562074040E+03
 0.11170288242E+03 0.10076446687E+03 0.85015715941E+02 0.67399062806E+02 0.50668547987E+02
 0.36539160846E+02 0.25435468205E+02 0.17332382046E+02 0.11801892605E+02 0.81920886367E+01
 0.58913746705E+01 0.44417704142E+01 0.35406572447E+01 0.29964544873E+01 0.26833155732E+01
 0.25130025039E+01 0.24235568822E+01 0.23754844796E+01 0.23473416612E+01 0.23294008893E+01
 0.23179546830E+01 0.23115396165E+01 0.23088099900E+01 0.23081623796E+01 0.23088099900E+01
 0.23115396165E+01 0.23179546830E+01 0.23294008893E+01 0.23473416612E+01 0.23754844796E+01
 0.24235568822E+01 0.25130025039E+01 0.26833155732E+01 0.29964544873E+01 0.35406572447E+01
 0.44417704142E+01 0.58913746705E+01 0.81920886367E+01 0.11801892605E+02 0.17332382046E+02
 0.25435468205E+02 0.36539160846E+02 0.50668547987E+02 0.67399062806E+02 0.85015715941E+02
 0.10076446687E+03 0.11170288242E+03 0.65231381799E+02 0.63157880309E+02 0.57392186011E+02
 0.49128908196E+02 0.39855141813E+02 0.30814986209E+02 0.22871903140E+02 0.16518104219E+02
 0.11801892605E+02 0.84876855424E+01 0.62401267540E+01 0.47490060701E+01 0.37782493065E+01
 0.31636489310E+01 0.27913604049E+01 0.25783353598E+01 0.24624529174E+01 0.24000174137E+01
 0.23643184419E+01 0.23417493239E+01 0.23266851666E+01 0.23173223005E+01 0.23128230632E+01
 0.23116252194E+01 0.23115794950E+01 0.23116252194E+01 0.23128230632E+01 0.23173223005E+01
 0.23266851666E+01 0.23417493239E+01 0.23643184419E+01 0.24000174137E+01 0.24624529174E+01
 0.25783353598E+01 0.27913604049E+01 0.31636489310E+01 0.37782493065E+01 0.47490060701E+01
 0.62401267540E+01 0.84876855424E+01 0.11801892605E+02 0.16518104219E+02 0.22871903140E+02
 0.30814986209E+02 0.39855141813E+02 0.49128908196E+02 0.57392186011E+02 0.63157880309E+02
 0.36526545978E+02 0.35492722128E+02 0.32589589776E+02 0.28349531150E+02 0.23476651984E+02
 0.18649093993E+02 0.14362533131E+02 0.10866028862E+02 0.81920886367E+01 0.62401267540E+01
 0.48615549368E+01 0.39144549256E+01 0.32840577640E+01 0.28820574031E+01 0.26394127209E+01
 0.25011643555E+01 0.24251171923E+01 0.23821552181E+01 0.23553286127E+01 0.23368527940E+01
 0.23242262905E+01 0.23168998466E+01 0.23140800597E+01 0.23139110437E+01 0.23141893346E+01
 0.23139110437E+01 0.23140800597E+01 0.23168998466E+01 0.23242262905E+01 0.23368527940E+01
 0.23553286127E+01 0.23821552181E+01 0.24251171923E+01 0.25011643555E+01 0.26394127209E+01
 0.28820574031E+01 0.32840577640E+01 0.39144549256E+01 0.48615549368E+01 0.62401267540E+01
 0.81920886367E+01 0.10866028862E+02 0.14362533131E+02 0.18649093993E+02 0.23476651984E+02
 0.28349531150E+02 0.32589589776E+02 0.35492722128E+02 0.20599811819E+02 0.20083307128E+02
 0.18630438178E+02 0.16499504360E+02 0.14029817611E+02 0.11547175561E+02 0.92927846123E+01
 0.73965200756E+01 0.58913746705E+01 0.47490060701E+01 0.39144549256E+01 0.33280458399E+01
 0.29343033913E+01 0.26838016453E+01 0.25334393857E+01 0.24473972292E+01 0.23984595929E+01
 0.23685707107E+01 0.23479240396E+01 0.23327157054E+01 0.23223079106E+01 0.23167041945E+01
 0.23150410225E+01 0.23154158068E+01 0.23158261551E+01 0.23154158068E+01 0.23150410225E+01
 0.23167041945E+01 0.23223079106E+01 0.23327157054E+01 0.23479240396E+01 0.23685707107E+01
 0.23984595929E+01 0.24473972292E+01 0.25334393857E+01 0.26838016453E+01 0.29343033913E+01
 0.33280458399E+01 0.39144549256E+01 0.47490060701E+01 0.58913746705E+01 0.73965200756E+01
 0.92927846123E+01 0.11547175561E+02 0.14029817611E+02 0.16499504360E+02 0.18630438178E+02
 0.20083307128E+02 0.12016605811E+02 0.11766596591E+02 0.11059942594E+02 0.10012896105E+02
 0.87794529405E+01 0.75105754615E+01 0.63236993907E+01 0.52906351949E+01 0.44417704142E+01
 0.37782493065E+01 0.32840577640E+01 0.29343033913E+01 0.27001268332E+01 0.25520970109E+01
 0.24631410737E+01 0.24109111963E+01 0.23791176307E+01 0.23576271592E+01 0.23414843443E+01
 0.23292206829E+01 0.23209320692E+01 0.23166643486E+01 0.23155697425E+01 0.23160133712E+01
 0.23163842328E+01 0.23160133712E+01 0.23155697425E+01 0.23166643486E+01 0.23209320692E+01
 0.23292206829E+01 0.23414843443E+01 0.23576271592E+01 0.23791176307E+01 0.24109111963E+01
 0.24631410737E+01 0.25520970109E+01 0.27001268332E+01 0.29343033913E+01 0.32840577640E+01
 0.37782493065E+01 0.44417704142E+01 0.52906351949E+01 0.63236993907E+01 0.75105754615E+01
 0.87794529405E+01 0.10012896105E+02 0.11059942594E+02 0.11766596591E+02 0.75014708243E+01
 0.73791636333E+01 0.70311591928E+01 0.65086874332E+01 0.58812308547E+01 0.52199349619E+01
 0.45845464129E+01 0.40169468011E+01 0.35406572447E+01 0.31636489310E+01 0.28820574031E+01
 0.26838016453E+01 0.25520970109E+01 0.24688708028E+01 0.24176835781E+01 0.23856347523E+01
 0.23640311746E+01 0.23480067547E+01 0.23355115361E+01 0.23260999428E+01 0.23198428979E+01
 0.23165689972E+01 0.23155495495E+01 0.23156506895E+01 0.23158261551E+01 0.23156506895E+01
 0.23155495495E+01 0.23165689972E+01 0.23198428979E+01 0.23260999428E+01 0.23355115361E+01
 0.23480067547E+01 0.23640311746E+01 0.23856347523E+01 0.24176835781E+01 0.24688708028E+01
 0.25520970109E+01 0.26838016453E+01 0.28820574031E+01 0.31636489310E+01 0.35406572447E+01
 0.40169468011E+01 0.45845464129E+01 0.52199349619E+01 0.58812308547E+01 0.65086874332E+01
 0.70311591928E+01 0.73791636333E+01 0.50892792520E+01 0.50275035389E+01 0.48507298998E+01
 0.45824714937E+01 0.42556344255E+01 0.39056331484E+01 0.35643496385E+01 0.32561979099E+01
 0.29964544873E+01 0.27913604049E+01 0.26394127209E+01 0.25334393857E+01 0.24631410737E+01
 0.24176835781E+01 0.23877977924E+01 0.23669221863E+01 0.23512666967E+01 0.23391016623E+01
 0.23298038655E+01 0.23231022633E+01 0.23186867010E+01 0.23161072806E+01 0.23148237603E+01
 0.23143125027E+01 0.23141893346E+01 0.23143125027E+01 0.23148237603E+01 0.23161072806E+01
 0.23186867010E+01 0.23231022633E+01 0.23298038655E+01 0.23391016623E+01 0.23512666967E+01
 0.23669221863E+01 0.23877977924E+01 0.24176835781E+01 0.24631410737E+01 0.25334393857E+01
 0.26394127209E+01 0.27913604049E+01 0.29964544873E+01 0.32561979099E+01 0.35643496385E+01
 0.39056331484E+01 0.42556344255E+01 0.45824714937E+01 0.48507298998E+01 0.50275035389E+01
 0.37557290129E+01 0.37245806755E+01 0.36352303143E+01 0.34990282776E+01 0.33321299927E+01
 0.31523680697E+01 0.29763216200E+01 0.28171414747E+01 0.26833155732E+01 0.25783353598E+01
 0.25011643555E+01 0.24473972292E+01 0.24109111963E+01 0.23856347523E+01 0.23669221863E+01
 0.23521126933E+01 0.23402125719E+01 0.23310615836E+01 0.23245320688E+01 0.23201502505E+01
 0.23171859478E+01 0.23149839113E+01 0.23132389909E+01 0.23120247941E+01 0.23115794950E+01
 0.23120247941E+01 0.23132389909E+01 0.23149839113E+01 0.23171859478E+01 0.23201502505E+01
 0.23245320688E+01 0.23310615836E+01 0.23402125719E+01 0.23521126933E+01 0.23669221863E+01
 0.23856347523E+01 0.24109111963E+01 0.24473972292E+01 0.25011643555E+01 0.25783353598E+01
 0.26833155732E+01 0.28171414747E+01 0.29763216200E+01 0.31523680697E+01 0.33321299927E+01
 0.34990282776E+01 0.36352303143E+01 0.37245806755E+01 0.30288286622E+01 0.30138790999E+01
 0.29709926573E+01 0.29056011903E+01 0.28254212728E+01 0.27389675804E+01 0.26541921786E+01
 0.25774773403E+01 0.25130025039E+01 0.24624529174E+01 0.24251171923E+01 0.23984595929E+01
 0.23791176307E+01 0.23640311746E+01 0.23512666967E+01 0.23402125719E+01 0.23311411013E+01
 0.23244574736E+01 0.23200881521E+01 0.23173346215E+01 0.23152170518E+01 0.23130332799E+01
 0.23107382044E+01 0.23088833200E+01 0.23081623796E+01 0.23088833200E+01 0.23107382044E+01
 0.23130332799E+01 0.23152170518E+01 0.23173346215E+01 0.23200881521E+01 0.23244574736E+01
 0.23311411013E+01 0.23402125719E+01 0.23512666967E+01 0.23640311746E+01 0.23791176307E+01
 0.23984595929E+01 0.24251171923E+01 0.24624529174E+01 0.25130025039E+01 0.25774773403E+01
 0.26541921786E+01 0.27389675804E+01 0.28254212728E+01 0.29056011903E+01 0.29709926573E+01
 0.30138790999E+01 0.26667392541E+01 0.26595887882E+01 0.26390864262E+01 0.26078753076E+01
 0.25697400688E+01 0.25288646860E+01 0.24891014428E+01 0.24534126891E+01 0.24235568822E+01
 0.24000174137E+01 0.23821552181E+01 0.23685707107E+01 0.23576271592E+01 0.23480067547E+01
 0.23391016623E+01 0.23310615836E+01 0.23244574736E+01 0.23197292947E+01 0.23167416054E+01
 0.23147416244E+01 0.23127705122E+01 0.23102631993E+01 0.23074204917E+01 0.23050816410E+01
 0.23041702470E+01 0.23050816410E+01 0.23074204917E+01 0.23102631993E+01 0.23127705122E+01
 0.23147416244E+01 0.23167416054E+01 0.23197292947E+01 0.23244574736E+01 0.23310615836E+01
 0.23391016623E+01 0.23480067547E+01 0.23576271592E+01 0.23685707107E+01 0.23821552181E+01
 0.24000174137E+01 0.24235568822E+01 0.24534126891E+01 0.24891014428E+01 0.25288646860E+01
 0.25697400688E+01 0.26078753076E+01 0.26390864262E+01 0.26595887882E+01 0.24916739403E+01
 0.24880956254E+01 0.24778748632E+01 0.24624467219E+01 0.24438579201E+01 0.24243128326E+01
 0.24056986787E+01 0.23892530939E+01 0.23754844796E+01 0.23643184419E+01 0.23553286127E+01
 0.23479240396E+01 0.23414843443E+01 0.23355115361E+01 0.23298038655E+01 0.23245320688E+01
 0.23200881521E+01 0.23167416054E+01 0.23143343016E+01 0.23122709752E+01 0.23098644789E+01
 0.23068228502E+01 0.23035337752E+01 0.23009184031E+01 0.22999155035E+01 0.23009184031E+01
 0.23035337752E+01 0.23068228502E+01 0.23098644789E+01 0.23122709752E+01 0.23143343016E+01
 0.23167416054E+01 0.23200881521E+01 0.23245320688E+01 0.23298038655E+01 0.23355115361E+01
 0.23414843443E+01 0.23479240396E+01 0.23553286127E+01 0.23643184419E+01 0.23754844796E+01
 0.23892530939E+01 0.24056986787E+01 0.24243128326E+01 0.24438579201E+01 0.24624467219E+01
 0.24778748632E+01 0.24880956254E+01 0.23920143717E+01 0.23906198846E+01 0.23866968481E+01
 0.23809209335E+01 0.23741252199E+01 0.23670284780E+01 0.23600822067E+01 0.23534893687E+01
 0.23473416612E+01 0.23417493239E+01 0.23368527940E+01 0.23327157054E+01 0.23292206829E+01
 0.23260999428E+01 0.23231022633E+01 0.23201502505E+01 0.23173346215E+01 0.23147416244E+01
 0.23122709752E+01 0.23096242272E+01 0.23065117403E+01 0.23029495099E+01 0.22994247832E+01
 0.22967704920E+01 0.22957775175E+01 0.22967704920E+01 0.22994247832E+01 0.23029495099E+01
 0.23065117403E+01 0.23096242272E+01 0.23122709752E+01 0.23147416244E+01 0.23173346215E+01
 0.23201502505E+01 0.23231022633E+01 0.23260999428E+01 0.23292206829E+01 0.23327157054E+01
 0.23368527940E+01 0.23417493239E+01 0.23473416612E+01 0.23534893687E+01 0.23600822067E+01
 0.23670284780E+01 0.23741252199E+01 0.23809209335E+01 0.23866968481E+01 0.23906198846E+01
 0.23396746440E+01 0.23394103295E+01 0.23387136246E+01 0.23377889768E+01 0.23367680685E+01
 0.23355881527E+01 0.23340401173E+01 0.23319577199E+01 0.23294008893E+01 0.23266851666E+01
 0.23242262905E+01 0.23223079106E+01 0.23209320692E+01 0.23198428979E+01 0.23186867010E+01
 0.23171859478E+01 0.23152170518E+01 0.23127705122E+01 0.23098644789E+01 0.23065117403E+01
 0.23027869061E+01 0.22989451667E+01 0.22954796030E+01 0.22930271096E+01 0.22921370167E+01
 0.22930271096E+01 0.22954796030E+01 0.22989451667E+01 0.23027869061E+01 0.23065117403E+01
 0.23098644789E+01 0.23127705122E+01 0.23152170518E+01 0.23171859478E+01 0.23186867010E+01
 0.23198428979E+01 0.23209320692E+01 0.23223079106E+01 0.23242262905E+01 0.23266851666E+01
 0.23294008893E+01 0.23319577199E+01 0.23340401173E+01 0.23355881527E+01 0.23367680685E+01
 0.23377889768E+01 0.23387136246E+01 0.23394103295E+01 0.23278048016E+01 0.23274014768E+01
 0.23262772338E+01 0.23246677932E+01 0.23228895843E+01 0.23212313890E+01 0.23198572632E+01
 0.23187851661E+01 0.23179546830E+01 0.23173223005E+01 0.23168998466E+01 0.23167041945E+01
 0.23166643486E+01 0.23165689972E+01 0.23161072806E+01 0.23149839113E+01 0.23130332799E+01
 0.23102631993E+01 0.23068228502E+01 0.23029495099E+01 0.22989451667E+01 0.22951779963E+01
 0.22920637276E+01 0.22900004699E+01 0.22892774772E+01 0.22900004699E+01 0.22920637276E+01
 0.22951779963E+01 0.22989451667E+01 0.23029495099E+01 0.23068228502E+01 0.23102631993E+01
 0.23130332799E+01 0.23149839113E+01 0.23161072806E+01 0.23165689972E+01 0.23166643486E+01
 0.23167041945E+01 0.23168998466E+01 0.23173223005E+01 0.23179546830E+01 0.23187851661E+01
 0.23198572632E+01 0.23212313890E+01 0.23228895843E+01 0.23246677932E+01 0.23262772338E+01
 0.23274014768E+01 0.23222436102E+01 0.23215791037E+01 0.23197156478E+01 0.23170514403E+01
 0.23142204832E+01 0.23119325337E+01 0.23107091281E+01 0.23106724188E+01 0.23115396165E+01
 0.23128230632E+01 0.23140800597E+01 0.23150410225E+01 0.23155697425E+01 0.23155495495E+01
 0.23148237603E+01 0.23132389909E+01 0.23107382044E+01 0.23074204917E+01 0.23035337752E+01
 0.22994247832E+01 0.22954796030E+01 0.22920637276E+01 0.22894642836E+01 0.22878561842E+01
 0.22873144000E+01 0.22878561842E+01 0.22894642836E+01 0.22920637276E+01 0.22954796030E+01
 0.22994247832E+01 0.23035337752E+01 0.23074204917E+01 0.23107382044E+01 0.23132389909E+01
 0.23148237603E+01 0.23155495495E+01 0.23155697425E+01 0.23150410225E+01 0.23140800597E+01
 0.23128230632E+01 0.23115396165E+01 0.23106724188E+01 0.23107091281E+01 0.23119325337E+01
 0.23142204832E+01 0.23170514403E+01 0.23197156478E+01 0.23215791037E+01 0.23004630366E+01
 0.23003427964E+01 0.23000763567E+01 0.22999233105E+01 0.23002300640E+01 0.23012952493E+01
 0.23032246750E+01 0.23058567010E+01 0.23088099900E+01 0.23116252194E+01 0.23139110437E+01
 0.23154158068E+01 0.23160133712E+01 0.23156506895E+01 0.23143125027E+01 0.23120247941E+01
 0.23088833200E+01 0.23050816410E+01 0.23009184031E+01 0.22967704920E+01 0.22930271096E+01
 0.22900004699E+01 0.22878561842E+01 0.22866111607E+01 0.22862075845E+01 0.22866111607E+01
 0.22878561842E+01 0.22900004699E+01 0.22930271096E+01 0.22967704920E+01 0.23009184031E+01
 0.23050816410E+01 0.23088833200E+01 0.23120247941E+01 0.23143125027E+01 0.23156506895E+01
 0.23160133712E+01 0.23154158068E+01 0.23139110437E+01 0.23116252194E+01 0.23088099900E+01
 0.23058567010E+01 0.23032246750E+01 0.23012952493E+01 0.23002300640E+01 0.22999233105E+01
 0.23000763567E+01 0.23003427964E+01 0.22858554508E+01 0.22862075845E+01 0.22873144000E+01
 0.22892774772E+01 0.22921370167E+01 0.22957775175E+01 0.22999155035E+01 0.23041702470E+01
 0.23081623796E+01 0.23115794950E+01 0.23141893346E+01 0.23158261551E+01 0.23163842328E+01
 0.23158261551E+01 0.23141893346E+01 0.23115794950E+01 0.23081623796E+01 0.23041702470E+01
 0.22999155035E+01 0.22957775175E+01 0.22921370167E+01 0.22892774772E+01 0.22873144000E+01
 0.22862075845E+01 0.22858554508E+01 0.22862075845E+01 0.22873144000E+01 0.22892774772E+01
 0.22921370167E+01 0.22957775175E+01 0.22999155035E+01 0.23041702470E+01 0.23081623796E+01
 0.23115794950E+01 0.23141893346E+01 0.23158261551E+01 0.23163842328E+01 0.23158261551E+01
 0.23141893346E+01 0.23115794950E+01 0.23081623796E+01 0.23041702470E+01 0.22999155035E+01
 0.22957775175E+01 0.22921370167E+01 0.22892774772E+01 0.22873144000E+01 0.22862075845E+01
 0.23004630366E+01 0.23003427964E+01 0.23000763567E+01 0.22999233105E+01 0.23002300640E+01
 0.23012952493E+01 0.23032246750E+01 0.23058567010E+01 0.23088099900E+01 0.23116252194E+01
 0.23139110437E+01 0.23154158068E+01 0.23160133712E+01 0.23156506895E+01 0.23143125027E+01
 0.23120247941E+01 0.23088833200E+01 0.23050816410E+01 0.23009184031E+01 0.22967704920E+01
 0.22930271096E+01 0.22900004699E+01 0.22878561842E+01 0.22866111607E+01 0.22862075845E+01
 0.22866111607E+01 0.22878561842E+01 0.22900004699E+01 0.22930271096E+01 0.22967704920E+01
 0.23009184031E+01 0.23050816410E+01 0.23088833200E+01 0.23120247941E+01 0.23143125027E+01
 0.23156506895E+01 0.23160133712E+01 0.23154158068E+01 0.23139110437E+01 0.23116252194E+01
 0.23088099900E+01 0.23058567010E+01 0.23032246750E+01 0.23012952493E+01 0.23002300640E+01
 0.22999233105E+01 0.23000763567E+01 0.23003427964E+01 0.23222436102E+01 0.23215791037E+01
 0.23197156478E+01 0.23170514403E+01 0.23142204832E+01 0.23119325337E+01 0.23107091281E+01
 0.23106724188E+01 0.23115396165E+01 0.23128230632E+01 0.23140800597E+01 0.23150410225E+01
 0.23155697425E+01 0.23155495495E+01 0.23148237603E+01 0.23132389909E+01 0.23107382044E+01
 0.23074204917E+01 0.23035337752E+01 0.22994247832E+01 0.22954796030E+01 0.22920637276E+01
 0.22894642836E+01 0.22878561842E+01 0.22873144000E+01 0.22878561842E+01 0.22894642836E+01
 0.22920637276E+01 0.22954796030E+01 0.22994247832E+01 0.23035337752E+01 0.23074204917E+01
 0.23107382044E+01 0.23132389909E+01 0.23148237603E+01 0.23155495495E+01 0.23155697425E+01
 0.23150410225E+01 0.23140800597E+01 0.23128230632E+01 0.23115396165E+01 0.23106724188E+01
 0.23107091281E+01 0.23119325337E+01 0.23142204832E+01 0.23170514403E+01 0.23197156478E+01
 0.23215791037E+01 0.23278048016E+01 0.23274014768E+01 0.23262772338E+01 0.23246677932E+01
 0.23228895843E+01 0.23212313890E+01 0.23198572632E+01 0.23187851661E+01 0.23179546830E+01
 0.23173223005E+01 0.23168998466E+01 0.23167041945E+01 0.23166643486E+01 0.23165689972E+01
 0.23161072806E+01 0.23149839113E+01 0.23130332799E+01 0.23102631993E+01 0.23068228502E+01
 0.23029495099E+01 0.22989451667E+01 0.22951779963E+01 0.22920637276E+01 0.22900004699E+01
 0.22892774772E+01 0.22900004699E+01 0.22920637276E+01 0.22951779963E+01 0.22989451667E+01
 0.23029495099E+01 0.23068228502E+01 0.23102631993E+01 0.23130332799E+01 0.23149839113E+01
 0.23161072806E+01 0.23165689972E+01 0.23166643486E+01 0.23167041945E+01 0.23168998466E+01
 0.23173223005E+01 0.23179546830E+01 0.23187851661E+01 0.23198572632E+01 0.23212313890E+01
 0.23228895843E+01 0.23246677932E+01 0.23262772338E+01 0.23274014768E+01 0.23396746440E+01
 0.23394103295E+01 0.23387136246E+01 0.23377889768E+01 0.23367680685E+01 0.23355881527E+01
 0.23340401173E+01 0.23319577199E+01 0.23294008893E+01 0.23266851666E+01 0.23242262905E+01
 0.23223079106E+01 0.23209320692E+01 0.23198428979E+01 0.23186867010E+01 0.23171859478E+01
 0.23152170518E+01 0.23127705122E+01 0.23098644789E+01 0.23065117403E+01 0.23027869061E+01
 0.22989451667E+01 0.22954796030E+01 0.22930271096E+01 0.22921370167E+01 0.22930271096E+01
 0.22954796030E+01 0.22989451667E+01 0.23027869061E+01 0.23065117403E+01 0.23098644789E+01
 0.23127705122E+01 0.23152170518E+01 0.23171859478E+01 0.23186867010E+01 0.23198428979E+01
 0.23209320692E+01 0.23223079106E+01 0.23242262905E+01 0.23266851666E+01 0.23294008893E+01
 0.23319577199E+01 0.23340401173E+01 0.23355881527E+01 0.23367680685E+01 0.23377889768E+01
 0.23387136246E+01 0.23394103295E+01 0.23920143717E+01 0.23906198846E+01 0.23866968481E+01
 0.23809209335E+01 0.23741252199E+01 0.23670284780E+01 0.23600822067E+01 0.23534893687E+01
 0.23473416612E+01 0.23417493239E+01 0.23368527940E+01 0.23327157054E+01 0.23292206829E+01
 0.23260999428E+01 0.23231022633E+01 0.23201502505E+01 0.23173346215E+01 0.23147416244E+01
 0.23122709752E+01 0.23096242272E+01 0.23065117403E+01 0.23029495099E+01 0.22994247832E+01
 0.22967704920E+01 0.22957775175E+01 0.22967704920E+01 0.22994247832E+01 0.23029495099E+01
 0.23065117403E+01 0.23096242272E+01 0.23122709752E+01 0.23147416244E+01 0.23173346215E+01
 0.23201502505E+01 0.23231022633E+01 0.23260999428E+01 0.23292206829E+01 0.23327157054E+01
 0.23368527940E+01 0.23417493239E+01 0.23473416612E+01 0.23534893687E+01 0.23600822067E+01
 0.23670284780E+01 0.23741252199E+01 0.23809209335E+01 0.23866968481E+01 0.23906198846E+01
 0.24916739403E+01 0.24880956254E+01 0.24778748632E+01 0.24624467219E+01 0.24438579201E+01
 0.24243128326E+01 0.24056986787E+01 0.23892530939E+01 0.23754844796E+01 0.23643184419E+01
 0.23553286127E+01 0.23479240396E+01 0.23414843443E+01 0.23355115361E+01 0.23298038655E+01
 0.23245320688E+01 0.23200881521E+01 0.23167416054E+01 0.23143343016E+01 0.23122709752E+01
 0.23098644789E+01 0.23068228502E+01 0.23035337752E+01 0.23009184031E+01 0.22999155035E+01
 0.23009184031E+01 0.23035337752E+01 0.23068228502E+01 0.23098644789E+01 0.23122709752E+01
 0.23143343016E+01 0.23167416054E+01 0.23200881521E+01 0.23245320688E+01 0.23298038655E+01
 0.23355115361E+01 0.23414843443E+01 0.23479240396E+01 0.23553286127E+01 0.23643184419E+01
 0.23754844796E+01 0.23892530939E+01 0.24056986787E+01 0.24243128326E+01 0.24438579201E+01
 0.24624467219E+01 0.24778748632E+01 0.24880956254E+01 0.26667392541E+01 0.26595887882E+01
 0.26390864262E+01 0.26078753076E+01 0.25697400688E+01 0.25288646860E+01 0.24891014428E+01
 0.24534126891E+01 0.24235568822E+01 0.24000174137E+01 0.23821552181E+01 0.23685707107E+01
 0.23576271592E+01 0.23480067547E+01 0.23391016623E+01 0.23310615836E+01 0.23244574736E+01
 0.23197292947E+01 0.23167416054E+01 0.23147416244E+01 0.23127705122E+01 0.23102631993E+01
 0.23074204917E+01 0.23050816410E+01 0.23041702470E+01 0.23050816410E+01 0.23074204917E+01
 0.23102631993E+01 0.23127705122E+01 0.23147416244E+01 0.23167416054E+01 0.23197292947E+01
 0.23244574736E+01 0.23310615836E+01 0.23391016623E+01 0.23480067547E+01 0.23576271592E+01
 0.23685707107E+01 0.23821552181E+01 0.24000174137E+01 0.24235568822E+01 0.24534126891E+01
 0.24891014428E+01 0.25288646860E+01 0.25697400688E+01 0.26078753076E+01 0.26390864262E+01
 0.26595887882E+01 0.30288286622E+01 0.30138790999E+01 0.29709926573E+01 0.29056011903E+01
 0.28254212728E+01 0.27389675804E+01 0.26541921786E+01 0.25774773403E+01 0.25130025039E+01
 0.24624529174E+01 0.24251171923E+01 0.23984595929E+01 0.23791176307E+01 0.23640311746E+01
 0.23512666967E+01 0.23402125719E+01 0.23311411013E+01 0.23244574736E+01 0.23200881521E+01
 0.23173346215E+01 0.23152170518E+01 0.23130332799E+01 0.23107382044E+01 0.23088833200E+01
 0.23081623796E+01 0.23088833200E+01 0.23107382044E+01 0.23130332799E+01 0.23152170518E+01
 0.23173346215E+01 0.23200881521E+01 0.23244574736E+01 0.23311411013E+01 0.23402125719E+01
 0.23512666967E+01 0.23640311746E+01 0.23791176307E+01 0.23984595929E+01 0.24251171923E+01
 0.24624529174E+01 0.25130025039E+01 0.25774773403E+01 0.26541921786E+01 0.27389675804E+01
 0.28254212728E+01 0.29056011903E+01 0.29709926573E+01 0.30138790999E+01 0.37557290129E+01
 0.37245806755E+01 0.36352303143E+01 0.34990282776E+01 0.33321299927E+01 0.31523680697E+01
 0.29763216200E+01 0.28171414747E+01 0.26833155732E+01 0.25783353598E+01 0.25011643555E+01
 0.24473972292E+01 0.24109111963E+01 0.23856347523E+01 0.23669221863E+01 0.23521126933E+01
 0.23402125719E+01 0.23310615836E+01 0.23245320688E+01 0.23201502505E+01 0.23171859478E+01
 0.23149839113E+01 0.23132389909E+01 0.23120247941E+01 0.23115794950E+01 0.23120247941E+01
 0.23132389909E+01 0.23149839113E+01 0.23171859478E+01 0.23201502505E+01 0.23245320688E+01
 0.23310615836E+01 0.23402125719E+01 0.23521126933E+01 0.23669221863E+01 0.23856347523E+01
 0.24109111963E+01 0.24473972292E+01 0.25011643555E+01 0.25783353598E+01 0.26833155732E+01
 0.28171414747E+01 0.29763216200E+01 0.31523680697E+01 0.33321299927E+01 0.34990282776E+01