   2   2   0   0
  0.7384556E+02  0.5285890E-09  0.5285890E-09  0.5285890E-09  0.5000000E-15
  1.000000000000000E-004
  CAR 
 K                                       
     23.11559916    -34.90187554  301     -0.13431337      1.00000000
    -34.902  0.0000E+00  0.0000E+00
    -34.708  0.0000E+00  0.0000E+00
    -34.515  0.0000E+00  0.0000E+00
    -34.322  0.0000E+00  0.0000E+00
    -34.128  0.0000E+00  0.0000E+00
    -33.935  0.0000E+00  0.0000E+00
    -33.742  0.0000E+00  0.0000E+00
    -33.548  0.0000E+00  0.0000E+00
    -33.355  0.0000E+00  0.0000E+00
    -33.161  0.0000E+00  0.0000E+00
    -32.968  0.0000E+00  0.0000E+00
    -32.775  0.0000E+00  0.0000E+00
    -32.581  0.0000E+00  0.0000E+00
    -32.388  0.3432E-02  0.6637E-03
    -32.194  0.2005E+02  0.3879E+01
    -32.001  0.6255E+00  0.4000E+01
    -31.808  0.0000E+00  0.4000E+01
    -31.614  0.0000E+00  0.4000E+01
    -31.421  0.0000E+00  0.4000E+01
    -31.227  0.0000E+00  0.4000E+01
    -31.034  0.0000E+00  0.4000E+01
    -30.841  0.0000E+00  0.4000E+01
    -30.647  0.0000E+00  0.4000E+01
    -30.454  0.0000E+00  0.4000E+01
    -30.260  0.0000E+00  0.4000E+01
    -30.067  0.0000E+00  0.4000E+01
    -29.874  0.0000E+00  0.4000E+01
    -29.680  0.0000E+00  0.4000E+01
    -29.487  0.0000E+00  0.4000E+01
    -29.294  0.0000E+00  0.4000E+01
    -29.100  0.0000E+00  0.4000E+01
    -28.907  0.0000E+00  0.4000E+01
    -28.713  0.0000E+00  0.4000E+01
    -28.520  0.0000E+00  0.4000E+01
    -28.327  0.0000E+00  0.4000E+01
    -28.133  0.0000E+00  0.4000E+01
    -27.940  0.0000E+00  0.4000E+01
    -27.746  0.0000E+00  0.4000E+01
    -27.553  0.0000E+00  0.4000E+01
    -27.360  0.0000E+00  0.4000E+01
    -27.166  0.0000E+00  0.4000E+01
    -26.973  0.0000E+00  0.4000E+01
    -26.779  0.0000E+00  0.4000E+01
    -26.586  0.0000E+00  0.4000E+01
    -26.393  0.0000E+00  0.4000E+01
    -26.199  0.0000E+00  0.4000E+01
    -26.006  0.0000E+00  0.4000E+01
    -25.812  0.0000E+00  0.4000E+01
    -25.619  0.0000E+00  0.4000E+01
    -25.426  0.0000E+00  0.4000E+01
    -25.232  0.0000E+00  0.4000E+01
    -25.039  0.0000E+00  0.4000E+01
    -24.846  0.0000E+00  0.4000E+01
    -24.652  0.0000E+00  0.4000E+01
    -24.459  0.0000E+00  0.4000E+01
    -24.265  0.0000E+00  0.4000E+01
    -24.072  0.0000E+00  0.4000E+01
    -23.879  0.0000E+00  0.4000E+01
    -23.685  0.0000E+00  0.4000E+01
    -23.492  0.0000E+00  0.4000E+01
    -23.298  0.0000E+00  0.4000E+01
    -23.105  0.0000E+00  0.4000E+01
    -22.912  0.0000E+00  0.4000E+01
    -22.718  0.0000E+00  0.4000E+01
    -22.525  0.0000E+00  0.4000E+01
    -22.331  0.0000E+00  0.4000E+01
    -22.138  0.0000E+00  0.4000E+01
    -21.945  0.0000E+00  0.4000E+01
    -21.751  0.0000E+00  0.4000E+01
    -21.558  0.0000E+00  0.4000E+01
    -21.364  0.0000E+00  0.4000E+01
    -21.171  0.0000E+00  0.4000E+01
    -20.978  0.0000E+00  0.4000E+01
    -20.784  0.0000E+00  0.4000E+01
    -20.591  0.0000E+00  0.4000E+01
    -20.398  0.0000E+00  0.4000E+01
    -20.204  0.0000E+00  0.4000E+01
    -20.011  0.0000E+00  0.4000E+01
    -19.817  0.0000E+00  0.4000E+01
    -19.624  0.0000E+00  0.4000E+01
    -19.431  0.0000E+00  0.4000E+01
    -19.237  0.0000E+00  0.4000E+01
    -19.044  0.0000E+00  0.4000E+01
    -18.850  0.0000E+00  0.4000E+01
    -18.657  0.0000E+00  0.4000E+01
    -18.464  0.0000E+00  0.4000E+01
    -18.270  0.0000E+00  0.4000E+01
    -18.077  0.0000E+00  0.4000E+01
    -17.883  0.0000E+00  0.4000E+01
    -17.690  0.0000E+00  0.4000E+01
    -17.497  0.0000E+00  0.4000E+01
    -17.303  0.0000E+00  0.4000E+01
    -17.110  0.0000E+00  0.4000E+01
    -16.916  0.0000E+00  0.4000E+01
    -16.723  0.0000E+00  0.4000E+01
    -16.530  0.0000E+00  0.4000E+01
    -16.336  0.0000E+00  0.4000E+01
    -16.143  0.0000E+00  0.4000E+01
    -15.950  0.3145E-05  0.4000E+01
    -15.756  0.2256E+02  0.8362E+01
    -15.563  0.3949E+02  0.1600E+02
    -15.369  0.9849E-04  0.1600E+02
    -15.176  0.0000E+00  0.1600E+02
    -14.983  0.0000E+00  0.1600E+02
    -14.789  0.0000E+00  0.1600E+02
    -14.596  0.0000E+00  0.1600E+02
    -14.402  0.0000E+00  0.1600E+02
    -14.209  0.0000E+00  0.1600E+02
    -14.016  0.0000E+00  0.1600E+02
    -13.822  0.0000E+00  0.1600E+02
    -13.629  0.0000E+00  0.1600E+02
    -13.435  0.0000E+00  0.1600E+02
    -13.242  0.0000E+00  0.1600E+02
    -13.049  0.0000E+00  0.1600E+02
    -12.855  0.0000E+00  0.1600E+02
    -12.662  0.0000E+00  0.1600E+02
    -12.468  0.0000E+00  0.1600E+02
    -12.275  0.0000E+00  0.1600E+02
    -12.082  0.0000E+00  0.1600E+02
    -11.888  0.0000E+00  0.1600E+02
    -11.695  0.0000E+00  0.1600E+02
    -11.501  0.0000E+00  0.1600E+02
    -11.308  0.0000E+00  0.1600E+02
    -11.115  0.0000E+00  0.1600E+02
    -10.921  0.0000E+00  0.1600E+02
    -10.728  0.0000E+00  0.1600E+02
    -10.535  0.0000E+00  0.1600E+02
    -10.341  0.0000E+00  0.1600E+02
    -10.148  0.0000E+00  0.1600E+02
     -9.954  0.0000E+00  0.1600E+02
     -9.761  0.0000E+00  0.1600E+02
     -9.568  0.0000E+00  0.1600E+02
     -9.374  0.0000E+00  0.1600E+02
     -9.181  0.0000E+00  0.1600E+02
     -8.987  0.0000E+00  0.1600E+02
     -8.794  0.0000E+00  0.1600E+02
     -8.601  0.0000E+00  0.1600E+02
     -8.407  0.0000E+00  0.1600E+02
     -8.214  0.0000E+00  0.1600E+02
     -8.020  0.0000E+00  0.1600E+02
     -7.827  0.0000E+00  0.1600E+02
     -7.634  0.0000E+00  0.1600E+02
     -7.440  0.0000E+00  0.1600E+02
     -7.247  0.0000E+00  0.1600E+02
     -7.053  0.0000E+00  0.1600E+02
     -6.860  0.0000E+00  0.1600E+02
     -6.667  0.0000E+00  0.1600E+02
     -6.473  0.0000E+00  0.1600E+02
     -6.280  0.0000E+00  0.1600E+02
     -6.087  0.0000E+00  0.1600E+02
     -5.893  0.0000E+00  0.1600E+02
     -5.700  0.0000E+00  0.1600E+02
     -5.506  0.0000E+00  0.1600E+02
     -5.313  0.0000E+00  0.1600E+02
     -5.120  0.0000E+00  0.1600E+02
     -4.926  0.0000E+00  0.1600E+02
     -4.733  0.0000E+00  0.1600E+02
     -4.539  0.0000E+00  0.1600E+02
     -4.346  0.0000E+00  0.1600E+02
     -4.153  0.0000E+00  0.1600E+02
     -3.959  0.0000E+00  0.1600E+02
     -3.766  0.0000E+00  0.1600E+02
     -3.572  0.0000E+00  0.1600E+02
     -3.379  0.0000E+00  0.1600E+02
     -3.186  0.0000E+00  0.1600E+02
     -2.992  0.0000E+00  0.1600E+02
     -2.799  0.0000E+00  0.1600E+02
     -2.605  0.0000E+00  0.1600E+02
     -2.412  0.4125E-06  0.1600E+02
     -2.219  0.4627E-01  0.1601E+02
     -2.025  0.3384E+00  0.1607E+02
     -1.832  0.4899E+00  0.1617E+02
     -1.639  0.6142E+00  0.1629E+02
     -1.445  0.7786E+00  0.1644E+02
     -1.252  0.7279E+00  0.1658E+02
     -1.058  0.1167E+01  0.1680E+02
     -0.865  0.9860E+00  0.1700E+02
     -0.672  0.1107E+01  0.1721E+02
     -0.478  0.1446E+01  0.1749E+02
     -0.285  0.1258E+01  0.1773E+02
     -0.091  0.1662E+01  0.1805E+02
      0.102  0.1553E+01  0.1835E+02
      0.295  0.1813E+01  0.1870E+02
      0.489  0.1840E+01  0.1906E+02
      0.682  0.1921E+01  0.1943E+02
      0.876  0.2382E+01  0.1989E+02
      1.069  0.2556E+01  0.2039E+02
      1.262  0.2779E+01  0.2092E+02
      1.456  0.2926E+01  0.2149E+02
      1.649  0.2731E+01  0.2202E+02
      1.843  0.3130E+01  0.2262E+02
      2.036  0.2117E+01  0.2303E+02
      2.229  0.3149E+01  0.2364E+02
      2.423  0.2331E+01  0.2409E+02
      2.616  0.3044E+01  0.2468E+02
      2.809  0.3214E+01  0.2530E+02
      3.003  0.3727E+01  0.2602E+02
      3.196  0.4238E+01  0.2684E+02
      3.390  0.4261E+01  0.2767E+02
      3.583  0.2725E+01  0.2820E+02
      3.776  0.3311E+01  0.2884E+02
      3.970  0.2473E+01  0.2931E+02
      4.163  0.2993E+01  0.2989E+02
      4.357  0.3809E+01  0.3063E+02
      4.550  0.4968E+01  0.3159E+02
      4.743  0.5686E+01  0.3269E+02
      4.937  0.5169E+01  0.3369E+02
      5.130  0.4787E+01  0.3461E+02
      5.324  0.6529E+01  0.3588E+02
      5.517  0.9451E+01  0.3771E+02
      5.710  0.7558E+01  0.3917E+02
      5.904  0.3188E+01  0.3978E+02
      6.097  0.1196E+01  0.4001E+02
      6.291  0.2483E+01  0.4050E+02
      6.484  0.1122E+02  0.4267E+02
      6.677  0.7971E+01  0.4421E+02
      6.871  0.6105E+01  0.4539E+02
      7.064  0.6401E+01  0.4663E+02
      7.257  0.7622E+01  0.4810E+02
      7.451  0.5867E+01  0.4923E+02
      7.644  0.4260E+01  0.5006E+02
      7.838  0.2782E+01  0.5060E+02
      8.031  0.2295E+01  0.5104E+02
      8.224  0.1724E+01  0.5137E+02
      8.418  0.1758E+01  0.5171E+02
      8.611  0.1167E+01  0.5194E+02
      8.805  0.1509E+01  0.5223E+02
      8.998  0.9413E+00  0.5241E+02
      9.191  0.1945E+01  0.5279E+02
      9.385  0.3382E+01  0.5344E+02
      9.578  0.6939E+01  0.5479E+02
      9.772  0.5044E+01  0.5576E+02
      9.965  0.4338E+01  0.5660E+02
     10.158  0.4201E+01  0.5741E+02
     10.352  0.4072E+01  0.5820E+02
     10.545  0.4605E+01  0.5909E+02
     10.739  0.5395E+01  0.6013E+02
     10.932  0.5624E+01  0.6122E+02
     11.125  0.4611E+01  0.6211E+02
     11.319  0.2600E+01  0.6262E+02
     11.512  0.3673E+01  0.6333E+02
     11.705  0.4266E+01  0.6415E+02
     11.899  0.3650E+01  0.6486E+02
     12.092  0.4654E+01  0.6576E+02
     12.286  0.4042E+01  0.6654E+02
     12.479  0.4835E+01  0.6747E+02
     12.672  0.3262E+01  0.6810E+02
     12.866  0.3076E+01  0.6870E+02
     13.059  0.5364E+01  0.6974E+02
     13.253  0.4351E+01  0.7058E+02
     13.446  0.4534E+01  0.7145E+02
     13.639  0.5597E+01  0.7254E+02
     13.833  0.3851E+01  0.7328E+02
     14.026  0.3406E+01  0.7394E+02
     14.220  0.4614E+01  0.7483E+02
     14.413  0.2576E+01  0.7533E+02
     14.606  0.3626E+01  0.7603E+02
     14.800  0.3752E+01  0.7676E+02
     14.993  0.3441E+01  0.7742E+02
     15.187  0.3806E+01  0.7816E+02
     15.380  0.4145E+01  0.7896E+02
     15.573  0.3785E+01  0.7969E+02
     15.767  0.4865E+01  0.8063E+02
     15.960  0.5500E+01  0.8170E+02
     16.154  0.7107E+01  0.8307E+02
     16.347  0.6302E+01  0.8429E+02
     16.540  0.6023E+01  0.8546E+02
     16.734  0.4869E+01  0.8640E+02
     16.927  0.5050E+01  0.8737E+02
     17.120  0.5332E+01  0.8840E+02
     17.314  0.2626E+01  0.8891E+02
     17.507  0.3414E+01  0.8957E+02
     17.701  0.3934E+01  0.9033E+02
     17.894  0.4655E+01  0.9123E+02
     18.087  0.5169E+01  0.9223E+02
     18.281  0.5485E+01  0.9329E+02
     18.474  0.3319E+01  0.9394E+02
     18.668  0.2294E+01  0.9438E+02
     18.861  0.2938E+01  0.9495E+02
     19.054  0.2099E+01  0.9535E+02
     19.248  0.1398E+01  0.9562E+02
     19.441  0.9337E+00  0.9580E+02
     19.635  0.2421E+00  0.9585E+02
     19.828  0.4107E+00  0.9593E+02
     20.021  0.2257E+00  0.9597E+02
     20.215  0.9411E-01  0.9599E+02
     20.408  0.9589E-03  0.9599E+02
     20.602  0.3506E-01  0.9600E+02
     20.795  0.8973E-05  0.9600E+02
     20.988  0.0000E+00  0.9600E+02
     21.182  0.0000E+00  0.9600E+02
     21.375  0.0000E+00  0.9600E+02
     21.568  0.0000E+00  0.9600E+02
     21.762  0.0000E+00  0.9600E+02
     21.955  0.0000E+00  0.9600E+02
     22.149  0.0000E+00  0.9600E+02
     22.342  0.0000E+00  0.9600E+02
     22.535  0.0000E+00  0.9600E+02
     22.729  0.0000E+00  0.9600E+02
     22.922  0.0000E+00  0.9600E+02
     23.116  0.0000E+00  0.9600E+02
