    2    2    1    1
  0.7384556E+02  0.5285890E-09  0.5285890E-09  0.5285890E-09  0.5000000E-15
  1.000000000000000E-004
  CAR 
 K                                       
     18     84     48
 
  0.0000000E+00  0.0000000E+00  0.0000000E+00  0.5787037E-03
      1        -32.264718   1.000000
      2        -32.257530   1.000000
      3        -15.762030   1.000000
      4        -15.762030   1.000000
      5        -15.762030   1.000000
      6        -15.713972   1.000000
      7        -15.713972   1.000000
      8        -15.713972   1.000000
      9         -2.277135   1.000000
     10          1.547410   0.000000
     11          1.547410   0.000000
     12          3.340205   0.000000
     13          3.340205   0.000000
     14          3.340205   0.000000
     15          4.162525   0.000000
     16          4.162525   0.000000
     17          4.162525   0.000000
     18          5.069059   0.000000
     19          5.069059   0.000000
     20          5.364364   0.000000
     21          6.214416   0.000000
     22          6.214416   0.000000
     23          6.214416   0.000000
     24          7.811976   0.000000
     25          7.811976   0.000000
     26          7.811976   0.000000
     27          9.709929   0.000000
     28          9.709929   0.000000
     29          9.874687   0.000000
     30          9.874687   0.000000
     31          9.874687   0.000000
     32         11.074117   0.000000
     33         11.074117   0.000000
     34         12.315847   0.000000
     35         13.463451   0.000000
     36         13.716613   0.000000
     37         13.716613   0.000000
     38         13.716613   0.000000
     39         14.446117   0.000000
     40         14.446117   0.000000
     41         14.446117   0.000000
     42         16.570379   0.000000
     43         16.570379   0.000000
     44         16.570379   0.000000
     45         16.593296   0.000000
     46         18.969992   0.000000
     47         18.969992   0.000000
     48         18.969992   0.000000
 
  0.8333333E-01  0.1208088E-32  0.0000000E+00  0.3472222E-02
      1        -32.264581   1.000000
      2        -32.257641   1.000000
      3        -15.761889   1.000000
      4        -15.761160   1.000000
      5        -15.761160   1.000000
      6        -15.715234   1.000000
      7        -15.714651   1.000000
      8        -15.714651   1.000000
      9         -2.233933   1.000000
     10          1.439739   0.000000
     11          1.581278   0.000000
     12          3.317987   0.000000
     13          3.331217   0.000000
     14          3.331217   0.000000
     15          4.112149   0.000000
     16          4.112149   0.000000
     17          4.188357   0.000000
     18          4.916298   0.000000
     19          5.105405   0.000000
     20          5.563152   0.000000
     21          6.163663   0.000000
     22          6.272622   0.000000
     23          6.272622   0.000000
     24          7.923810   0.000000
     25          7.923810   0.000000
     26          7.941142   0.000000
     27          9.362482   0.000000
     28          9.678755   0.000000
     29          9.695398   0.000000
     30          9.789135   0.000000
     31          9.789135   0.000000
     32         11.181927   0.000000
     33         11.413678   0.000000
     34         12.348846   0.000000
     35         13.665001   0.000000
     36         13.694611   0.000000
     37         13.799839   0.000000
     38         13.799839   0.000000
     39         14.203795   0.000000
     40         14.203795   0.000000
     41         14.220332   0.000000
     42         16.674686   0.000000
     43         16.768811   0.000000
     44         16.768811   0.000000
     45         16.973906   0.000000
     46         18.414444   0.000000
     47         19.059952   0.000000
     48         19.059952   0.000000
 
  0.1666667E+00 -0.1171438E-32  0.0000000E+00  0.3472222E-02
      1        -32.264182   1.000000
      2        -32.257961   1.000000
      3        -15.761236   1.000000
      4        -15.758550   1.000000
      5        -15.758550   1.000000
      6        -15.719538   1.000000
      7        -15.716790   1.000000
      8        -15.716790   1.000000
      9         -2.105395   1.000000
     10          1.127847   0.000000
     11          1.682664   0.000000
     12          3.310181   0.000000
     13          3.310181   0.000000
     14          3.358000   0.000000
     15          3.981088   0.000000
     16          3.981088   0.000000
     17          4.265258   0.000000
     18          4.542785   0.000000
     19          5.210467   0.000000
     20          6.014624   0.000000
     21          6.020469   0.000000
     22          6.440708   0.000000
     23          6.440708   0.000000
     24          8.233311   0.000000
     25          8.233311   0.000000
     26          8.234770   0.000000
     27          8.485857   0.000000
     28          9.557788   0.000000
     29          9.557788   0.000000
     30          9.620870   0.000000
     31          9.652336   0.000000
     32         11.513674   0.000000
     33         11.792437   0.000000
     34         12.440769   0.000000
     35         13.630463   0.000000
     36         13.648298   0.000000
     37         13.648298   0.000000
     38         13.807379   0.000000
     39         14.033645   0.000000
     40         14.033645   0.000000
     41         14.177432   0.000000
     42         16.984842   0.000000
     43         17.158318   0.000000
     44         17.158318   0.000000
     45         17.465740   0.000000
     46         17.837416   0.000000
     47         19.322489   0.000000
     48         19.322489   0.000000
 
  0.2500000E+00  0.1596940E-33  0.0000000E+00  0.3472222E-02
      1        -32.263561   1.000000
      2        -32.258478   1.000000
      3        -15.760115   1.000000
      4        -15.754574   1.000000
      5        -15.754574   1.000000
      6        -15.726124   1.000000
      7        -15.720455   1.000000
      8        -15.720455   1.000000
      9         -1.894252   1.000000
     10          0.675017   0.000000
     11          1.850821   0.000000
     12          3.291305   0.000000
     13          3.291305   0.000000
     14          3.556133   0.000000
     15          3.811919   0.000000
     16          3.811919   0.000000
     17          4.078580   0.000000
     18          4.391175   0.000000
     19          5.368953   0.000000
     20          5.807709   0.000000
     21          6.466537   0.000000
     22          6.701712   0.000000
     23          6.701712   0.000000
     24          7.597620   0.000000
     25          8.550765   0.000000
     26          8.652942   0.000000
     27          8.652942   0.000000
     28          9.267123   0.000000
     29          9.267123   0.000000
     30          9.581913   0.000000
     31          9.653960   0.000000
     32         11.995596   0.000000
     33         12.079084   0.000000
     34         12.575036   0.000000
     35         12.968370   0.000000
     36         12.968370   0.000000
     37         13.438608   0.000000
     38         13.529023   0.000000
     39         14.387807   0.000000
     40         14.387807   0.000000
     41         14.470937   0.000000
     42         16.972767   0.000000
     43         17.401120   0.000000
     44         17.401120   0.000000
     45         17.492061   0.000000
     46         18.905016   0.000000
     47         18.958338   0.000000
     48         19.735699   0.000000
 
  0.3333333E+00 -0.1108121E-31  0.0000000E+00  0.3472222E-02
      1        -32.262759   1.000000
      2        -32.259172   1.000000
      3        -15.757629   1.000000
      4        -15.749382   1.000000
      5        -15.749382   1.000000
      6        -15.733623   1.000000
      7        -15.725185   1.000000
      8        -15.725185   1.000000
      9         -1.604857   1.000000
     10          0.165663   0.000000
     11          2.084420   0.000000
     12          3.290415   0.000000
     13          3.290415   0.000000
     14          3.600982   0.000000
     15          3.642567   0.000000
     16          3.642567   0.000000
     17          3.906699   0.000000
     18          4.562779   0.000000
     19          5.526248   0.000000
     20          5.553368   0.000000
     21          6.701909   0.000000
     22          6.815187   0.000000
     23          7.035829   0.000000
     24          7.035829   0.000000
     25          8.672484   0.000000
     26          8.672484   0.000000
     27          8.821956   0.000000
     28          9.426617   0.000000
     29          9.426617   0.000000
     30          9.485779   0.000000
     31          9.950592   0.000000
     32         12.070783   0.000000
     33         12.239414   0.000000
     34         12.239414   0.000000
     35         12.734259   0.000000
     36         12.864852   0.000000
     37         13.163889   0.000000
     38         13.397721   0.000000
     39         13.946354   0.000000
     40         14.839155   0.000000
     41         14.839155   0.000000
     42         17.190790   0.000000
     43         17.190790   0.000000
     44         17.506105   0.000000
     45         17.539913   0.000000
     46         18.181637   0.000000
     47         19.985505   0.000000
     48         20.047179   0.000000
 
  0.4166667E+00  0.1764124E-31  0.0000000E+00  0.3472222E-02
      1        -32.261856   1.000000
      2        -32.259998   1.000000
      3        -15.753739   1.000000
      4        -15.743424   1.000000
      5        -15.743424   1.000000
      6        -15.741397   1.000000
      7        -15.730893   1.000000
      8        -15.730893   1.000000
      9         -1.243591   1.000000
     10         -0.342989   1.000000
     11          2.381237   0.000000
     12          3.147672   0.000000
     13          3.320180   0.000000
     14          3.320180   0.000000
     15          3.497174   0.000000
     16          3.497174   0.000000
     17          4.380077   0.000000
     18          4.774453   0.000000
     19          5.283268   0.000000
     20          5.437454   0.000000
     21          6.392896   0.000000
     22          6.662259   0.000000
     23          7.423137   0.000000
     24          7.423137   0.000000
     25          8.277059   0.000000
     26          8.277059   0.000000
     27          9.040649   0.000000
     28          9.364912   0.000000
     29         10.049634   0.000000
     30         10.049634   0.000000
     31         10.564058   0.000000
     32         11.494399   0.000000
     33         11.494399   0.000000
     34         11.928695   0.000000
     35         12.904998   0.000000
     36         12.986117   0.000000
     37         13.225488   0.000000
     38         13.244501   0.000000
     39         13.836268   0.000000
     40         15.374698   0.000000
     41         15.374698   0.000000
     42         16.198518   0.000000
     43         16.626003   0.000000
     44         16.626003   0.000000
     45         18.495267   0.000000
     46         19.034709   0.000000
     47         20.118884   0.000000
     48         20.478441   0.000000
 
  0.5000000E+00  0.3193880E-33  0.0000000E+00  0.1736111E-02
      1        -32.260916   1.000000
      2        -32.260916   1.000000
      3        -15.748360   1.000000
      4        -15.748360   1.000000
      5        -15.737180   1.000000
      6        -15.737180   1.000000
      7        -15.737180   1.000000
      8        -15.737180   1.000000
      9         -0.818960   1.000000
     10         -0.818960   1.000000
     11          2.737635   0.000000
     12          2.737635   0.000000
     13          3.388320   0.000000
     14          3.388320   0.000000
     15          3.388320   0.000000
     16          3.388320   0.000000
     17          4.935642   0.000000
     18          4.935642   0.000000
     19          5.018364   0.000000
     20          5.018364   0.000000
     21          6.479639   0.000000
     22          6.479639   0.000000
     23          7.844258   0.000000
     24          7.844258   0.000000
     25          7.844258   0.000000
     26          7.844258   0.000000
     27          9.218176   0.000000
     28          9.218176   0.000000
     29         10.756140   0.000000
     30         10.756140   0.000000
     31         10.756140   0.000000
     32         10.756140   0.000000
     33         11.338451   0.000000
     34         11.338451   0.000000
     35         12.939986   0.000000
     36         12.939986   0.000000
     37         13.077666   0.000000
     38         13.077666   0.000000
     39         14.956871   0.000000
     40         14.956871   0.000000
     41         15.981894   0.000000
     42         15.981894   0.000000
     43         15.981894   0.000000
     44         15.981894   0.000000
     45         19.447906   0.000000
     46         19.447906   0.000000
     47         20.030949   0.000000
     48         20.030949   0.000000
 
  0.8333333E-01  0.8333333E-01  0.0000000E+00  0.6944444E-02
      1        -32.264450   1.000000
      2        -32.257745   1.000000
      3        -15.763254   1.000000
      4        -15.760305   1.000000
      5        -15.758732   1.000000
      6        -15.718213   1.000000
      7        -15.715258   1.000000
      8        -15.713759   1.000000
      9         -2.190923   1.000000
     10          1.420578   0.000000
     11          1.533859   0.000000
     12          3.099801   0.000000
     13          3.321419   0.000000
     14          3.551761   0.000000
     15          4.032697   0.000000
     16          4.049382   0.000000
     17          4.231034   0.000000
     18          4.911919   0.000000
     19          5.046112   0.000000
     20          5.685861   0.000000
     21          6.211243   0.000000
     22          6.232760   0.000000
     23          6.364151   0.000000
     24          7.920968   0.000000
     25          8.030852   0.000000
     26          8.126324   0.000000
     27          9.288637   0.000000
     28          9.401130   0.000000
     29          9.657576   0.000000
     30          9.672286   0.000000
     31          9.704149   0.000000
     32         11.340402   0.000000
     33         11.660681   0.000000
     34         12.365979   0.000000
     35         13.500554   0.000000
     36         13.586890   0.000000
     37         13.740114   0.000000
     38         13.817673   0.000000
     39         14.065538   0.000000
     40         14.194907   0.000000
     41         14.643746   0.000000
     42         16.473391   0.000000
     43         16.499771   0.000000
     44         17.187650   0.000000
     45         17.547128   0.000000
     46         18.394028   0.000000
     47         18.597400   0.000000
     48         19.146524   0.000000
 
  0.1666667E+00  0.8333333E-01  0.0000000E+00  0.1388889E-01
      1        -32.264063   1.000000
      2        -32.258053   1.000000
      3        -15.763974   1.000000
      4        -15.757752   1.000000
      5        -15.755127   1.000000
      6        -15.723661   1.000000
      7        -15.717446   1.000000
      8        -15.714747   1.000000
      9         -2.062916   1.000000
     10          1.152017   0.000000
     11          1.598199   0.000000
     12          3.007161   0.000000
     13          3.298129   0.000000
     14          3.719463   0.000000
     15          3.830776   0.000000
     16          3.918040   0.000000
     17          4.318622   0.000000
     18          4.661669   0.000000
     19          5.141575   0.000000
     20          5.972982   0.000000
     21          6.077901   0.000000
     22          6.391480   0.000000
     23          6.625848   0.000000
     24          8.053466   0.000000
     25          8.281250   0.000000
     26          8.328810   0.000000
     27          8.701931   0.000000
     28          9.299902   0.000000
     29          9.473877   0.000000
     30          9.605096   0.000000
     31          9.627859   0.000000
     32         11.593335   0.000000
     33         12.066201   0.000000
     34         12.399789   0.000000
     35         12.976707   0.000000
     36         13.568381   0.000000
     37         13.693338   0.000000
     38         13.700068   0.000000
     39         14.033202   0.000000
     40         14.536927   0.000000
     41         14.798947   0.000000
     42         16.528681   0.000000
     43         16.726972   0.000000
     44         17.511256   0.000000
     45         17.711615   0.000000
     46         18.305833   0.000000
     47         18.725723   0.000000
     48         19.399497   0.000000
 
  0.2500000E+00  0.8333333E-01  0.0000000E+00  0.1388889E-01
      1        -32.263461   1.000000
      2        -32.258551   1.000000
      3        -15.763535   1.000000
      4        -15.753913   1.000000
      5        -15.750507   1.000000
      6        -15.730782   1.000000
      7        -15.720981   1.000000
      8        -15.717547   1.000000
      9         -1.852591   1.000000
     10          0.707062   0.000000
     11          1.752139   0.000000
     12          3.065658   0.000000
     13          3.275910   0.000000
     14          3.556749   0.000000
     15          3.756783   0.000000
     16          3.883155   0.000000
     17          4.313468   0.000000
     18          4.448559   0.000000
     19          5.321368   0.000000
     20          5.865890   0.000000
     21          6.289761   0.000000
     22          6.651965   0.000000
     23          6.964048   0.000000
     24          7.521103   0.000000
     25          8.364578   0.000000
     26          8.727046   0.000000
     27          8.823751   0.000000
     28          9.191318   0.000000
     29          9.261173   0.000000
     30          9.557338   0.000000
     31          9.649410   0.000000
     32         12.060097   0.000000
     33         12.271443   0.000000
     34         12.364512   0.000000
     35         12.415757   0.000000
     36         13.251792   0.000000
     37         13.607031   0.000000
     38         13.798168   0.000000
     39         14.105146   0.000000
     40         14.388183   0.000000
     41         15.231185   0.000000
     42         16.795029   0.000000
     43         16.994662   0.000000
     44         17.131556   0.000000
     45         18.099381   0.000000
     46         18.692319   0.000000
     47         19.042222   0.000000
     48         19.285871   0.000000
 
  0.3333333E+00  0.8333333E-01  0.0000000E+00  0.1388889E-01
      1        -32.262688   1.000000
      2        -32.259218   1.000000
      3        -15.761667   1.000000
      4        -15.748926   1.000000
      5        -15.745036   1.000000
      6        -15.738657   1.000000
      7        -15.725604   1.000000
      8        -15.721738   1.000000
      9         -1.564341   1.000000
     10          0.199997   0.000000
     11          1.967642   0.000000
     12          3.197948   0.000000
     13          3.236991   0.000000
     14          3.270813   0.000000
     15          3.596590   0.000000
     16          3.985845   0.000000
     17          4.129794   0.000000
     18          4.621617   0.000000
     19          5.496764   0.000000
     20          5.612089   0.000000
     21          6.544177   0.000000
     22          6.792664   0.000000
     23          6.985093   0.000000
     24          7.221426   0.000000
     25          8.379289   0.000000
     26          8.635485   0.000000
     27          8.950132   0.000000
     28          9.446621   0.000000
     29          9.466597   0.000000
     30          9.546678   0.000000
     31          9.964956   0.000000
     32         11.874072   0.000000
     33         12.031750   0.000000
     34         12.326852   0.000000
     35         12.766452   0.000000
     36         13.043822   0.000000
     37         13.485962   0.000000
     38         13.655215   0.000000
     39         13.694836   0.000000
     40         14.840920   0.000000
     41         15.275545   0.000000
     42         16.842256   0.000000
     43         16.937787   0.000000
     44         17.555784   0.000000
     45         17.947509   0.000000
     46         18.290668   0.000000
     47         18.974696   0.000000
     48         19.417974   0.000000
 
  0.4166667E+00  0.8333333E-01  0.0000000E+00  0.1388889E-01
      1        -32.261812   1.000000
      2        -32.260015   1.000000
      3        -15.758194   1.000000
      4        -15.746404   1.000000
      5        -15.743169   1.000000
      6        -15.739041   1.000000
      7        -15.731085   1.000000
      8        -15.726969   1.000000
      9         -1.204449   1.000000
     10         -0.307043   0.999999
     11          2.237207   0.000000
     12          2.892517   0.000000
     13          3.295549   0.000000
     14          3.347358   0.000000
     15          3.459523   0.000000
     16          3.719486   0.000000
     17          4.508410   0.000000
     18          4.833836   0.000000
     19          5.342428   0.000000
     20          5.441647   0.000000
     21          6.385973   0.000000
     22          6.600954   0.000000
     23          7.370959   0.000000
     24          7.454096   0.000000
     25          8.121790   0.000000
     26          8.224197   0.000000
     27          9.086017   0.000000
     28          9.355708   0.000000
     29         10.066144   0.000000
     30         10.072581   0.000000
     31         10.583472   0.000000
     32         11.330537   0.000000
     33         11.425287   0.000000
     34         12.158232   0.000000
     35         13.087483   0.000000
     36         13.101611   0.000000
     37         13.295492   0.000000
     38         13.348578   0.000000
     39         13.779503   0.000000
     40         15.374511   0.000000
     41         15.664848   0.000000
     42         15.869142   0.000000
     43         16.566100   0.000000
     44         17.064140   0.000000
     45         18.502361   0.000000
     46         18.821442   0.000000
     47         19.218351   0.000000
     48         19.800923   0.000000
 
  0.5000000E+00  0.8333333E-01  0.0000000E+00  0.6944444E-02
      1        -32.260899   1.000000
      2        -32.260899   1.000000
      3        -15.753095   1.000000
      4        -15.753095   1.000000
      5        -15.737125   1.000000
      6        -15.737125   1.000000
      7        -15.732921   1.000000
      8        -15.732921   1.000000
      9         -0.781383   1.000000
     10         -0.781383   1.000000
     11          2.550943   0.000000
     12          2.550943   0.000000
     13          3.357743   0.000000
     14          3.357743   0.000000
     15          3.513401   0.000000
     16          3.513401   0.000000
     17          4.995456   0.000000
     18          4.995456   0.000000
     19          5.077802   0.000000
     20          5.077802   0.000000
     21          6.459823   0.000000
     22          6.459823   0.000000
     23          7.775918   0.000000
     24          7.775918   0.000000
     25          7.790765   0.000000
     26          7.790765   0.000000
     27          9.227623   0.000000
     28          9.227623   0.000000
     29         10.648153   0.000000
     30         10.648153   0.000000
     31         10.743807   0.000000
     32         10.743807   0.000000
     33         11.487826   0.000000
     34         11.487826   0.000000
     35         13.072167   0.000000
     36         13.072167   0.000000
     37         13.208560   0.000000
     38         13.208560   0.000000
     39         14.779617   0.000000
     40         14.779617   0.000000
     41         15.969527   0.000000
     42         15.969527   0.000000
     43         16.293165   0.000000
     44         16.293165   0.000000
     45         19.180005   0.000000
     46         19.180005   0.000000
     47         19.663534   0.000000
     48         19.663534   0.000000
 
  0.1666667E+00  0.1666667E+00  0.0000000E+00  0.6944444E-02
      1        -32.263712   1.000000
      2        -32.258324   1.000000
      3        -15.766613   1.000000
      4        -15.755526   1.000000
      5        -15.750059   1.000000
      6        -15.730602   1.000000
      7        -15.719393   1.000000
      8        -15.713760   1.000000
      9         -1.936400   1.000000
     10          1.161931   0.000000
     11          1.384335   0.000000
     12          2.881932   0.000000
     13          3.268632   0.000000
     14          3.530701   0.000000
     15          3.784770   0.000000
     16          4.046433   0.000000
     17          4.434059   0.000000
     18          4.824877   0.000000
     19          5.010040   0.000000
     20          5.998158   0.000000
     21          6.211436   0.000000
     22          6.283808   0.000000
     23          6.991651   0.000000
     24          7.938981   0.000000
     25          8.006909   0.000000
     26          8.599047   0.000000
     27          9.033895   0.000000
     28          9.084281   0.000000
     29          9.244277   0.000000
     30          9.560577   0.000000
     31          9.590292   0.000000
     32         11.727979   0.000000
     33         12.285863   0.000000
     34         12.343561   0.000000
     35         12.624075   0.000000
     36         13.284487   0.000000
     37         13.751486   0.000000
     38         13.819666   0.000000
     39         14.106479   0.000000
     40         15.181331   0.000000
     41         15.577966   0.000000
     42         16.218411   0.000000
     43         16.300362   0.000000
     44         17.578480   0.000000
     45         17.759760   0.000000
     46         18.321657   0.000000
     47         18.916973   0.000000
     48         18.939972   0.000000
 
  0.2500000E+00  0.1666667E+00  0.0000000E+00  0.1388889E-01
      1        -32.263166   1.000000
      2        -32.258766   1.000000
      3        -15.767933   1.000000
      4        -15.752057   1.000000
      5        -15.744354   1.000000
      6        -15.738752   1.000000
      7        -15.722532   1.000000
      8        -15.714708   1.000000
      9         -1.728519   1.000000
     10          0.800886   0.000000
     11          1.442059   0.000000
     12          2.967396   0.000000
     13          3.187972   0.000000
     14          3.237403   0.000000
     15          3.632629   0.000000
     16          4.293471   0.000000
     17          4.585706   0.000000
     18          4.628661   0.000000
     19          5.183787   0.000000
     20          6.030607   0.000000
     21          6.149033   0.000000
     22          6.512476   0.000000
     23          7.318640   0.000000
     24          7.371335   0.000000
     25          7.894035   0.000000
     26          8.859923   0.000000
     27          9.062669   0.000000
     28          9.140309   0.000000
     29          9.411268   0.000000
     30          9.520402   0.000000
     31          9.648028   0.000000
     32         11.828361   0.000000
     33         11.982845   0.000000
     34         12.088414   0.000000
     35         12.880070   0.000000
     36         13.470089   0.000000
     37         13.705830   0.000000
     38         13.804431   0.000000
     39         14.410350   0.000000
     40         15.022853   0.000000
     41         16.095609   0.000000
     42         16.232653   0.000000
     43         16.619046   0.000000
     44         17.085136   0.000000
     45         17.892311   0.000000
     46         17.911970   0.000000
     47         18.640506   0.000000
     48         19.160844   0.000000
 
  0.3333333E+00  0.1666667E+00  0.0000000E+00  0.1388889E-01
      1        -32.262468   1.000000
      2        -32.259359   1.000000
      3        -15.767587   1.000000
      4        -15.747566   1.000000
      5        -15.747032   1.000000
      6        -15.738329   1.000000
      7        -15.726663   1.000000
      8        -15.717371   1.000000
      9         -1.443665   1.000000
     10          0.301662   0.000000
     11          1.634273   0.000000
     12          2.835829   0.000000
     13          3.180532   0.000000
     14          3.221339   0.000000
     15          3.487814   0.000000
     16          4.333975   0.000000
     17          4.516709   0.000000
     18          4.772371   0.000000
     19          5.406496   0.000000
     20          5.778155   0.000000
     21          6.355618   0.000000
     22          6.738433   0.000000
     23          6.841118   0.000000
     24          7.435198   0.000000
     25          7.812355   0.000000
     26          8.490426   0.000000
     27          9.282852   0.000000
     28          9.461639   0.000000
     29          9.552667   0.000000
     30          9.745119   0.000000
     31         10.021063   0.000000
     32         11.404041   0.000000
     33         11.762945   0.000000
     34         12.352153   0.000000
     35         12.960479   0.000000
     36         13.599038   0.000000
     37         13.670958   0.000000
     38         13.725012   0.000000
     39         14.475351   0.000000
     40         14.854937   0.000000
     41         15.885901   0.000000
     42         16.435580   0.000000
     43         16.492639   0.000000
     44         17.707220   0.000000
     45         17.773007   0.000000
     46         18.184079   0.000000
     47         18.445638   0.000000
     48         18.496264   0.000000
 
  0.4166667E+00  0.1666667E+00  0.0000000E+00  0.1388889E-01
      1        -32.261678   1.000000
      2        -32.260070   1.000000
      3        -15.765374   1.000000
      4        -15.754732   1.000000
      5        -15.742418   1.000000
      6        -15.732359   1.000000
      7        -15.731559   1.000000
      8        -15.721480   1.000000