V                                       
   1.00000000000000     
     2.998940    0.000000    0.000000
     0.000000    2.998940    0.000000
     0.000000    0.000000    2.998940
   V 
     2
Direct
  0.000000  0.000000  0.000000
  0.500000  0.500000  0.500000
 
   28   28   28
  394.98      381.53      342.08      280.80      207.27      135.21      77.131      39.070      19.334      11.454    
  8.4620      7.1647      6.6320      6.4097      6.3433      6.4097      6.6320      7.1647      8.4620      11.454    
  19.334      39.070      77.131      135.21      207.27      280.80      342.08      381.53      381.53      368.34    
  329.74      270.06      198.81      129.32      73.609      37.326      18.667      11.264      8.3987      7.1484    
  6.6328      6.4170      6.3527      6.4170      6.6328      7.1484      8.3987      11.264      18.667      37.326    
  73.609      129.32      198.81      270.06      329.74      368.34      342.08      329.74      293.92      239.18    
  174.73      112.76      63.836      32.574      16.892      10.753      8.2224      7.1027      6.6347      6.4376    
  6.3789      6.4376      6.6347      7.1027      8.2224      10.753      16.892      32.574      63.836      112.76    
  174.73      239.18      293.92      329.74      280.80      270.06      239.18      192.78      139.23      88.856    
  50.091      26.124      14.588      10.038      7.9688      7.0357      6.6372      6.4676      6.4174      6.4676    
  6.6372      7.0357      7.9688      10.038      14.588      26.124      50.091      88.856      139.23      192.78    
  239.18      270.06      207.27      198.81      174.73      139.23      99.238      62.718      35.641      19.704    
  12.399      9.2481      7.6837      6.9581      6.6387      6.5011      6.4606      6.5011      6.6387      6.9581    
  7.6837      9.2481      12.399      19.704      35.641      62.718      99.238      139.23      174.73      198.81    
  135.21      129.32      112.76      88.856      62.718      39.770      23.630      14.723      10.631      8.5065    
  7.4089      6.8796      6.6372      6.5310      6.5001      6.5310      6.6372      6.8796      7.4089      8.5065    
  10.631      14.723      23.630      39.770      62.718      88.856      112.76      129.32      77.131      73.609    
  63.836      50.091      35.641      23.630      15.749      11.555      9.2288      7.8916      7.1720      6.8064    
  6.6301      6.5507      6.5276      6.5507      6.6301      6.8064      7.1720      7.8916      9.2288      11.555    
  15.749      23.630      35.641      50.091      63.836      73.609      39.070      37.326      32.574      26.124    
  19.704      14.723      11.555      9.5193      8.2111      7.4284      6.9832      6.7408      6.6150      6.5552    
  6.5374      6.5552      6.6150      6.7408      6.9832      7.4284      8.2111      9.5193      11.555      14.723    
  19.704      26.124      32.574      37.326      19.334      18.667      16.892      14.588      12.399      10.631    
  9.2288      8.2111      7.5315      7.1018      6.8387      6.6811      6.5899      6.5424      6.5276      6.5424    
  6.5899      6.6811      6.8387      7.1018      7.5315      8.2111      9.2288      10.631      12.399      14.588    
  16.892      18.667      11.454      11.264      10.753      10.038      9.2481      8.5065      7.8916      7.4284    
  7.1018      6.8791      6.7276      6.6239      6.5545      6.5137      6.5001      6.5137      6.5545      6.6239    
  6.7276      6.8791      7.1018      7.4284      7.8916      8.5065      9.2481      10.038      10.753      11.264    
  8.4620      8.3987      8.2224      7.9688      7.6837      7.4089      7.1720      6.9832      6.8387      6.7276    
  6.6393      6.5671      6.5107      6.4736      6.4606      6.4736      6.5107      6.5671      6.6393      6.7276    
  6.8387      6.9832      7.1720      7.4089      7.6837      7.9688      8.2224      8.3987      7.1647      7.1484    
  7.1027      7.0357      6.9581      6.8796      6.8064      6.7408      6.6811      6.6239      6.5671      6.5119    
  6.4634      6.4296      6.4174      6.4296      6.4634      6.5119      6.5671      6.6239      6.6811      6.7408    
  6.8064      6.8796      6.9581      7.0357      7.1027      7.1484      6.6320      6.6328      6.6347      6.6372    
  6.6387      6.6372      6.6301      6.6150      6.5899      6.5545      6.5107      6.4634      6.4203      6.3899    
  6.3789      6.3899      6.4203      6.4634      6.5107      6.5545      6.5899      6.6150      6.6301      6.6372    
  6.6387      6.6372      6.6347      6.6328      6.4097      6.4170      6.4376      6.4676      6.5011      6.5310    
  6.5507      6.5552      6.5424      6.5137      6.4736      6.4296      6.3899      6.3625      6.3527      6.3625    
  6.3899      6.4296      6.4736      6.5137      6.5424      6.5552      6.5507      6.5310      6.5011      6.4676    
  6.4376      6.4170      6.3433      6.3527      6.3789      6.4174      6.4606      6.5001      6.5276      6.5374    
  6.5276      6.5001      6.4606      6.4174      6.3789      6.3527      6.3433      6.3527      6.3789      6.4174    
  6.4606      6.5001      6.5276      6.5374      6.5276      6.5001      6.4606      6.4174      6.3789      6.3527    
  6.4097      6.4170      6.4376      6.4676      6.5011      6.5310      6.5507      6.5552      6.5424      6.5137    
  6.4736      6.4296      6.3899      6.3625      6.3527      6.3625      6.3899      6.4296      6.4736      6.5137    
  6.5424      6.5552      6.5507      6.5310      6.5011      6.4676      6.4376      6.4170      6.6320      6.6328    
  6.6347      6.6372      6.6387      6.6372      6.6301      6.6150      6.5899      6.5545      6.5107      6.4634    
  6.4203      6.3899      6.3789      6.3899      6.4203      6.4634      6.5107      6.5545      6.5899      6.6150    
  6.6301      6.6372      6.6387      6.6372      6.6347      6.6328      7.1647      7.1484      7.1027      7.0357    
  6.9581      6.8796      6.8064      6.7408      6.6811      6.6239      6.5671      6.5119      6.4634      6.4296    
  6.4174      6.4296      6.4634      6.5119      6.5671      6.6239      6.6811      6.7408      6.8064      6.8796    
  6.9581      7.0357      7.1027      7.1484      8.4620      8.3987      8.2224      7.9688      7.6837      7.4089    
  7.1720      6.9832      6.8387      6.7276      6.6393      6.5671      6.5107      6.4736      6.4606      6.4736    
  6.5107      6.5671      6.6393      6.7276      6.8387      6.9832      7.1720      7.4089      7.6837      7.9688    
  8.2224      8.3987      11.454      11.264      10.753      10.038      9.2481      8.5065      7.8916      7.4284    
  7.1018      6.8791      6.7276      6.6239      6.5545      6.5137      6.5001      6.5137      6.5545      6.6239    
  6.7276      6.8791      7.1018      7.4284      7.8916      8.5065      9.2481      10.038      10.753      11.264    
  19.334      18.667      16.892      14.588      12.399      10.631      9.2288      8.2111      7.5315      7.1018    
  6.8387      6.6811      6.5899      6.5424      6.5276      6.5424      6.5899      6.6811      6.8387      7.1018    
  7.5315      8.2111      9.2288      10.631      12.399      14.588      16.892      18.667      39.070      37.326    
  32.574      26.124      19.704      14.723      11.555      9.5193      8.2111      7.4284      6.9832      6.7408    
  6.6150      6.5552      6.5374      6.5552      6.6150      6.7408      6.9832      7.4284      8.2111      9.5193    
  11.555      14.723      19.704      26.124      32.574      37.326      77.131      73.609      63.836      50.091    
  35.641      23.630      15.749      11.555      9.2288      7.8916      7.1720      6.8064      6.6301      6.5507    
  6.5276      6.5507      6.6301      6.8064      7.1720      7.8916      9.2288      11.555      15.749      23.630    
  35.641      50.091      63.836      73.609      135.21      129.32      112.76      88.856      62.718      39.770    
  23.630      14.723      10.631      8.5065      7.4089      6.8796      6.6372      6.5310      6.5001      6.5310    
  6.6372      6.8796      7.4089      8.5065      10.631      14.723      23.630      39.770      62.718      88.856    
  112.76      129.32      207.27      198.81      174.73      139.23      99.238      62.718      35.641      19.704    
  12.399      9.2481      7.6837      6.9581      6.6387      6.5011      6.4606      6.5011      6.6387      6.9581    
  7.6837      9.2481      12.399      19.704      35.641      62.718      99.238      139.23      174.73      198.81    
  280.80      270.06      239.18      192.78      139.23      88.856      50.091      26.124      14.588      10.038    
  7.9688      7.0357      6.6372      6.4676      6.4174      6.4676      6.6372      7.0357      7.9688      10.038    
  14.588      26.124      50.091      88.856      139.23      192.78      239.18      270.06      342.08      329.74    
  293.92      239.18      174.73      112.76      63.836      32.574      16.892      10.753      8.2224      7.1027    
  6.6347      6.4376      6.3789      6.4376      6.6347      7.1027      8.2224      10.753      16.892      32.574    
  63.836      112.76      174.73      239.18      293.92      329.74      381.53      368.34      329.74      270.06    
  198.81      129.32      73.609      37.326      18.667      11.264      8.3987      7.1484      6.6328      6.4170    
  6.3527      6.4170      6.6328      7.1484      8.3987      11.264      18.667      37.326      73.609      129.32    
  198.81      270.06      329.74      368.34      381.53      368.34      329.74      270.06      198.81      129.32    
  73.609      37.326      18.667      11.264      8.3987      7.1484      6.6328      6.4170      6.3527      6.4170    
  6.6328      7.1484      8.3987      11.264      18.667      37.326      73.609      129.32      198.81      270.06    
  329.74      368.34      368.34      355.41      317.69      259.60      190.60      123.64      70.230      35.668    
  18.041      11.086      8.3388      7.1336      6.6343      6.4249      6.3625      6.4249      6.6343      7.1336    
  8.3388      11.086      18.041      35.668      70.230      123.64      190.60      259.60      317.69      355.41    
  329.74      317.69      282.76      229.60      167.30      107.69      60.871      31.156      16.377      10.603    
  8.1717      7.0917      6.6383      6.4468      6.3899      6.4468      6.6383      7.0917      8.1717      10.603    
  16.377      31.156      60.871      107.69      167.30      229.60      282.76      317.69      270.06      259.60    
  229.60      184.68      133.06      84.732      47.754      25.057      14.223      9.9201      7.9306      7.0297    
  6.6432      6.4783      6.4296      6.4783      6.6432      7.0297      7.9306      9.9201      14.223      25.057    
  47.754      84.732      133.06      184.68      229.60      259.60      198.81      190.60      167.30      133.06    
  94.647      59.746      34.033      19.020      12.174      9.1639      7.6583      6.9569      6.6468      6.5130    
  6.4736      6.5130      6.6468      6.9569      7.6583      9.1639      12.174      19.020      34.033      59.746    
  94.647      133.06      167.30      190.60      129.32      123.64      107.69      84.732      59.746      37.934    
  22.703      14.359      10.493      8.4526      7.3949      6.8825      6.6470      6.5438      6.5137      6.5438    
  6.6470      6.8825      7.3949      8.4526      10.493      14.359      22.703      37.934      59.746      84.732    
  107.69      123.64      73.609      70.230      60.871      47.754      34.033      22.703      15.321      11.380    
  9.1479      7.8617      7.1673      6.8132      6.6420      6.5648      6.5424      6.5648      6.6420      6.8132    
  7.1673      7.8617      9.1479      11.380      15.321      22.703      34.033      47.754      60.871      70.230    
  37.326      35.668      31.156      25.057      19.020      14.359      11.380      9.4272      8.1700      7.4161    
  6.9863      6.7518      6.6301      6.5723      6.5552      6.5723      6.6301      6.7518      6.9863      7.4161    
  8.1700      9.4272      11.380      14.359      19.020      25.057      31.156      35.668      18.667      18.041    
  16.377      14.223      12.174      10.493      9.1479      8.1700      7.5160      7.1022      6.8489      6.6975    
  6.6102      6.5648      6.5507      6.5648      6.6102      6.6975      6.8489      7.1022      7.5160      8.1700    
  9.1479      10.493      12.174      14.223      16.377      18.041      11.264      11.086      10.603      9.9201    
  9.1639      8.4526      7.8617      7.4161      7.1022      6.8889      6.7450      6.6471      6.5820      6.5438    
  6.5310      6.5438      6.5820      6.6471      6.7450      6.8889      7.1022      7.4161      7.8617      8.4526    
  9.1639      9.9201      10.603      11.086      8.3987      8.3388      8.1717      7.9306      7.6583      7.3949    
  7.1673      6.9863      6.8489      6.7450      6.6636      6.5980      6.5467      6.5130      6.5011      6.5130    
  6.5467      6.5980      6.6636      6.7450      6.8489      6.9863      7.1673      7.3949      7.6583      7.9306    
  8.1717      8.3388      7.1484      7.1336      7.0917      7.0297      6.9569      6.8825      6.8132      6.7518    
  6.6975      6.6471      6.5980      6.5502      6.5080      6.4783      6.4676      6.4783      6.5080      6.5502    
  6.5980      6.6471      6.6975      6.7518      6.8132      6.8825      6.9569      7.0297      7.0917      7.1336    
  6.6328      6.6343      6.6383      6.6432      6.6468      6.6470      6.6420      6.6301      6.6102      6.5820    
  6.5467      6.5080      6.4723      6.4468      6.4376      6.4468      6.4723      6.5080      6.5467      6.5820    
  6.6102      6.6301      6.6420      6.6470      6.6468      6.6432      6.6383      6.6343      6.4170      6.4249    
  6.4468      6.4783      6.5130      6.5438      6.5648      6.5723      6.5648      6.5438      6.5130      6.4783    
  6.4468      6.4249      6.4170      6.4249      6.4468      6.4783      6.5130      6.5438      6.5648      6.5723    
  6.5648      6.5438      6.5130      6.4783      6.4468      6.4249      6.3527      6.3625      6.3899      6.4296    
  6.4736      6.5137      6.5424      6.5552      6.5507      6.5310      6.5011      6.4676      6.4376      6.4170    
  6.4097      6.4170      6.4376      6.4676      6.5011      6.5310      6.5507      6.5552      6.5424      6.5137    
  6.4736      6.4296      6.3899      6.3625      6.4170      6.4249      6.4468      6.4783      6.5130      6.5438    
  6.5648      6.5723      6.5648      6.5438      6.5130      6.4783      6.4468      6.4249      6.4170      6.4249    
  6.4468      6.4783      6.5130      6.5438      6.5648      6.5723      6.5648      6.5438      6.5130      6.4783    
  6.4468      6.4249      6.6328      6.6343      6.6383      6.6432      6.6468      6.6470      6.6420      6.6301    
  6.6102      6.5820      6.5467      6.5080      6.4723      6.4468      6.4376      6.4468      6.4723      6.5080    
  6.5467      6.5820      6.6102      6.6301      6.6420      6.6470      6.6468      6.6432      6.6383      6.6343    
  7.1484      7.1336      7.0917      7.0297      6.9569      6.8825      6.8132      6.7518      6.6975      6.6471    
  6.5980      6.5502      6.5080      6.4783      6.4676      6.4783      6.5080      6.5502      6.5980      6.6471    
  6.6975      6.7518      6.8132      6.8825      6.9569      7.0297      7.0917      7.1336      8.3987      8.3388    
  8.1717      7.9306      7.6583      7.3949      7.1673      6.9863      6.8489      6.7450      6.6636      6.5980    
  6.5467      6.5130      6.5011      6.5130      6.5467      6.5980      6.6636      6.7450      6.8489      6.9863    
  7.1673      7.3949      7.6583      7.9306      8.1717      8.3388      11.264      11.086      10.603      9.9201    
  9.1639      8.4526      7.8617      7.4161      7.1022      6.8889      6.7450      6.6471      6.5820      6.5438    
  6.5310      6.5438      6.5820      6.6471      6.7450      6.8889      7.1022      7.4161      7.8617      8.4526    
  9.1639      9.9201      10.603      11.086      18.667      18.041      16.377      14.223      12.174      10.493    
  9.1479      8.1700      7.5160      7.1022      6.8489      6.6975      6.6102      6.5648      6.5507      6.5648    
  6.6102      6.6975      6.8489      7.1022      7.5160      8.1700      9.1479      10.493      12.174      14.223    
  16.377      18.041      37.326      35.668      31.156      25.057      19.020      14.359      11.380      9.4272    
  8.1700      7.4161      6.9863      6.7518      6.6301      6.5723      6.5552      6.5723      6.6301      6.7518    
  6.9863      7.4161      8.1700      9.4272      11.380      14.359      19.020      25.057      31.156      35.668    
  73.609      70.230      60.871      47.754      34.033      22.703      15.321      11.380      9.1479      7.8617    
  7.1673      6.8132      6.6420      6.5648      6.5424      6.5648      6.6420      6.8132      7.1673      7.8617    
  9.1479      11.380      15.321      22.703      34.033      47.754      60.871      70.230      129.32      123.64    
  107.69      84.732      59.746      37.934      22.703      14.359      10.493      8.4526      7.3949      6.8825    
  6.6470      6.5438      6.5137      6.5438      6.6470      6.8825      7.3949      8.4526      10.493      14.359    
  22.703      37.934      59.746      84.732      107.69      123.64      198.81      190.60      167.30      133.06    
  94.647      59.746      34.033      19.020      12.174      9.1639      7.6583      6.9569      6.6468      6.5130    
  6.4736      6.5130      6.6468      6.9569      7.6583      9.1639      12.174      19.020      34.033      59.746    
  94.647      133.06      167.30      190.60      270.06      259.60      229.60      184.68      133.06      84.732    
  47.754      25.057      14.223      9.9201      7.9306      7.0297      6.6432      6.4783      6.4296      6.4783    
  6.6432      7.0297      7.9306      9.9201      14.223      25.057      47.754      84.732      133.06      184.68    
  229.60      259.60      329.74      317.69      282.76      229.60      167.30      107.69      60.871      31.156    
  16.377      10.603      8.1717      7.0917      6.6383      6.4468      6.3899      6.4468      6.6383      7.0917    
  8.1717      10.603      16.377      31.156      60.871      107.69      167.30      229.60      282.76      317.69    
  368.34      355.41      317.69      259.60      190.60      123.64      70.230      35.668      18.041      11.086    
  8.3388      7.1336      6.6343      6.4249      6.3625      6.4249      6.6343      7.1336      8.3388      11.086    
  18.041      35.668      70.230      123.64      190.60      259.60      317.69      355.41      342.08      329.74    
  293.92      239.18      174.73      112.76      63.836      32.574      16.892      10.753      8.2224      7.1027    
  6.6347      6.4376      6.3789      6.4376      6.6347      7.1027      8.2224      10.753      16.892      32.574    
  63.836      112.76      174.73      239.18      293.92      329.74      329.74      317.69      282.76      229.60    
  167.30      107.69      60.871      31.156      16.377      10.603      8.1717      7.0917      6.6383      6.4468    
  6.3899      6.4468      6.6383      7.0917      8.1717      10.603      16.377      31.156      60.871      107.69    
  167.30      229.60      282.76      317.69      293.92      282.76      250.64      202.28      146.32      93.511    
  52.702      27.321      15.014      10.187      8.0296      7.0601      6.6476      6.4723      6.4203      6.4723    
  6.6476      7.0601      8.0296      10.187      15.014      27.321      52.702      93.511      146.32      202.28    
  250.64      282.76      239.18      229.60      202.28      161.76      115.76      73.304      41.370      22.199    
  13.259      9.5913      7.8226      7.0118      6.6592      6.5080      6.4634      6.5080      6.6592      7.0118    
  7.8226      9.5913      13.259      22.199      41.370      73.304      115.76      161.76      202.28      229.60    
  174.73      167.30      146.32      115.76      81.899      51.595      29.695      17.208      11.571      8.9287    
  7.5865      6.9532      6.6696      6.5467      6.5107      6.5467      6.6696      6.9532      7.5865      8.9287    
  11.571      17.208      29.695      51.595      81.899      115.76      146.32      167.30      112.76      107.69    
  93.511      73.304      51.595      32.968      20.240      13.402      10.110      8.3023      7.3560      6.8922    
  6.6767      6.5820      6.5545      6.5820      6.6767      6.8922      7.3560      8.3023      10.110      13.402    
  20.240      32.968      51.595      73.304      93.511      107.69      63.836      60.871      52.702      41.370    
  29.695      20.240      14.194      10.894      8.9235      7.7798      7.1569      6.8363      6.6804      6.6102    
  6.5899      6.6102      6.6804      6.8363      7.1569      7.7798      8.9235      10.894      14.194      20.240    
  29.695      41.370      52.702      60.871      32.574      31.156      27.321      22.199      17.208      13.402    
  10.894      9.1720      8.0578      7.3857      7.0008      6.7904      6.6814      6.6301      6.6150      6.6301    
  6.6814      6.7904      7.0008      7.3857      8.0578      9.1720      10.894      13.402      17.208      22.199    
  27.321      31.156      16.892      16.377      15.014      13.259      11.571      10.110      8.9235      8.0578    
  7.4772      7.1102      6.8870      6.7552      6.6804      6.6420      6.6301      6.6420      6.6804      6.7552    
  6.8870      7.1102      7.4772      8.0578      8.9235      10.110      11.571      13.259      15.014      16.377    
  10.753      10.603      10.187      9.5913      8.9287      8.3023      7.7798      7.3857      7.1102      6.9267    
  6.8067      6.7279      6.6767      6.6470      6.6372      6.6470      6.6767      6.7279      6.8067      6.9267    
  7.1102      7.3857      7.7798      8.3023      8.9287      9.5913      10.187      10.603      8.2224      8.1717    
  8.0296      7.8226      7.5865      7.3560      7.1569      7.0008      6.8870      6.8067      6.7485      6.7039    
  6.6696      6.6468      6.6387      6.6468      6.6696      6.7039      6.7485      6.8067      6.8870      7.0008    
  7.1569      7.3560      7.5865      7.8226      8.0296      8.1717      7.1027      7.0917      7.0601      7.0118    
  6.9532      6.8922      6.8363      6.7904      6.7552      6.7279      6.7039      6.6808      6.6592      6.6432    
  6.6372      6.6432      6.6592      6.6808      6.7039      6.7279      6.7552      6.7904      6.8363      6.8922    
  6.9532      7.0118      7.0601      7.0917      6.6347      6.6383      6.6476      6.6592      6.6696      6.6767    
  6.6804      6.6814      6.6804      6.6767      6.6696      6.6592      6.6476      6.6383      6.6347      6.6383    
  6.6476      6.6592      6.6696      6.6767      6.6804      6.6814      6.6804      6.6767      6.6696      6.6592    
  6.6476      6.6383      6.4376      6.4468      6.4723      6.5080      6.5467      6.5820      6.6102      6.6301    
  6.6420      6.6470      6.6468      6.6432      6.6383      6.6343      6.6328      6.6343      6.6383      6.6432    
  6.6468      6.6470      6.6420      6.6301      6.6102      6.5820      6.5467      6.5080      6.4723      6.4468    
  6.3789      6.3899      6.4203      6.4634      6.5107      6.5545      6.5899      6.6150      6.6301      6.6372    
  6.6387      6.6372      6.6347      6.6328      6.6320      6.6328      6.6347      6.6372      6.6387      6.6372    
  6.6301      6.6150      6.5899      6.5545      6.5107      6.4634      6.4203      6.3899      6.4376      6.4468    
  6.4723      6.5080      6.5467      6.5820      6.6102      6.6301      6.6420      6.6470      6.6468      6.6432    
  6.6383      6.6343      6.6328      6.6343      6.6383      6.6432      6.6468      6.6470      6.6420      6.6301    
  6.6102      6.5820      6.5467      6.5080      6.4723      6.4468      6.6347      6.6383      6.6476      6.6592    
  6.6696      6.6767      6.6804      6.6814      6.6804      6.6767      6.6696      6.6592      6.6476      6.6383    
  6.6347      6.6383      6.6476      6.6592      6.6696      6.6767      6.6804      6.6814      6.6804      6.6767    
  6.6696      6.6592      6.6476      6.6383      7.1027      7.0917      7.0601      7.0118      6.9532      6.8922    
  6.8363      6.7904      6.7552      6.7279      6.7039      6.6808      6.6592      6.6432      6.6372      6.6432    
  6.6592      6.6808      6.7039      6.7279      6.7552      6.7904      6.8363      6.8922      6.9532      7.0118    
  7.0601      7.0917      8.2224      8.1717      8.0296      7.8226      7.5865      7.3560      7.1569      7.0008    
  6.8870      6.8067      6.7485      6.7039      6.6696      6.6468      6.6387      6.6468      6.6696      6.7039    
  6.7485      6.8067      6.8870      7.0008      7.1569      7.3560      7.5865      7.8226      8.0296      8.1717    
  10.753      10.603      10.187      9.5913      8.9287      8.3023      7.7798      7.3857      7.1102      6.9267    
  6.8067      6.7279      6.6767      6.6470      6.6372      6.6470      6.6767      6.7279      6.8067      6.9267    
  7.1102      7.3857      7.7798      8.3023      8.9287      9.5913      10.187      10.603      16.892      16.377    
  15.014      13.259      11.571      10.110      8.9235      8.0578      7.4772      7.1102      6.8870      6.7552    
  6.6804      6.6420      6.6301      6.6420      6.6804      6.7552      6.8870      7.1102      7.4772      8.0578    
  8.9235      10.110      11.571      13.259      15.014      16.377      32.574      31.156      27.321      22.199    
  17.208      13.402      10.894      9.1720      8.0578      7.3857      7.0008      6.7904      6.6814      6.6301    
  6.6150      6.6301      6.6814      6.7904      7.0008      7.3857      8.0578      9.1720      10.894      13.402    
  17.208      22.199      27.321      31.156      63.836      60.871      52.702      41.370      29.695      20.240    
  14.194      10.894      8.9235      7.7798      7.1569      6.8363      6.6804      6.6102      6.5899      6.6102    
  6.6804      6.8363      7.1569      7.7798      8.9235      10.894      14.194      20.240      29.695      41.370    
  52.702      60.871      112.76      107.69      93.511      73.304      51.595      32.968      20.240      13.402    
  10.110      8.3023      7.3560      6.8922      6.6767      6.5820      6.5545      6.5820      6.6767      6.8922    
  7.3560      8.3023      10.110      13.402      20.240      32.968      51.595      73.304      93.511      107.69    
  174.73      167.30      146.32      115.76      81.899      51.595      29.695      17.208      11.571      8.9287    
  7.5865      6.9532      6.6696      6.5467      6.5107      6.5467      6.6696      6.9532      7.5865      8.9287    
  11.571      17.208      29.695      51.595      81.899      115.76      146.32      167.30      239.18      229.60    
  202.28      161.76      115.76      73.304      41.370      22.199      13.259      9.5913      7.8226      7.0118    
  6.6592      6.5080      6.4634      6.5080      6.6592      7.0118      7.8226      9.5913      13.259      22.199    
  41.370      73.304      115.76      161.76      202.28      229.60      293.92      282.76      250.64      202.28    
  146.32      93.511      52.702      27.321      15.014      10.187      8.0296      7.0601      6.6476      6.4723    
  6.4203      6.4723      6.6476      7.0601      8.0296      10.187      15.014      27.321      52.702      93.511    
  146.32      202.28      250.64      282.76      329.74      317.69      282.76      229.60      167.30      107.69    
  60.871      31.156      16.377      10.603      8.1717      7.0917      6.6383      6.4468      6.3899      6.4468    
  6.6383      7.0917      8.1717      10.603      16.377      31.156      60.871      107.69      167.30      229.60    
  282.76      317.69      280.80      270.06      239.18      192.78      139.23      88.856      50.091      26.124    
  14.588      10.038      7.9688      7.0357      6.6372      6.4676      6.4174      6.4676      6.6372      7.0357    
  7.9688      10.038      14.588      26.124      50.091      88.856      139.23      192.78      239.18      270.06    
  270.06      259.60      229.60      184.68      133.06      84.732      47.754      25.057      14.223      9.9201    
  7.9306      7.0297      6.6432      6.4783      6.4296      6.4783      6.6432      7.0297      7.9306      9.9201    
  14.223      25.057      47.754      84.732      133.06      184.68      229.60      259.60      239.18      229.60    
  202.28      161.76      115.76      73.304      41.370      22.199      13.259      9.5913      7.8226      7.0118    
  6.6592      6.5080      6.4634      6.5080      6.6592      7.0118      7.8226      9.5913      13.259      22.199    
  41.370      73.304      115.76      161.76      202.28      229.60      192.78      184.68      161.76      128.26    
  90.922      57.255      32.665      18.451      12.009      9.1184      7.6637      6.9830      6.6808      6.5502    