V                                       
   1.00000000000000     
     2.998940    0.000000    0.000000
     0.000000    2.998940    0.000000
     0.000000    0.000000    2.998940
   V 
     2
Direct
  0.000000  0.000000  0.000000
  0.500000  0.500000  0.500000
 
   28   28   28
 0.39498158846E+03 0.38153451166E+03 0.34208232474E+03 0.28079744186E+03 0.20727339762E+03
 0.13521074413E+03 0.77130842476E+02 0.39069673350E+02 0.19334266246E+02 0.11454150596E+02
 0.84619814748E+01 0.71646842628E+01 0.66320375929E+01 0.64096845878E+01 0.63433452968E+01
 0.64096845878E+01 0.66320375929E+01 0.71646842628E+01 0.84619814748E+01 0.11454150596E+02
 0.19334266246E+02 0.39069673350E+02 0.77130842476E+02 0.13521074413E+03 0.20727339762E+03
 0.28079744186E+03 0.34208232474E+03 0.38153451166E+03 0.38153451166E+03 0.36834109381E+03
 0.32974345941E+03 0.27005692856E+03 0.19880745508E+03 0.12932136386E+03 0.73609062438E+02
 0.37326346204E+02 0.18667303219E+02 0.11264457434E+02 0.83987078410E+01 0.71483970856E+01
 0.66327526112E+01 0.64169855033E+01 0.63526521207E+01 0.64169855033E+01 0.66327526112E+01
 0.71483970856E+01 0.83987078410E+01 0.11264457434E+02 0.18667303219E+02 0.37326346204E+02
 0.73609062438E+02 0.12932136386E+03 0.19880745508E+03 0.27005692856E+03 0.32974345941E+03
 0.36834109381E+03 0.34208232474E+03 0.32974345941E+03 0.29391533730E+03 0.23917833519E+03
 0.17472904594E+03 0.11276079614E+03 0.63836266862E+02 0.32573663597E+02 0.16892108380E+02
 0.10752878042E+02 0.82223945557E+01 0.71026544539E+01 0.66347006252E+01 0.64375727341E+01
 0.63789247334E+01 0.64375727341E+01 0.66347006252E+01 0.71026544539E+01 0.82223945557E+01
 0.10752878042E+02 0.16892108380E+02 0.32573663597E+02 0.63836266862E+02 0.11276079614E+03
 0.17472904594E+03 0.23917833519E+03 0.29391533730E+03 0.32974345941E+03 0.28079744186E+03
 0.27005692856E+03 0.23917833519E+03 0.19278092319E+03 0.13922749475E+03 0.88855581566E+02
 0.50091392154E+02 0.26124418703E+02 0.14588290288E+02 0.10038051833E+02 0.79687814903E+01
 0.70356997372E+01 0.66371648867E+01 0.64675945874E+01 0.64173651327E+01 0.64675945874E+01
 0.66371648867E+01 0.70356997372E+01 0.79687814903E+01 0.10038051833E+02 0.14588290288E+02
 0.26124418703E+02 0.50091392154E+02 0.88855581566E+02 0.13922749475E+03 0.19278092319E+03
 0.23917833519E+03 0.27005692856E+03 0.20727339762E+03 0.19880745508E+03 0.17472904594E+03
 0.13922749475E+03 0.99238239492E+02 0.62718042361E+02 0.35640984699E+02 0.19704478434E+02
 0.12399188241E+02 0.92480844105E+01 0.76836886202E+01 0.69581065566E+01 0.66387081921E+01
 0.65011015650E+01 0.64606214749E+01 0.65011015650E+01 0.66387081921E+01 0.69581065566E+01
 0.76836886202E+01 0.92480844105E+01 0.12399188241E+02 0.19704478434E+02 0.35640984699E+02
 0.62718042361E+02 0.99238239492E+02 0.13922749475E+03 0.17472904594E+03 0.19880745508E+03
 0.13521074413E+03 0.12932136386E+03 0.11276079614E+03 0.88855581566E+02 0.62718042361E+02
 0.39770276559E+02 0.23629673097E+02 0.14722880967E+02 0.10631079538E+02 0.85064590259E+01
 0.74089223192E+01 0.68795631308E+01 0.66371953858E+01 0.65310434719E+01 0.65000590905E+01
 0.65310434719E+01 0.66371953858E+01 0.68795631308E+01 0.74089223192E+01 0.85064590259E+01
 0.10631079538E+02 0.14722880967E+02 0.23629673097E+02 0.39770276559E+02 0.62718042361E+02
 0.88855581566E+02 0.11276079614E+03 0.12932136386E+03 0.77130842476E+02 0.73609062438E+02
 0.63836266862E+02 0.50091392154E+02 0.35640984699E+02 0.23629673097E+02 0.15749147107E+02
 0.11555166191E+02 0.92287528819E+01 0.78915846201E+01 0.71720369504E+01 0.68064414727E+01
 0.66301031992E+01 0.65507115732E+01 0.65275752116E+01 0.65507115732E+01 0.66301031992E+01
 0.68064414727E+01 0.71720369504E+01 0.78915846201E+01 0.92287528819E+01 0.11555166191E+02
 0.15749147107E+02 0.23629673097E+02 0.35640984699E+02 0.50091392154E+02 0.63836266862E+02
 0.73609062438E+02 0.39069673350E+02 0.37326346204E+02 0.32573663597E+02 0.26124418703E+02
 0.19704478434E+02 0.14722880967E+02 0.11555166191E+02 0.95193410187E+01 0.82111187584E+01
 0.74284053602E+01 0.69831988606E+01 0.67408176526E+01 0.66149682810E+01 0.65551879951E+01
 0.65374354488E+01 0.65551879951E+01 0.66149682810E+01 0.67408176526E+01 0.69831988606E+01
 0.74284053602E+01 0.82111187584E+01 0.95193410187E+01 0.11555166191E+02 0.14722880967E+02
 0.19704478434E+02 0.26124418703E+02 0.32573663597E+02 0.37326346204E+02 0.19334266246E+02
 0.18667303219E+02 0.16892108380E+02 0.14588290288E+02 0.12399188241E+02 0.10631079538E+02
 0.92287528819E+01 0.82111187584E+01 0.75315433325E+01 0.71018443078E+01 0.68386502524E+01
 0.66810858384E+01 0.65899327786E+01 0.65424054505E+01 0.65275752116E+01 0.65424054505E+01
 0.65899327786E+01 0.66810858384E+01 0.68386502524E+01 0.71018443078E+01 0.75315433325E+01
 0.82111187584E+01 0.92287528819E+01 0.10631079538E+02 0.12399188241E+02 0.14588290288E+02
 0.16892108380E+02 0.18667303219E+02 0.11454150596E+02 0.11264457434E+02 0.10752878042E+02
 0.10038051833E+02 0.92480844105E+01 0.85064590259E+01 0.78915846201E+01 0.74284053602E+01
 0.71018443078E+01 0.68790803573E+01 0.67276343649E+01 0.66239472270E+01 0.65545318489E+01
 0.65136751779E+01 0.65000590905E+01 0.65136751779E+01 0.65545318489E+01 0.66239472270E+01
 0.67276343649E+01 0.68790803573E+01 0.71018443078E+01 0.74284053602E+01 0.78915846201E+01
 0.85064590259E+01 0.92480844105E+01 0.10038051833E+02 0.10752878042E+02 0.11264457434E+02
 0.84619814748E+01 0.83987078410E+01 0.82223945557E+01 0.79687814903E+01 0.76836886202E+01
 0.74089223192E+01 0.71720369504E+01 0.69831988606E+01 0.68386502524E+01 0.67276343649E+01
 0.66392765602E+01 0.65671496418E+01 0.65106891938E+01 0.64736430897E+01 0.64606214749E+01
 0.64736430897E+01 0.65106891938E+01 0.65671496418E+01 0.66392765602E+01 0.67276343649E+01
 0.68386502524E+01 0.69831988606E+01 0.71720369504E+01 0.74089223192E+01 0.76836886202E+01
 0.79687814903E+01 0.82223945557E+01 0.83987078410E+01 0.71646842628E+01 0.71483970856E+01
 0.71026544539E+01 0.70356997372E+01 0.69581065566E+01 0.68795631308E+01 0.68064414727E+01
 0.67408176526E+01 0.66810858384E+01 0.66239472270E+01 0.65671496418E+01 0.65118621528E+01
 0.64633936083E+01 0.64295692835E+01 0.64173651327E+01 0.64295692835E+01 0.64633936083E+01
 0.65118621528E+01 0.65671496418E+01 0.66239472270E+01 0.66810858384E+01 0.67408176526E+01
 0.68064414727E+01 0.68795631308E+01 0.69581065566E+01 0.70356997372E+01 0.71026544539E+01
 0.71483970856E+01 0.66320375929E+01 0.66327526112E+01 0.66347006252E+01 0.66371648867E+01
 0.66387081921E+01 0.66371953858E+01 0.66301031992E+01 0.66149682810E+01 0.65899327786E+01
 0.65545318489E+01 0.65106891938E+01 0.64633936083E+01 0.64202956177E+01 0.63899041478E+01
 0.63789247334E+01 0.63899041478E+01 0.64202956177E+01 0.64633936083E+01 0.65106891938E+01
 0.65545318489E+01 0.65899327786E+01 0.66149682810E+01 0.66301031992E+01 0.66371953858E+01
 0.66387081921E+01 0.66371648867E+01 0.66347006252E+01 0.66327526112E+01 0.64096845878E+01
 0.64169855033E+01 0.64375727341E+01 0.64675945874E+01 0.65011015650E+01 0.65310434719E+01
 0.65507115732E+01 0.65551879951E+01 0.65424054505E+01 0.65136751779E+01 0.64736430897E+01
 0.64295692835E+01 0.63899041478E+01 0.63624508954E+01 0.63526521207E+01 0.63624508954E+01
 0.63899041478E+01 0.64295692835E+01 0.64736430897E+01 0.65136751779E+01 0.65424054505E+01
 0.65551879951E+01 0.65507115732E+01 0.65310434719E+01 0.65011015650E+01 0.64675945874E+01
 0.64375727341E+01 0.64169855033E+01 0.63433452968E+01 0.63526521207E+01 0.63789247334E+01
 0.64173651327E+01 0.64606214749E+01 0.65000590905E+01 0.65275752116E+01 0.65374354488E+01
 0.65275752116E+01 0.65000590905E+01 0.64606214749E+01 0.64173651327E+01 0.63789247334E+01
 0.63526521207E+01 0.63433452968E+01 0.63526521207E+01 0.63789247334E+01 0.64173651327E+01
 0.64606214749E+01 0.65000590905E+01 0.65275752116E+01 0.65374354488E+01 0.65275752116E+01
 0.65000590905E+01 0.64606214749E+01 0.64173651327E+01 0.63789247334E+01 0.63526521207E+01
 0.64096845878E+01 0.64169855033E+01 0.64375727341E+01 0.64675945874E+01 0.65011015650E+01
 0.65310434719E+01 0.65507115732E+01 0.65551879951E+01 0.65424054505E+01 0.65136751779E+01
 0.64736430897E+01 0.64295692835E+01 0.63899041478E+01 0.63624508954E+01 0.63526521207E+01
 0.63624508954E+01 0.63899041478E+01 0.64295692835E+01 0.64736430897E+01 0.65136751779E+01
 0.65424054505E+01 0.65551879951E+01 0.65507115732E+01 0.65310434719E+01 0.65011015650E+01
 0.64675945874E+01 0.64375727341E+01 0.64169855033E+01 0.66320375929E+01 0.66327526112E+01
 0.66347006252E+01 0.66371648867E+01 0.66387081921E+01 0.66371953858E+01 0.66301031992E+01
 0.66149682810E+01 0.65899327786E+01 0.65545318489E+01 0.65106891938E+01 0.64633936083E+01
 0.64202956177E+01 0.63899041478E+01 0.63789247334E+01 0.63899041478E+01 0.64202956177E+01
 0.64633936083E+01 0.65106891938E+01 0.65545318489E+01 0.65899327786E+01 0.66149682810E+01
 0.66301031992E+01 0.66371953858E+01 0.66387081921E+01 0.66371648867E+01 0.66347006252E+01
 0.66327526112E+01 0.71646842628E+01 0.71483970856E+01 0.71026544539E+01 0.70356997372E+01
 0.69581065566E+01 0.68795631308E+01 0.68064414727E+01 0.67408176526E+01 0.66810858384E+01
 0.66239472270E+01 0.65671496418E+01 0.65118621528E+01 0.64633936083E+01 0.64295692835E+01
 0.64173651327E+01 0.64295692835E+01 0.64633936083E+01 0.65118621528E+01 0.65671496418E+01
 0.66239472270E+01 0.66810858384E+01 0.67408176526E+01 0.68064414727E+01 0.68795631308E+01
 0.69581065566E+01 0.70356997372E+01 0.71026544539E+01 0.71483970856E+01 0.84619814748E+01
 0.83987078410E+01 0.82223945557E+01 0.79687814903E+01 0.76836886202E+01 0.74089223192E+01
 0.71720369504E+01 0.69831988606E+01 0.68386502524E+01 0.67276343649E+01 0.66392765602E+01
 0.65671496418E+01 0.65106891938E+01 0.64736430897E+01 0.64606214749E+01 0.64736430897E+01
 0.65106891938E+01 0.65671496418E+01 0.66392765602E+01 0.67276343649E+01 0.68386502524E+01
 0.69831988606E+01 0.71720369504E+01 0.74089223192E+01 0.76836886202E+01 0.79687814903E+01
 0.82223945557E+01 0.83987078410E+01 0.11454150596E+02 0.11264457434E+02 0.10752878042E+02
 0.10038051833E+02 0.92480844105E+01 0.85064590259E+01 0.78915846201E+01 0.74284053602E+01
 0.71018443078E+01 0.68790803573E+01 0.67276343649E+01 0.66239472270E+01 0.65545318489E+01
 0.65136751779E+01 0.65000590905E+01 0.65136751779E+01 0.65545318489E+01 0.66239472270E+01
 0.67276343649E+01 0.68790803573E+01 0.71018443078E+01 0.74284053602E+01 0.78915846201E+01
 0.85064590259E+01 0.92480844105E+01 0.10038051833E+02 0.10752878042E+02 0.11264457434E+02
 0.19334266246E+02 0.18667303219E+02 0.16892108380E+02 0.14588290288E+02 0.12399188241E+02
 0.10631079538E+02 0.92287528819E+01 0.82111187584E+01 0.75315433325E+01 0.71018443078E+01
 0.68386502524E+01 0.66810858384E+01 0.65899327786E+01 0.65424054505E+01 0.65275752116E+01
 0.65424054505E+01 0.65899327786E+01 0.66810858384E+01 0.68386502524E+01 0.71018443078E+01
 0.75315433325E+01 0.82111187584E+01 0.92287528819E+01 0.10631079538E+02 0.12399188241E+02
 0.14588290288E+02 0.16892108380E+02 0.18667303219E+02 0.39069673350E+02 0.37326346204E+02
 0.32573663597E+02 0.26124418703E+02 0.19704478434E+02 0.14722880967E+02 0.11555166191E+02
 0.95193410187E+01 0.82111187584E+01 0.74284053602E+01 0.69831988606E+01 0.67408176526E+01
 0.66149682810E+01 0.65551879951E+01 0.65374354488E+01 0.65551879951E+01 0.66149682810E+01
 0.67408176526E+01 0.69831988606E+01 0.74284053602E+01 0.82111187584E+01 0.95193410187E+01
 0.11555166191E+02 0.14722880967E+02 0.19704478434E+02 0.26124418703E+02 0.32573663597E+02
 0.37326346204E+02 0.77130842476E+02 0.73609062438E+02 0.63836266862E+02 0.50091392154E+02
 0.35640984699E+02 0.23629673097E+02 0.15749147107E+02 0.11555166191E+02 0.92287528819E+01
 0.78915846201E+01 0.71720369504E+01 0.68064414727E+01 0.66301031992E+01 0.65507115732E+01
 0.65275752116E+01 0.65507115732E+01 0.66301031992E+01 0.68064414727E+01 0.71720369504E+01
 0.78915846201E+01 0.92287528819E+01 0.11555166191E+02 0.15749147107E+02 0.23629673097E+02
 0.35640984699E+02 0.50091392154E+02 0.63836266862E+02 0.73609062438E+02 0.13521074413E+03
 0.12932136386E+03 0.11276079614E+03 0.88855581566E+02 0.62718042361E+02 0.39770276559E+02
 0.23629673097E+02 0.14722880967E+02 0.10631079538E+02 0.85064590259E+01 0.74089223192E+01
 0.68795631308E+01 0.66371953858E+01 0.65310434719E+01 0.65000590905E+01 0.65310434719E+01
 0.66371953858E+01 0.68795631308E+01 0.74089223192E+01 0.85064590259E+01 0.10631079538E+02
 0.14722880967E+02 0.23629673097E+02 0.39770276559E+02 0.62718042361E+02 0.88855581566E+02
 0.11276079614E+03 0.12932136386E+03 0.20727339762E+03 0.19880745508E+03 0.17472904594E+03
 0.13922749475E+03 0.99238239492E+02 0.62718042361E+02 0.35640984699E+02 0.19704478434E+02
 0.12399188241E+02 0.92480844105E+01 0.76836886202E+01 0.69581065566E+01 0.66387081921E+01
 0.65011015650E+01 0.64606214749E+01 0.65011015650E+01 0.66387081921E+01 0.69581065566E+01
 0.76836886202E+01 0.92480844105E+01 0.12399188241E+02 0.19704478434E+02 0.35640984699E+02
 0.62718042361E+02 0.99238239492E+02 0.13922749475E+03 0.17472904594E+03 0.19880745508E+03
 0.28079744186E+03 0.27005692856E+03 0.23917833519E+03 0.19278092319E+03 0.13922749475E+03
 0.88855581566E+02 0.50091392154E+02 0.26124418703E+02 0.14588290288E+02 0.10038051833E+02
 0.79687814903E+01 0.70356997372E+01 0.66371648867E+01 0.64675945874E+01 0.64173651327E+01
 0.64675945874E+01 0.66371648867E+01 0.70356997372E+01 0.79687814903E+01 0.10038051833E+02
 0.14588290288E+02 0.26124418703E+02 0.50091392154E+02 0.88855581566E+02 0.13922749475E+03
 0.19278092319E+03 0.23917833519E+03 0.27005692856E+03 0.34208232474E+03 0.32974345941E+03
 0.29391533730E+03 0.23917833519E+03 0.17472904594E+03 0.11276079614E+03 0.63836266862E+02
 0.32573663597E+02 0.16892108380E+02 0.10752878042E+02 0.82223945557E+01 0.71026544539E+01
 0.66347006252E+01 0.64375727341E+01 0.63789247334E+01 0.64375727341E+01 0.66347006252E+01
 0.71026544539E+01 0.82223945557E+01 0.10752878042E+02 0.16892108380E+02 0.32573663597E+02
 0.63836266862E+02 0.11276079614E+03 0.17472904594E+03 0.23917833519E+03 0.29391533730E+03
 0.32974345941E+03 0.38153451166E+03 0.36834109381E+03 0.32974345941E+03 0.27005692856E+03
 0.19880745508E+03 0.12932136386E+03 0.73609062438E+02 0.37326346204E+02 0.18667303219E+02
 0.11264457434E+02 0.83987078410E+01 0.71483970856E+01 0.66327526112E+01 0.64169855033E+01
 0.63526521207E+01 0.64169855033E+01 0.66327526112E+01 0.71483970856E+01 0.83987078410E+01
 0.11264457434E+02 0.18667303219E+02 0.37326346204E+02 0.73609062438E+02 0.12932136386E+03
 0.19880745508E+03 0.27005692856E+03 0.32974345941E+03 0.36834109381E+03 0.38153451166E+03
 0.36834109381E+03 0.32974345941E+03 0.27005692856E+03 0.19880745508E+03 0.12932136386E+03
 0.73609062438E+02 0.37326346204E+02 0.18667303219E+02 0.11264457434E+02 0.83987078410E+01
 0.71483970856E+01 0.66327526112E+01 0.64169855033E+01 0.63526521207E+01 0.64169855033E+01
 0.66327526112E+01 0.71483970856E+01 0.83987078410E+01 0.11264457434E+02 0.18667303219E+02
 0.37326346204E+02 0.73609062438E+02 0.12932136386E+03 0.19880745508E+03 0.27005692856E+03
 0.32974345941E+03 0.36834109381E+03 0.36834109381E+03 0.35541082350E+03 0.31768560022E+03
 0.25960116424E+03 0.19060050283E+03 0.12363839405E+03 0.70230206818E+02 0.35667860481E+02
 0.18040984213E+02 0.11086397949E+02 0.83388434972E+01 0.71335794453E+01 0.66342735756E+01
 0.64248507880E+01 0.63624508954E+01 0.64248507880E+01 0.66342735756E+01 0.71335794453E+01
 0.83388434972E+01 0.11086397949E+02 0.18040984213E+02 0.35667860481E+02 0.70230206818E+02
 0.12363839405E+03 0.19060050283E+03 0.25960116424E+03 0.31768560022E+03 0.35541082350E+03
 0.32974345941E+03 0.31768560022E+03 0.28275683192E+03 0.22960246234E+03 0.16730077484E+03
 0.10768584364E+03 0.60871105447E+02 0.31155748941E+02 0.16376967596E+02 0.10602942295E+02
 0.81717298007E+01 0.70916997700E+01 0.66382649486E+01 0.64468182051E+01 0.63899041478E+01
 0.64468182051E+01 0.66382649486E+01 0.70916997700E+01 0.81717298007E+01 0.10602942295E+02
 0.16376967596E+02 0.31155748941E+02 0.60871105447E+02 0.10768584364E+03 0.16730077484E+03
 0.22960246234E+03 0.28275683192E+03 0.31768560022E+03 0.27005692856E+03 0.25960116424E+03
 0.22960246234E+03 0.18468355365E+03 0.13305733302E+03 0.84731984192E+02 0.47754057299E+02
 0.25057208403E+02 0.14222961491E+02 0.99201255689E+01 0.79305551573E+01 0.70297119816E+01
 0.66431613164E+01 0.64783456206E+01 0.64295692835E+01 0.64783456206E+01 0.66431613164E+01
 0.70297119816E+01 0.79305551573E+01 0.99201255689E+01 0.14222961491E+02 0.25057208403E+02
 0.47754057299E+02 0.84731984192E+02 0.13305733302E+03 0.18468355365E+03 0.22960246234E+03
 0.25960116424E+03 0.19880745508E+03 0.19060050283E+03 0.16730077484E+03 0.13305733302E+03
 0.94646523017E+02 0.59745909804E+02 0.34033247675E+02 0.19019751669E+02 0.12174476651E+02
 0.91639359138E+01 0.76583125741E+01 0.69569421105E+01 0.66468190663E+01 0.65129738057E+01
 0.64736430897E+01 0.65129738057E+01 0.66468190663E+01 0.69569421105E+01 0.76583125741E+01
 0.91639359138E+01 0.12174476651E+02 0.19019751669E+02 0.34033247675E+02 0.59745909804E+02
 0.94646523017E+02 0.13305733302E+03 0.16730077484E+03 0.19060050283E+03 0.12932136386E+03
 0.12363839405E+03 0.10768584364E+03 0.84731984192E+02 0.59745909804E+02 0.37934141484E+02
 0.22702967383E+02 0.14359313255E+02 0.10493288734E+02 0.84526064910E+01 0.73948867549E+01
 0.68825434064E+01 0.66470453174E+01 0.65437791550E+01 0.65136751779E+01 0.65437791550E+01
 0.66470453174E+01 0.68825434064E+01 0.73948867549E+01 0.84526064910E+01 0.10493288734E+02
 0.14359313255E+02 0.22702967383E+02 0.37934141484E+02 0.59745909804E+02 0.84731984192E+02
 0.10768584364E+03 0.12363839405E+03 0.73609062438E+02 0.70230206818E+02 0.60871105447E+02
 0.47754057299E+02 0.34033247675E+02 0.22702967383E+02 0.15320736488E+02 0.11379728909E+02
 0.91478795193E+01 0.78617043457E+01 0.71672976156E+01 0.68132134219E+01 0.66419646686E+01
 0.65648461705E+01 0.65424054505E+01 0.65648461705E+01 0.66419646686E+01 0.68132134219E+01
 0.71672976156E+01 0.78617043457E+01 0.91478795193E+01 0.11379728909E+02 0.15320736488E+02
 0.22702967383E+02 0.34033247675E+02 0.47754057299E+02 0.60871105447E+02 0.70230206818E+02
 0.37326346204E+02 0.35667860481E+02 0.31155748941E+02 0.25057208403E+02 0.19019751669E+02
 0.14359313255E+02 0.11379728909E+02 0.94272276835E+01 0.81700356618E+01 0.74160866134E+01
 0.69862508707E+01 0.67518388593E+01 0.66300745767E+01 0.65723107387E+01 0.65551879951E+01
 0.65723107387E+01 0.66300745767E+01 0.67518388593E+01 0.69862508707E+01 0.74160866134E+01
 0.81700356618E+01 0.94272276835E+01 0.11379728909E+02 0.14359313255E+02 0.19019751669E+02
 0.25057208403E+02 0.31155748941E+02 0.35667860481E+02 0.18667303219E+02 0.18040984213E+02
 0.16376967596E+02 0.14222961491E+02 0.12174476651E+02 0.10493288734E+02 0.91478795193E+01
 0.81700356618E+01 0.75160359889E+01 0.71021932680E+01 0.68488697410E+01 0.66975256425E+01
 0.66102288249E+01 0.65648461705E+01 0.65507115732E+01 0.65648461705E+01 0.66102288249E+01
 0.66975256425E+01 0.68488697410E+01 0.71021932680E+01 0.75160359889E+01 0.81700356618E+01
 0.91478795193E+01 0.10493288734E+02 0.12174476651E+02 0.14222961491E+02 0.16376967596E+02
 0.18040984213E+02 0.11264457434E+02 0.11086397949E+02 0.10602942295E+02 0.99201255689E+01
 0.91639359138E+01 0.84526064910E+01 0.78617043457E+01 0.74160866134E+01 0.71021932680E+01
 0.68889370741E+01 0.67449652019E+01 0.66471459533E+01 0.65820176041E+01 0.65437791550E+01
 0.65310434719E+01 0.65437791550E+01 0.65820176041E+01 0.66471459533E+01 0.67449652019E+01
 0.68889370741E+01 0.71021932680E+01 0.74160866134E+01 0.78617043457E+01 0.84526064910E+01
 0.91639359138E+01 0.99201255689E+01 0.10602942295E+02 0.11086397949E+02 0.83987078410E+01
 0.83388434972E+01 0.81717298007E+01 0.79305551573E+01 0.76583125741E+01 0.73948867549E+01
 0.71672976156E+01 0.69862508707E+01 0.68488697410E+01 0.67449652019E+01 0.66636394088E+01
 0.65979599277E+01 0.65466813721E+01 0.65129738057E+01 0.65011015650E+01 0.65129738057E+01
 0.65466813721E+01 0.65979599277E+01 0.66636394088E+01 0.67449652019E+01 0.68488697410E+01
 0.69862508707E+01 0.71672976156E+01 0.73948867549E+01 0.76583125741E+01 0.79305551573E+01
 0.81717298007E+01 0.83388434972E+01 0.71483970856E+01 0.71335794453E+01 0.70916997700E+01
 0.70297119816E+01 0.69569421105E+01 0.68825434064E+01 0.68132134219E+01 0.67518388593E+01
 0.66975256425E+01 0.66471459533E+01 0.65979599277E+01 0.65501755602E+01 0.65080041175E+01
 0.64783456206E+01 0.64675945874E+01 0.64783456206E+01 0.65080041175E+01 0.65501755602E+01
 0.65979599277E+01 0.66471459533E+01 0.66975256425E+01 0.67518388593E+01 0.68132134219E+01
 0.68825434064E+01 0.69569421105E+01 0.70297119816E+01 0.70916997700E+01 0.71335794453E+01
 0.66327526112E+01 0.66342735756E+01 0.66382649486E+01 0.66431613164E+01 0.66468190663E+01
 0.66470453174E+01 0.66419646686E+01 0.66300745767E+01 0.66102288249E+01 0.65820176041E+01
 0.65466813721E+01 0.65080041175E+01 0.64722731596E+01 0.64468182051E+01 0.64375727341E+01
 0.64468182051E+01 0.64722731596E+01 0.65080041175E+01 0.65466813721E+01 0.65820176041E+01
 0.66102288249E+01 0.66300745767E+01 0.66419646686E+01 0.66470453174E+01 0.66468190663E+01
 0.66431613164E+01 0.66382649486E+01 0.66342735756E+01 0.64169855033E+01 0.64248507880E+01
 0.64468182051E+01 0.64783456206E+01 0.65129738057E+01 0.65437791550E+01 0.65648461705E+01
 0.65723107387E+01 0.65648461705E+01 0.65437791550E+01 0.65129738057E+01 0.64783456206E+01
 0.64468182051E+01 0.64248507880E+01 0.64169855033E+01 0.64248507880E+01 0.64468182051E+01
 0.64783456206E+01 0.65129738057E+01 0.65437791550E+01 0.65648461705E+01 0.65723107387E+01
 0.65648461705E+01 0.65437791550E+01 0.65129738057E+01 0.64783456206E+01 0.64468182051E+01
 0.64248507880E+01 0.63526521207E+01 0.63624508954E+01 0.63899041478E+01 0.64295692835E+01
 0.64736430897E+01 0.65136751779E+01 0.65424054505E+01 0.65551879951E+01 0.65507115732E+01
 0.65310434719E+01 0.65011015650E+01 0.64675945874E+01 0.64375727341E+01 0.64169855033E+01
 0.64096845878E+01 0.64169855033E+01 0.64375727341E+01 0.64675945874E+01 0.65011015650E+01
 0.65310434719E+01 0.65507115732E+01 0.65551879951E+01 0.65424054505E+01 0.65136751779E+01
 0.64736430897E+01 0.64295692835E+01 0.63899041478E+01 0.63624508954E+01 0.64169855033E+01
 0.64248507880E+01 0.64468182051E+01 0.64783456206E+01 0.65129738057E+01 0.65437791550E+01
 0.65648461705E+01 0.65723107387E+01 0.65648461705E+01 0.65437791550E+01 0.65129738057E+01
 0.64783456206E+01 0.64468182051E+01 0.64248507880E+01 0.64169855033E+01 0.64248507880E+01
 0.64468182051E+01 0.64783456206E+01 0.65129738057E+01 0.65437791550E+01 0.65648461705E+01
 0.65723107387E+01 0.65648461705E+01 0.65437791550E+01 0.65129738057E+01 0.64783456206E+01
 0.64468182051E+01 0.64248507880E+01 0.66327526112E+01 0.66342735756E+01 0.66382649486E+01
 0.66431613164E+01 0.66468190663E+01 0.66470453174E+01 0.66419646686E+01 0.66300745767E+01
 0.66102288249E+01 0.65820176041E+01 0.65466813721E+01 0.65080041175E+01 0.64722731596E+01
 0.64468182051E+01 0.64375727341E+01 0.64468182051E+01 0.64722731596E+01 0.65080041175E+01
 0.65466813721E+01 0.65820176041E+01 0.66102288249E+01 0.66300745767E+01 0.66419646686E+01
 0.66470453174E+01 0.66468190663E+01 0.66431613164E+01 0.66382649486E+01 0.66342735756E+01
 0.71483970856E+01 0.71335794453E+01 0.70916997700E+01 0.70297119816E+01 0.69569421105E+01
 0.68825434064E+01 0.68132134219E+01 0.67518388593E+01 0.66975256425E+01 0.66471459533E+01
 0.65979599277E+01 0.65501755602E+01 0.65080041175E+01 0.64783456206E+01 0.64675945874E+01
 0.64783456206E+01 0.65080041175E+01 0.65501755602E+01 0.65979599277E+01 0.66471459533E+01
 0.66975256425E+01 0.67518388593E+01 0.68132134219E+01 0.68825434064E+01 0.69569421105E+01
 0.70297119816E+01 0.70916997700E+01 0.71335794453E+01 0.83987078410E+01 0.83388434972E+01
 0.81717298007E+01 0.79305551573E+01 0.76583125741E+01 0.73948867549E+01 0.71672976156E+01
 0.69862508707E+01 0.68488697410E+01 0.67449652019E+01 0.66636394088E+01 0.65979599277E+01
 0.65466813721E+01 0.65129738057E+01 0.65011015650E+01 0.65129738057E+01 0.65466813721E+01
 0.65979599277E+01 0.66636394088E+01 0.67449652019E+01 0.68488697410E+01 0.69862508707E+01
 0.71672976156E+01 0.73948867549E+01 0.76583125741E+01 0.79305551573E+01 0.81717298007E+01
 0.83388434972E+01 0.11264457434E+02 0.11086397949E+02 0.10602942295E+02 0.99201255689E+01
 0.91639359138E+01 0.84526064910E+01 0.78617043457E+01 0.74160866134E+01 0.71021932680E+01
 0.68889370741E+01 0.67449652019E+01 0.66471459533E+01 0.65820176041E+01 0.65437791550E+01
 0.65310434719E+01 0.65437791550E+01 0.65820176041E+01 0.66471459533E+01 0.67449652019E+01
 0.68889370741E+01 0.71021932680E+01 0.74160866134E+01 0.78617043457E+01 0.84526064910E+01
 0.91639359138E+01 0.99201255689E+01 0.10602942295E+02 0.11086397949E+02 0.18667303219E+02
 0.18040984213E+02 0.16376967596E+02 0.14222961491E+02 0.12174476651E+02 0.10493288734E+02
 0.91478795193E+01 0.81700356618E+01 0.75160359889E+01 0.71021932680E+01 0.68488697410E+01
 0.66975256425E+01 0.66102288249E+01 0.65648461705E+01 0.65507115732E+01 0.65648461705E+01
 0.66102288249E+01 0.66975256425E+01 0.68488697410E+01 0.71021932680E+01 0.75160359889E+01
 0.81700356618E+01 0.91478795193E+01 0.10493288734E+02 0.12174476651E+02 0.14222961491E+02
 0.16376967596E+02 0.18040984213E+02 0.37326346204E+02 0.35667860481E+02 0.31155748941E+02
 0.25057208403E+02 0.19019751669E+02 0.14359313255E+02 0.11379728909E+02 0.94272276835E+01
 0.81700356618E+01 0.74160866134E+01 0.69862508707E+01 0.67518388593E+01 0.66300745767E+01
 0.65723107387E+01 0.65551879951E+01 0.65723107387E+01 0.66300745767E+01 0.67518388593E+01
 0.69862508707E+01 0.74160866134E+01 0.81700356618E+01 0.94272276835E+01 0.11379728909E+02
 0.14359313255E+02 0.19019751669E+02 0.25057208403E+02 0.31155748941E+02 0.35667860481E+02
 0.73609062438E+02 0.70230206818E+02 0.60871105447E+02 0.47754057299E+02 0.34033247675E+02
 0.22702967383E+02 0.15320736488E+02 0.11379728909E+02 0.91478795193E+01 0.78617043457E+01
 0.71672976156E+01 0.68132134219E+01 0.66419646686E+01 0.65648461705E+01 0.65424054505E+01
 0.65648461705E+01 0.66419646686E+01 0.68132134219E+01 0.71672976156E+01 0.78617043457E+01
 0.91478795193E+01 0.11379728909E+02 0.15320736488E+02 0.22702967383E+02 0.34033247675E+02
 0.47754057299E+02 0.60871105447E+02 0.70230206818E+02 0.12932136386E+03 0.12363839405E+03
 0.10768584364E+03 0.84731984192E+02 0.59745909804E+02 0.37934141484E+02 0.22702967383E+02
 0.14359313255E+02 0.10493288734E+02 0.84526064910E+01 0.73948867549E+01 0.68825434064E+01
 0.66470453174E+01 0.65437791550E+01 0.65136751779E+01 0.65437791550E+01 0.66470453174E+01
 0.68825434064E+01 0.73948867549E+01 0.84526064910E+01 0.10493288734E+02 0.14359313255E+02
 0.22702967383E+02 0.37934141484E+02 0.59745909804E+02 0.84731984192E+02 0.10768584364E+03
 0.12363839405E+03 0.19880745508E+03 0.19060050283E+03 0.16730077484E+03 0.13305733302E+03
 0.94646523017E+02 0.59745909804E+02 0.34033247675E+02 0.19019751669E+02 0.12174476651E+02
 0.91639359138E+01 0.76583125741E+01 0.69569421105E+01 0.66468190663E+01 0.65129738057E+01
 0.64736430897E+01 0.65129738057E+01 0.66468190663E+01 0.69569421105E+01 0.76583125741E+01
 0.91639359138E+01 0.12174476651E+02 0.19019751669E+02 0.34033247675E+02 0.59745909804E+02
 0.94646523017E+02 0.13305733302E+03 0.16730077484E+03 0.19060050283E+03 0.27005692856E+03
 0.25960116424E+03 0.22960246234E+03 0.18468355365E+03 0.13305733302E+03 0.84731984192E+02
 0.47754057299E+02 0.25057208403E+02 0.14222961491E+02 0.99201255689E+01 0.79305551573E+01
 0.70297119816E+01 0.66431613164E+01 0.64783456206E+01 0.64295692835E+01 0.64783456206E+01
 0.66431613164E+01 0.70297119816E+01 0.79305551573E+01 0.99201255689E+01 0.14222961491E+02
 0.25057208403E+02 0.47754057299E+02 0.84731984192E+02 0.13305733302E+03 0.18468355365E+03
 0.22960246234E+03 0.25960116424E+03 0.32974345941E+03 0.31768560022E+03 0.28275683192E+03
 0.22960246234E+03 0.16730077484E+03 0.10768584364E+03 0.60871105447E+02 0.31155748941E+02
 0.16376967596E+02 0.10602942295E+02 0.81717298007E+01 0.70916997700E+01 0.66382649486E+01
 0.64468182051E+01 0.63899041478E+01 0.64468182051E+01 0.66382649486E+01 0.70916997700E+01
 0.81717298007E+01 0.10602942295E+02 0.16376967596E+02 0.31155748941E+02 0.60871105447E+02
 0.10768584364E+03 0.16730077484E+03 0.22960246234E+03 0.28275683192E+03 0.31768560022E+03
 0.36834109381E+03 0.35541082350E+03 0.31768560022E+03 0.25960116424E+03 0.19060050283E+03
 0.12363839405E+03 0.70230206818E+02 0.35667860481E+02 0.18040984213E+02 0.11086397949E+02
 0.83388434972E+01 0.71335794453E+01 0.66342735756E+01 0.64248507880E+01 0.63624508954E+01
 0.64248507880E+01 0.66342735756E+01 0.71335794453E+01 0.83388434972E+01 0.11086397949E+02
 0.18040984213E+02 0.35667860481E+02 0.70230206818E+02 0.12363839405E+03 0.19060050283E+03
 0.25960116424E+03 0.31768560022E+03 0.35541082350E+03 0.34208232474E+03 0.32974345941E+03
 0.29391533730E+03 0.23917833519E+03 0.17472904594E+03 0.11276079614E+03 0.63836266862E+02
 0.32573663597E+02 0.16892108380E+02 0.10752878042E+02 0.82223945557E+01 0.71026544539E+01
 0.66347006252E+01 0.64375727341E+01 0.63789247334E+01 0.64375727341E+01 0.66347006252E+01
 0.71026544539E+01 0.82223945557E+01 0.10752878042E+02 0.16892108380E+02 0.32573663597E+02
 0.63836266862E+02 0.11276079614E+03 0.17472904594E+03 0.23917833519E+03 0.29391533730E+03
 0.32974345941E+03 0.32974345941E+03 0.31768560022E+03 0.28275683192E+03 0.22960246234E+03
 0.16730077484E+03 0.10768584364E+03 0.60871105447E+02 0.31155748941E+02 0.16376967596E+02
 0.10602942295E+02 0.81717298007E+01 0.70916997700E+01 0.66382649486E+01 0.64468182051E+01
 0.63899041478E+01 0.64468182051E+01 0.66382649486E+01 0.70916997700E+01 0.81717298007E+01
 0.10602942295E+02 0.16376967596E+02 0.31155748941E+02 0.60871105447E+02 0.10768584364E+03
 0.16730077484E+03 0.22960246234E+03 0.28275683192E+03 0.31768560022E+03 0.29391533730E+03
 0.28275683192E+03 0.25063899817E+03 0.20228105642E+03 0.14631811232E+03 0.93510638308E+02