   2   2   0   0
  0.1348570E+02  0.2998940E-09  0.2998940E-09  0.2998940E-09  0.5000000E-15
  1.000000000000000E-004
  CAR 
 V                                       
     74.23707171    -60.10587783  301      9.70903364      1.00000000
    -60.106  0.0000E+00  0.0000E+00
    -59.658  0.0000E+00  0.0000E+00
    -59.210  0.0000E+00  0.0000E+00
    -58.762  0.0000E+00  0.0000E+00
    -58.315  0.0000E+00  0.0000E+00
    -57.867  0.0000E+00  0.0000E+00
    -57.419  0.0000E+00  0.0000E+00
    -56.971  0.0000E+00  0.0000E+00
    -56.523  0.0000E+00  0.0000E+00
    -56.076  0.0000E+00  0.0000E+00
    -55.628  0.0000E+00  0.0000E+00
    -55.180  0.0000E+00  0.0000E+00
    -54.732  0.0000E+00  0.0000E+00
    -54.284  0.3390E-17  0.1518E-17
    -53.837  0.2788E+01  0.1249E+01
    -53.389  0.3034E+01  0.4000E+01
    -52.941  0.0000E+00  0.4000E+01
    -52.493  0.0000E+00  0.4000E+01
    -52.045  0.0000E+00  0.4000E+01
    -51.597  0.0000E+00  0.4000E+01
    -51.150  0.0000E+00  0.4000E+01
    -50.702  0.0000E+00  0.4000E+01
    -50.254  0.0000E+00  0.4000E+01
    -49.806  0.0000E+00  0.4000E+01
    -49.358  0.0000E+00  0.4000E+01
    -48.911  0.0000E+00  0.4000E+01
    -48.463  0.0000E+00  0.4000E+01
    -48.015  0.0000E+00  0.4000E+01
    -47.567  0.0000E+00  0.4000E+01
    -47.119  0.0000E+00  0.4000E+01
    -46.672  0.0000E+00  0.4000E+01
    -46.224  0.0000E+00  0.4000E+01
    -45.776  0.0000E+00  0.4000E+01
    -45.328  0.0000E+00  0.4000E+01
    -44.880  0.0000E+00  0.4000E+01
    -44.433  0.0000E+00  0.4000E+01
    -43.985  0.0000E+00  0.4000E+01
    -43.537  0.0000E+00  0.4000E+01
    -43.089  0.0000E+00  0.4000E+01
    -42.641  0.0000E+00  0.4000E+01
    -42.193  0.0000E+00  0.4000E+01
    -41.746  0.0000E+00  0.4000E+01
    -41.298  0.0000E+00  0.4000E+01
    -40.850  0.0000E+00  0.4000E+01
    -40.402  0.0000E+00  0.4000E+01
    -39.954  0.0000E+00  0.4000E+01
    -39.507  0.0000E+00  0.4000E+01
    -39.059  0.0000E+00  0.4000E+01
    -38.611  0.0000E+00  0.4000E+01
    -38.163  0.0000E+00  0.4000E+01
    -37.715  0.0000E+00  0.4000E+01
    -37.268  0.0000E+00  0.4000E+01
    -36.820  0.0000E+00  0.4000E+01
    -36.372  0.0000E+00  0.4000E+01
    -35.924  0.0000E+00  0.4000E+01
    -35.476  0.0000E+00  0.4000E+01
    -35.029  0.0000E+00  0.4000E+01
    -34.581  0.0000E+00  0.4000E+01
    -34.133  0.0000E+00  0.4000E+01
    -33.685  0.0000E+00  0.4000E+01
    -33.237  0.0000E+00  0.4000E+01
    -32.789  0.0000E+00  0.4000E+01
    -32.342  0.0000E+00  0.4000E+01
    -31.894  0.0000E+00  0.4000E+01
    -31.446  0.0000E+00  0.4000E+01
    -30.998  0.0000E+00  0.4000E+01
    -30.550  0.0000E+00  0.4000E+01
    -30.103  0.0000E+00  0.4000E+01
    -29.655  0.0000E+00  0.4000E+01
    -29.207  0.0000E+00  0.4000E+01
    -28.759  0.0000E+00  0.4000E+01
    -28.311  0.1863E-03  0.4000E+01
    -27.864  0.8051E+01  0.7605E+01
    -27.416  0.1304E+02  0.1391E+02
    -26.968  0.2487E+01  0.1600E+02
    -26.520  0.0000E+00  0.1600E+02
    -26.072  0.0000E+00  0.1600E+02
    -25.625  0.0000E+00  0.1600E+02
    -25.177  0.0000E+00  0.1600E+02
    -24.729  0.0000E+00  0.1600E+02
    -24.281  0.0000E+00  0.1600E+02
    -23.833  0.0000E+00  0.1600E+02
    -23.385  0.0000E+00  0.1600E+02
    -22.938  0.0000E+00  0.1600E+02
    -22.490  0.0000E+00  0.1600E+02
    -22.042  0.0000E+00  0.1600E+02
    -21.594  0.0000E+00  0.1600E+02
    -21.146  0.0000E+00  0.1600E+02
    -20.699  0.0000E+00  0.1600E+02
    -20.251  0.0000E+00  0.1600E+02
    -19.803  0.0000E+00  0.1600E+02
    -19.355  0.0000E+00  0.1600E+02
    -18.907  0.0000E+00  0.1600E+02
    -18.460  0.0000E+00  0.1600E+02
    -18.012  0.0000E+00  0.1600E+02
    -17.564  0.0000E+00  0.1600E+02
    -17.116  0.0000E+00  0.1600E+02
    -16.668  0.0000E+00  0.1600E+02
    -16.221  0.0000E+00  0.1600E+02
    -15.773  0.0000E+00  0.1600E+02
    -15.325  0.0000E+00  0.1600E+02
    -14.877  0.0000E+00  0.1600E+02
    -14.429  0.0000E+00  0.1600E+02
    -13.981  0.0000E+00  0.1600E+02
    -13.534  0.0000E+00  0.1600E+02
    -13.086  0.0000E+00  0.1600E+02
    -12.638  0.0000E+00  0.1600E+02
    -12.190  0.0000E+00  0.1600E+02
    -11.742  0.0000E+00  0.1600E+02
    -11.295  0.0000E+00  0.1600E+02
    -10.847  0.0000E+00  0.1600E+02
    -10.399  0.0000E+00  0.1600E+02
     -9.951  0.0000E+00  0.1600E+02
     -9.503  0.0000E+00  0.1600E+02
     -9.056  0.0000E+00  0.1600E+02
     -8.608  0.0000E+00  0.1600E+02
     -8.160  0.0000E+00  0.1600E+02
     -7.712  0.0000E+00  0.1600E+02
     -7.264  0.0000E+00  0.1600E+02
     -6.817  0.0000E+00  0.1600E+02
     -6.369  0.0000E+00  0.1600E+02
     -5.921  0.0000E+00  0.1600E+02
     -5.473  0.0000E+00  0.1600E+02
     -5.025  0.0000E+00  0.1600E+02
     -4.577  0.0000E+00  0.1600E+02
     -4.130  0.0000E+00  0.1600E+02
     -3.682  0.0000E+00  0.1600E+02
     -3.234  0.0000E+00  0.1600E+02
     -2.786  0.0000E+00  0.1600E+02
     -2.338  0.0000E+00  0.1600E+02
     -1.891  0.0000E+00  0.1600E+02
     -1.443  0.0000E+00  0.1600E+02
     -0.995  0.0000E+00  0.1600E+02
     -0.547  0.0000E+00  0.1600E+02
     -0.099  0.0000E+00  0.1600E+02
      0.348  0.0000E+00  0.1600E+02
      0.796  0.0000E+00  0.1600E+02
      1.244  0.0000E+00  0.1600E+02
      1.692  0.0000E+00  0.1600E+02
      2.140  0.0000E+00  0.1600E+02
      2.587  0.0000E+00  0.1600E+02
      3.035  0.2046E-03  0.1600E+02
      3.483  0.5900E-01  0.1603E+02
      3.931  0.1054E+00  0.1607E+02
      4.379  0.1207E+00  0.1613E+02
      4.827  0.3183E+00  0.1627E+02
      5.274  0.7671E-01  0.1635E+02
      5.722  0.3305E+00  0.1651E+02
      6.170  0.4096E+00  0.1676E+02
      6.618  0.7105E+00  0.1708E+02
      7.066  0.2085E+01  0.1808E+02
      7.513  0.1709E+01  0.1902E+02
      7.961  0.1051E+01  0.1998E+02
      8.409  0.1775E+01  0.2078E+02
      8.857  0.3894E+01  0.2263E+02
      9.305  0.3090E+01  0.2425E+02
      9.752  0.3828E+01  0.2622E+02
     10.200  0.1817E+01  0.2730E+02
     10.648  0.9871E+00  0.2782E+02
     11.096  0.9557E+00  0.2826E+02
     11.544  0.2041E+01  0.2922E+02
     11.992  0.3338E+01  0.3097E+02
     12.439  0.4854E+01  0.3348E+02
     12.887  0.3687E+01  0.3559E+02
     13.335  0.2770E+01  0.3687E+02
     13.783  0.1130E+01  0.3750E+02
     14.231  0.6281E+00  0.3782E+02
     14.678  0.7416E+00  0.3816E+02
     15.126  0.7526E+00  0.3856E+02
     15.574  0.2095E+00  0.3869E+02
     16.022  0.8382E+00  0.3907E+02
     16.470  0.2238E+00  0.3917E+02
     16.917  0.5235E+00  0.3940E+02
     17.365  0.6099E+00  0.3968E+02
     17.813  0.2093E+00  0.3978E+02
     18.261  0.1047E+00  0.3982E+02
     18.709  0.5329E-01  0.3985E+02
     19.156  0.3791E+00  0.4002E+02
     19.604  0.1366E+00  0.4008E+02
     20.052  0.1133E+01  0.4068E+02
     20.500  0.8647E+00  0.4109E+02
     20.948  0.1082E+01  0.4178E+02
     21.396  0.7439E+00  0.4211E+02
     21.843  0.4091E+00  0.4239E+02
     22.291  0.1667E+01  0.4315E+02
     22.739  0.4970E+00  0.4337E+02
     23.187  0.1255E+01  0.4396E+02
     23.635  0.4603E+00  0.4417E+02
     24.082  0.1115E+01  0.4468E+02
     24.530  0.8558E+00  0.4513E+02
     24.978  0.1042E+01  0.4568E+02
     25.426  0.4185E+00  0.4591E+02
     25.874  0.8808E+00  0.4631E+02
     26.321  0.1032E+01  0.4698E+02
     26.769  0.1319E+01  0.4761E+02
     27.217  0.8212E+00  0.4798E+02
     27.665  0.1063E+01  0.4860E+02
     28.113  0.6793E+00  0.4892E+02
     28.560  0.1258E+01  0.4962E+02
     29.008  0.1658E+01  0.5036E+02
     29.456  0.9037E+00  0.5082E+02
     29.904  0.1011E+01  0.5138E+02
     30.352  0.6460E+00  0.5171E+02
     30.800  0.9864E+00  0.5216E+02
     31.247  0.1001E+01  0.5264E+02
     31.695  0.5684E+00  0.5289E+02
     32.143  0.1036E+00  0.5294E+02
     32.591  0.1411E+01  0.5357E+02
     33.039  0.9516E+00  0.5412E+02
     33.486  0.1010E+01  0.5457E+02
     33.934  0.1193E+01  0.5511E+02
     34.382  0.6182E+00  0.5545E+02
     34.830  0.2108E+00  0.5554E+02
     35.278  0.1314E+01  0.5613E+02
     35.725  0.1693E+01  0.5706E+02
     36.173  0.1095E+01  0.5756E+02
     36.621  0.7054E+00  0.5790E+02
     37.069  0.7888E+00  0.5831E+02
     37.517  0.1065E+01  0.5891E+02
     37.964  0.1411E+01  0.5963E+02
     38.412  0.6008E+00  0.5997E+02
     38.860  0.1716E+01  0.6079E+02
     39.308  0.9064E+00  0.6127E+02
     39.756  0.8718E+00  0.6173E+02
     40.204  0.1348E+01  0.6238E+02
     40.651  0.9146E+00  0.6282E+02
     41.099  0.1751E+01  0.6363E+02
     41.547  0.6853E+00  0.6400E+02
     41.995  0.7122E+00  0.6433E+02
     42.443  0.6730E+00  0.6472E+02
     42.890  0.1812E+01  0.6559E+02
     43.338  0.1374E+01  0.6636E+02
     43.786  0.8108E+00  0.6676E+02
     44.234  0.2136E+01  0.6773E+02
     44.682  0.8060E+00  0.6826E+02
     45.129  0.1316E+01  0.6891E+02
     45.577  0.1058E+01  0.6942E+02
     46.025  0.5567E+00  0.6985E+02
     46.473  0.1048E+01  0.7043E+02
     46.921  0.4210E+00  0.7062E+02
     47.368  0.1070E+01  0.7110E+02
     47.816  0.1772E+01  0.7198E+02
     48.264  0.2122E+01  0.7297E+02
     48.712  0.3707E+00  0.7333E+02
     49.160  0.1232E+01  0.7389E+02
     49.608  0.6132E+00  0.7422E+02
     50.055  0.1928E+01  0.7510E+02
     50.503  0.5566E+00  0.7543E+02
     50.951  0.9252E+00  0.7584E+02
     51.399  0.1330E+01  0.7652E+02
     51.847  0.1074E+01  0.7730E+02
     52.294  0.6055E+00  0.7760E+02
     52.742  0.2113E+01  0.7874E+02
     53.190  0.1662E+01  0.7971E+02
     53.638  0.6127E+00  0.8014E+02
     54.086  0.2029E+01  0.8107E+02
     54.533  0.1398E+01  0.8171E+02
     54.981  0.2526E+01  0.8285E+02
     55.429  0.2165E+01  0.8397E+02
     55.877  0.8825E+00  0.8438E+02
     56.325  0.5870E+00  0.8474E+02
     56.772  0.1069E+01  0.8526E+02
     57.220  0.1348E+01  0.8597E+02
     57.668  0.9970E+00  0.8648E+02
     58.116  0.8128E+00  0.8693E+02
     58.564  0.5418E+00  0.8725E+02
     59.012  0.7020E+00  0.8763E+02
     59.459  0.1067E+01  0.8811E+02
     59.907  0.1578E+01  0.8890E+02
     60.355  0.1570E+01  0.8971E+02
     60.803  0.1225E+01  0.9035E+02
     61.251  0.1574E+01  0.9108E+02
     61.698  0.6713E+00  0.9156E+02
     62.146  0.1220E+01  0.9217E+02
     62.594  0.1186E+01  0.9277E+02
     63.042  0.5220E+00  0.9309E+02
     63.490  0.7510E+00  0.9347E+02
     63.937  0.1925E+01  0.9442E+02
     64.385  0.5496E+00  0.9472E+02
     64.833  0.6096E+00  0.9507E+02
     65.281  0.4176E-01  0.9512E+02
     65.729  0.6171E+00  0.9542E+02
     66.176  0.4636E+00  0.9565E+02
     66.624  0.3140E+00  0.9579E+02
     67.072  0.1355E+00  0.9585E+02
     67.520  0.3891E-03  0.9586E+02
     67.968  0.2090E+00  0.9595E+02
     68.416  0.1047E+00  0.9600E+02
     68.863  0.0000E+00  0.9600E+02
     69.311  0.0000E+00  0.9600E+02
     69.759  0.0000E+00  0.9600E+02
     70.207  0.0000E+00  0.9600E+02
     70.655  0.0000E+00  0.9600E+02
     71.102  0.0000E+00  0.9600E+02
     71.550  0.0000E+00  0.9600E+02
     71.998  0.0000E+00  0.9600E+02
     72.446  0.0000E+00  0.9600E+02
     72.894  0.0000E+00  0.9600E+02
     73.341  0.0000E+00  0.9600E+02
     73.789  0.0000E+00  0.9600E+02
     74.237  0.0000E+00  0.9600E+02
