    2    2    1    1
  0.1348570E+02  0.2998940E-09  0.2998940E-09  0.2998940E-09  0.5000000E-15
  1.000000000000000E-004
  CAR 
 V                                       
     26     35     48
 
  0.0000000E+00  0.0000000E+00  0.0000000E+00  0.1953125E-02
      1        -53.999380   1.000000
      2        -53.666285   1.000000
      3        -27.930574   1.000000
      4        -27.930574   1.000000
      5        -27.930574   1.000000
      6        -27.317335   1.000000
      7        -27.317335   1.000000
      8        -27.317335   1.000000
      9          3.105567   1.000000
     10          6.710320   1.000000
     11          6.710320   1.000000
     12         10.119598   0.000000
     13         10.119598   0.000000
     14         10.119598   0.000000
     15         12.115052   0.000000
     16         12.115052   0.000000
     17         13.425540   0.000000
     18         13.425540   0.000000
     19         13.425540   0.000000
     20         19.888109   0.000000
     21         19.888109   0.000000
     22         19.888109   0.000000
     23         26.608369   0.000000
     24         26.608369   0.000000
     25         30.171475   0.000000
     26         30.171475   0.000000
     27         30.171475   0.000000
     28         31.525821   0.000000
     29         37.209464   0.000000
     30         37.209464   0.000000
     31         41.475958   0.000000
     32         41.475958   0.000000
     33         41.475958   0.000000
     34         41.973291   0.000000
     35         42.184787   0.000000
     36         42.184787   0.000000
     37         42.184787   0.000000
     38         53.008744   0.000000
     39         53.008744   0.000000
     40         53.008744   0.000000
     41         54.735602   0.000000
     42         54.735602   0.000000
     43         54.735602   0.000000
     44         55.614715   0.000000
     45         63.790680   0.000000
     46         64.946957   0.000000
     47         64.946957   0.000000
     48         64.946957   0.000000
 
  0.1250000E+00  0.3936050E-32  0.0000000E+00  0.1171875E-01
      1        -53.984235   1.000000
      2        -53.677222   1.000000
      3        -27.932105   1.000000
      4        -27.905984   1.000000
      5        -27.905984   1.000000
      6        -27.366067   1.000000
      7        -27.339097   1.000000
      8        -27.339097   1.000000
      9          3.419281   1.000000
     10          6.879565   1.000000
     11          6.883442   1.000000
     12         10.100510   0.000000
     13         10.100510   0.000000
     14         10.231396   0.000000
     15         11.865892   0.000000
     16         12.207854   0.000000
     17         12.970283   0.000000
     18         12.970283   0.000000
     19         13.283188   0.000000
     20         18.657146   0.000000
     21         20.655480   0.000000
     22         20.655480   0.000000
     23         26.610857   0.000000
     24         27.182938   0.000000
     25         29.479141   0.000000
     26         30.413918   0.000000
     27         30.413918   0.000000
     28         32.426734   0.000000
     29         35.410655   0.000000
     30         38.702015   0.000000
     31         39.223884   0.000000
     32         39.223884   0.000000
     33         41.427512   0.000000
     34         41.811768   0.000000
     35         43.456213   0.000000
     36         44.677863   0.000000
     37         44.677863   0.000000
     38         50.254100   0.000000
     39         50.254100   0.000000
     40         52.276251   0.000000
     41         55.600209   0.000000
     42         56.048477   0.000000
     43         57.037965   0.000000
     44         57.037965   0.000000
     45         63.016407   0.000000
     46         65.387828   0.000000
     47         65.509424   0.000000
     48         65.509424   0.000000
 
  0.2500000E+00  0.7872100E-32  0.0000000E+00  0.1171875E-01
      1        -53.943232   1.000000
      2        -53.708068   1.000000
      3        -27.924859   1.000000
      4        -27.836276   1.000000
      5        -27.836276   1.000000
      6        -27.493804   1.000000
      7        -27.402122   1.000000
      8        -27.402122   1.000000
      9          4.301479   1.000000
     10          7.261176   1.000000
     11          7.374059   1.000000
     12         10.092415   0.000000
     13         10.092415   0.000000
     14         10.554990   0.000000
     15         11.176777   0.000000
     16         12.049539   0.000000
     17         12.049539   0.000000
     18         12.452045   0.000000
     19         12.886103   0.000000
     20         16.394807   0.000000
     21         22.494893   0.000000
     22         22.494893   0.000000
     23         26.632713   0.000000
     24         27.525104   0.000000
     25         28.336952   0.000000
     26         30.622261   0.000000
     27         30.622261   0.000000
     28         32.436240   0.000000
     29         35.298661   0.000000
     30         37.548445   0.000000
     31         37.548445   0.000000
     32         41.307715   0.000000
     33         41.483110   0.000000
     34         42.170660   0.000000
     35         45.108334   0.000000
     36         46.718871   0.000000
     37         46.718871   0.000000
     38         47.568314   0.000000
     39         47.568314   0.000000
     40         50.871367   0.000000
     41         54.622127   0.000000
     42         57.995012   0.000000
     43         58.457014   0.000000
     44         58.457014   0.000000
     45         62.269093   0.000000
     46         63.601253   0.000000
     47         67.043055   0.000000
     48         67.043055   0.000000
 
  0.3750000E+00  0.1952296E-31  0.0000000E+00  0.1171875E-01
      1        -53.884398   1.000000
      2        -53.757307   1.000000
      3        -27.885285   1.000000
      4        -27.733567   1.000000
      5        -27.733567   1.000000
      6        -27.652940   1.000000
      7        -27.498406   1.000000
      8        -27.498406   1.000000
      9          5.558447   1.000000
     10          7.400841   1.000000
     11          8.152624   1.000000
     12         10.202706   0.000000
     13         10.207685   0.000000
     14         10.207685   0.000000
     15         11.054191   0.000000
     16         11.177894   0.000000
     17         11.177894   0.000000
     18         12.313262   0.000000
     19         12.786768   0.000000
     20         14.434786   0.000000
     21         24.831036   0.000000
     22         24.831036   0.000000
     23         26.725355   0.000000
     24         27.476799   0.000000
     25         27.611628   0.000000
     26         29.538218   0.000000
     27         29.538218   0.000000
     28         29.876077   0.000000
     29         37.964942   0.000000
     30         37.964942   0.000000
     31         39.408933   0.000000
     32         41.171148   0.000000
     33         41.213518   0.000000
     34         43.276208   0.000000
     35         43.276208   0.000000
     36         46.037166   0.000000
     37         46.699095   0.000000
     38         49.559516   0.000000
     39         50.419561   0.000000
     40         50.555290   0.000000
     41         50.555290   0.000000
     42         56.768002   0.000000
     43         56.768002   0.000000
     44         57.747589   0.000000
     45         61.543392   0.000000
     46         64.678991   0.000000
     47         68.130574   0.000000
     48         68.130574   0.000000
 
  0.5000000E+00  0.1574420E-31  0.0000000E+00  0.5859375E-02
      1        -53.818762   1.000000
      2        -53.818762   1.000000
      3        -27.793680   1.000000
      4        -27.793680   1.000000
      5        -27.614623   1.000000
      6        -27.614623   1.000000
      7        -27.614623   1.000000
      8        -27.614623   1.000000
      9          6.788845   1.000000
     10          6.788845   1.000000
     11          9.137233   1.000000
     12          9.137233   1.000000
     13         10.552372   0.000000
     14         10.552372   0.000000
     15         10.552372   0.000000
     16         10.552372   0.000000
     17         11.668484   0.000000
     18         11.668484   0.000000
     19         13.302421   0.000000
     20         13.302421   0.000000
     21         26.971421   0.000000
     22         26.971421   0.000000
     23         27.319736   0.000000
     24         27.319736   0.000000
     25         27.319736   0.000000
     26         27.319736   0.000000
     27         28.250171   0.000000
     28         28.250171   0.000000
     29         40.200414   0.000000
     30         40.200414   0.000000
     31         40.200414   0.000000
     32         40.200414   0.000000
     33         41.112179   0.000000
     34         41.112179   0.000000
     35         43.875363   0.000000
     36         43.875363   0.000000
     37         48.681585   0.000000
     38         48.681585   0.000000
     39         51.963183   0.000000
     40         51.963183   0.000000
     41         53.688472   0.000000
     42         53.688472   0.000000
     43         53.688472   0.000000
     44         53.688472   0.000000
     45         65.956840   0.000000
     46         65.956840   0.000000
     47         66.816733   0.000000
     48         66.816733   0.000000
 
  0.1250000E+00  0.1250000E+00  0.0000000E+00  0.2343750E-01
      1        -53.970229   1.000000
      2        -53.687028   1.000000
      3        -27.973030   1.000000
      4        -27.883135   1.000000
      5        -27.844685   1.000000
      6        -27.453660   1.000000
      7        -27.358938   1.000000
      8        -27.317924   1.000000
      9          3.720711   1.000000
     10          7.024085   1.000000
     11          7.069158   1.000000
     12          9.865482   0.000005
     13         10.035380   0.000000
     14         10.560140   0.000000
     15         11.872391   0.000000
     16         12.135800   0.000000
     17         12.321001   0.000000
     18         12.538957   0.000000
     19         13.481497   0.000000
     20         18.911947   0.000000
     21         19.764780   0.000000
     22         21.277709   0.000000
     23         26.845977   0.000000
     24         27.831733   0.000000
     25         29.040933   0.000000
     26         29.927390   0.000000
     27         30.685208   0.000000
     28         33.150433   0.000000
     29         35.964562   0.000000
     30         37.600995   0.000000
     31         37.776333   0.000000
     32         39.068991   0.000000
     33         41.441281   0.000000
     34         42.115598   0.000000
     35         45.152853   0.000000
     36         45.214954   0.000000
     37         45.619667   0.000000
     38         47.924507   0.000000
     39         50.019126   0.000000
     40         54.018097   0.000000
     41         54.181376   0.000000
     42         56.624974   0.000000
     43         56.775846   0.000000
     44         59.321835   0.000000
     45         62.548505   0.000000
     46         64.257665   0.000000
     47         66.026173   0.000000
     48         66.317317   0.000000
 
  0.2500000E+00  0.1250000E+00  0.0000000E+00  0.4687500E-01
      1        -53.932183   1.000000
      2        -53.715024   1.000000
      3        -27.997925   1.000000
      4        -27.818046   1.000000
      5        -27.751609   1.000000
      6        -27.603743   1.000000
      7        -27.416642   1.000000
      8        -27.346853   1.000000
      9          4.561266   1.000000
     10          7.370480   1.000000
     11          7.543427   1.000000
     12          9.697526   0.627593
     13          9.899882   0.000000
     14         11.040788   0.000000
     15         11.388076   0.000000
     16         11.451142   0.000000
     17         11.732705   0.000000
     18         12.357026   0.000000
     19         13.324335   0.000000
     20         16.812339   0.000000
     21         21.044886   0.000000
     22         22.896589   0.000000
     23         26.864988   0.000000
     24         27.629024   0.000000
     25         28.748301   0.000000
     26         29.344492   0.000000
     27         30.974308   0.000000
     28         34.517238   0.000000
     29         35.672075   0.000000
     30         36.102490   0.000000
     31         36.882234   0.000000
     32         40.578709   0.000000
     33         41.384435   0.000000
     34         42.538850   0.000000
     35         45.004955   0.000000
     36         46.139102   0.000000
     37         47.918753   0.000000
     38         47.980314   0.000000
     39         48.190324   0.000000
     40         53.104269   0.000000
     41         55.190520   0.000000
     42         55.792213   0.000000
     43         57.630403   0.000000
     44         60.947417   0.000000
     45         61.659473   0.000000
     46         63.099021   0.000000
     47         64.276807   0.000000
     48         65.390056   0.000000
 
  0.3750000E+00  0.1250000E+00  0.0000000E+00  0.4687500E-01
      1        -53.876918   1.000000
      2        -53.759335   1.000000
      3        -27.979093   1.000000
      4        -27.766947   1.000000
      5        -27.722175   1.000000
      6        -27.641499   1.000000
      7        -27.504911   1.000000
      8        -27.421858   1.000000
      9          5.737866   1.000000
     10          7.477949   1.000000
     11          8.223204   1.000000
     12          9.651156   0.949188
     13          9.717855   0.401486
     14         10.565911   0.000000
     15         10.969885   0.000000
     16         11.155364   0.000000
     17         11.617298   0.000000
     18         12.717957   0.000000
     19         12.859979   0.000000
     20         14.688040   0.000000
     21         22.829683   0.000000
     22         25.091081   0.000000
     23         26.151441   0.000000
     24         26.903570   0.000000
     25         28.143262   0.000000
     26         29.502052   0.000000
     27         29.816243   0.000000
     28         32.625533   0.000000
     29         36.329480   0.000000
     30         37.417039   0.000000
     31         39.309021   0.000000
     32         39.425025   0.000000
     33         42.456866   0.000000
     34         42.912468   0.000000
     35         44.957225   0.000000
     36         45.493876   0.000000
     37         47.320346   0.000000
     38         50.555729   0.000000
     39         50.732996   0.000000
     40         51.295943   0.000000
     41         52.601458   0.000000
     42         55.110875   0.000000
     43         56.057328   0.000000
     44         59.586409   0.000000
     45         61.217356   0.000000
     46         63.572950   0.000000
     47         63.721240   0.000000
     48         67.622497   0.000000
 
  0.5000000E+00  0.1250000E+00  0.0000000E+00  0.2343750E-01
      1        -53.815904   1.000000
      2        -53.815904   1.000000
      3        -27.901193   1.000000
      4        -27.901193   1.000000
      5        -27.611947   1.000000
      6        -27.611947   1.000000
      7        -27.526040   1.000000
      8        -27.526040   1.000000
      9          6.872992   1.000000
     10          6.872992   1.000000
     11          9.020377   1.000000
     12          9.020377   1.000000
     13          9.997080   0.000000
     14          9.997080   0.000000
     15         10.921214   0.000000
     16         10.921214   0.000000
     17         12.250303   0.000000
     18         12.250303   0.000000
     19         13.329925   0.000000
     20         13.329925   0.000000
     21         24.557141   0.000000
     22         24.557141   0.000000
     23         27.238938   0.000000
     24         27.238938   0.000000
     25         27.530676   0.000000
     26         27.530676   0.000000
     27         30.782012   0.000000
     28         30.782012   0.000000
     29         37.889764   0.000000
     30         37.889764   0.000000
     31         39.271665   0.000000
     32         39.271665   0.000000
     33         43.756134   0.000000
     34         43.756134   0.000000
     35         44.108226   0.000000
     36         44.108226   0.000000
     37         49.853921   0.000000
     38         49.853921   0.000000
     39         50.845014   0.000000
     40         50.845014   0.000000
     41         53.714719   0.000000
     42         53.714719   0.000000
     43         55.369726   0.000000
     44         55.369726   0.000000
     45         64.564971   0.000000
     46         64.564971   0.000000
     47         64.567017   0.000000
     48         64.567017   0.000000
 
  0.2500000E+00  0.2500000E+00  0.0000000E+00  0.2343750E-01
      1        -53.900938   1.000000
      2        -53.735003   1.000000
      3        -28.074186   1.000000
      4        -27.775684   1.000000
      5        -27.766337   1.000000
      6        -27.632840   1.000000
      7        -27.458904   1.000000
      8        -27.320044   1.000000
      9          5.252386   1.000000
     10          7.451295   1.000000
     11          8.109949   1.000000
     12          9.297077   1.000000
     13          9.683383   0.765933
     14         10.466942   0.000000
     15         11.278846   0.000000
     16         11.733351   0.000000
     17         11.792901   0.000000
     18         12.227956   0.000000
     19         13.618784   0.000000
     20         16.798012   0.000000
     21         19.723662   0.000000
     22         24.070257   0.000000
     23         25.802123   0.000000
     24         26.704383   0.000000
     25         28.258924   0.000000
     26         30.863591   0.000000
     27         31.770165   0.000000
     28         33.831376   0.000000
     29         36.165463   0.000000
     30         36.969613   0.000000
     31         37.043105   0.000000
     32         38.953838   0.000000
     33         40.291874   0.000000
     34         42.847853   0.000000
     35         44.244533   0.000000
     36         47.964561   0.000000
     37         49.172958   0.000000
     38         49.965078   0.000000
     39         50.295393   0.000000
     40         53.005631   0.000000
     41         56.140360   0.000000
     42         56.368349   0.000000
     43         57.629019   0.000000
     44         58.161696   0.000000
     45         58.309700   0.000000
     46         62.130356   0.000000
     47         63.959827   0.000000
     48         65.840419   0.000000
 
  0.3750000E+00  0.2500000E+00  0.0000000E+00  0.4687500E-01
      1        -53.857293   1.000000
      2        -53.767559   1.000000
      3        -28.100220   1.000000
      4        -27.940013   1.000000
      5        -27.691305   1.000000
      6        -27.524749   1.000000
      7        -27.517560   1.000000
      8        -27.347069   1.000000
      9          6.115714   1.000000
     10          7.310024   1.000000
     11          8.798317   1.000000
     12          9.128922   1.000000
     13          9.615364   0.995968
     14          9.719573   0.382812
     15         11.257715   0.000000
     16         11.678964   0.000000
     17         12.426703   0.000000
     18         12.527475   0.000000
     19         13.491615   0.000000
     20         14.992378   0.000000
     21         20.624144   0.000000
     22         23.882235   0.000000
     23         25.881893   0.000000
     24         26.505940   0.000000
     25         27.231528   0.000000
     26         30.542304   0.000000
     27         32.481245   0.000000
     28         33.947652   0.000000
     29         35.600184   0.000000
     30         37.117398   0.000000
     31         37.269634   0.000000
     32         38.527076   0.000000
     33         42.343669   0.000000
     34         42.350935   0.000000
     35         45.593496   0.000000
     36         48.839060   0.000000
     37         49.564536   0.000000
     38         51.358641   0.000000
     39         52.543401   0.000000
     40         52.836211   0.000000
     41         53.885931   0.000000
     42         54.253726   0.000000
     43         55.018970   0.000000
     44         58.689278   0.000000
     45         60.369580   0.000000
     46         60.896312   0.000000
     47         62.522396   0.000000
     48         65.392284   0.000000
 
  0.5000000E+00  0.2500000E+00  0.0000000E+00  0.2343750E-01
      1        -53.810072   1.000000
      2        -53.810072   1.000000
      3        -28.055745   1.000000
      4        -28.055745   1.000000
      5        -27.606074   1.000000
      6        -27.606074   1.000000
      7        -27.417664   1.000000
      8        -27.417664   1.000000
      9          6.848192   1.000000
     10          6.848192   1.000000
     11          9.262416   1.000000
     12          9.262416   1.000000
     13          9.368266   1.000000
     14          9.368266   1.000000
     15         11.527806   0.000000
     16         11.527806   0.000000
     17         13.047683   0.000000
     18         13.047683   0.000000
     19         13.323717   0.000000
     20         13.323717   0.000000
     21         22.136474   0.000000
     22         22.136474   0.000000
     23         26.602462   0.000000
     24         26.602462   0.000000
     25         28.123095   0.000000
     26         28.123095   0.000000
     27         34.024111   0.000000
     28         34.024111   0.000000
     29         35.566516   0.000000
     30         35.566516   0.000000
     31         37.905244   0.000000
     32         37.905244   0.000000
     33         44.146395   0.000000
     34         44.146395   0.000000
     35         47.018487   0.000000
     36         47.018487   0.000000
     37         49.270046   0.000000
     38         49.270046   0.000000
     39         53.700891   0.000000
     40         53.700891   0.000000
     41         53.787884   0.000000
     42         53.787884   0.000000
     43         55.915573   0.000000
     44         55.915573   0.000000
     45         62.312549   0.000000
     46         62.312549   0.000000
     47         62.384733   0.000000
     48         62.384733   0.000000
 
  0.3750000E+00  0.3750000E+00  0.0000000E+00  0.2343750E-01
      1        -53.830672   1.000000
      2        -53.782240   1.000000
      3        -28.173804   1.000000
      4        -28.087833   1.000000
      5        -27.647480   1.000000
      6        -27.557309   1.000000
      7        -27.415369   1.000000
      8        -27.322189   1.000000
      9          6.407418   1.000000
     10          6.945292   1.000000
     11          8.781713   1.000000
     12          9.081235   1.000000
     13          9.722725   0.349282
     14         10.205909   0.000000
     15         11.590424   0.000000
     16         12.047818   0.000000
     17         12.386971   0.000000
     18         13.133729   0.000000
     19         13.758811   0.000000
     20         14.376377   0.000000
     21         19.803249   0.000000
     22         21.899832   0.000000
     23         26.036385   0.000000
     24         26.339976   0.000000
     25         27.195205   0.000000
     26         30.696533   0.000000
     27         32.637934   0.000000
     28         35.132661   0.000000
     29         35.386878   0.000000
     30         36.094871   0.000000
     31         37.442185   0.000000
     32         39.566268   0.000000
     33         40.557548   0.000000
     34         43.931062   0.000000
     35         48.062350   0.000000
     36         49.545217   0.000000
     37         51.392716   0.000000
     38         51.966134   0.000000
     39         52.327727   0.000000
     40         52.503802   0.000000
     41         52.664802   0.000000
     42         55.115714   0.000000
     43         56.022553   0.000000
     44         59.480531   0.000000
     45         60.068049   0.000000
     46         60.509947   0.000000
     47         60.634068   0.000000
     48         63.220912   0.000000
 
  0.5000000E+00  0.3750000E+00  0.0000000E+00  0.2343750E-01
      1        -53.804180   1.000000
      2        -53.804180   1.000000
      3        -28.171940   1.000000
      4        -28.171940   1.000000
      5        -27.600120   1.000000
      6        -27.600120   1.000000
      7        -27.347238   1.000000
      8        -27.347238   1.000000
      9          6.635301   1.000000
     10          6.635301   1.000000
     11          8.758197   1.000000
     12          8.758197   1.000000
     13         10.429392   0.000000
     14         10.429392   0.000000
     15         11.968073   0.000000
     16         11.968073   0.000000
     17         13.013442   0.000000
     18         13.013442   0.000000
     19         13.614577   0.000000
     20         13.614577   0.000000
     21         20.449896   0.000000
     22         20.449896   0.000000
     23         25.890796   0.000000
     24         25.890796   0.000000
     25         28.934444   0.000000
     26         28.934444   0.000000
     27         33.751770   0.000000
     28         33.751770   0.000000
     29         36.384598   0.000000
     30         36.384598   0.000000
     31         37.666698   0.000000
     32         37.666698   0.000000
     33         44.114634   0.000000
     34         44.114634   0.000000
     35         48.185720   0.000000
     36         48.185720   0.000000
     37         50.124042   0.000000
     38         50.124042   0.000000
     39         54.055074   0.000000
     40         54.055074   0.000000
     41         54.422870   0.000000
     42         54.422870   0.000000
     43         57.684255   0.000000
     44         57.684255   0.000000
     45         59.940946   0.000000
     46         59.940946   0.000000
     47         62.148049   0.000000
     48         62.148049   0.000000
 
  0.5000000E+00  0.5000000E+00  0.0000000E+00  0.5859375E-02
      1        -53.801431   1.000000
      2        -53.801431   1.000000
      3        -28.214583   1.000000
      4        -28.214583   1.000000
      5        -27.597587   1.000000
      6        -27.597587   1.000000
      7        -27.323108   1.000000
      8        -27.323108   1.000000
      9          6.529654   1.000000
     10          6.529654   1.000000
     11          8.581075   1.000000
     12          8.581075   1.000000
     13         11.332023   0.000000
     14         11.332023   0.000000
     15         12.119347   0.000000
     16         12.119347   0.000000
     17         12.475568   0.000000
     18         12.475568   0.000000
     19         13.817623   0.000000
     20         13.817623   0.000000
     21         19.852875   0.000000
     22         19.852875   0.000000
     23         25.574481   0.000000
     24         25.574481   0.000000
     25         29.424947   0.000000
     26         29.424947   0.000000
     27         32.934703   0.000000
     28         32.934703   0.000000
     29         36.419582   0.000000
     30         36.419582   0.000000
     31         38.747149   0.000000
     32         38.747149   0.000000
     33         44.653152   0.000000
     34         44.653152   0.000000
     35         46.685120   0.000000
     36         46.685120   0.000000
     37         51.564771   0.000000
     38         51.564771   0.000000
     39         54.225040   0.000000
     40         54.225040   0.000000
     41         54.730542   0.000000
     42         54.730542   0.000000
     43         58.152431   0.000000
     44         58.152431   0.000000
     45         59.268737   0.000000
     46         59.268737   0.000000
     47         62.536422   0.000000
     48         62.536422   0.000000
 
  0.1250000E+00  0.1250000E+00  0.1250000E+00  0.1562500E-01
      1        -53.957433   1.000000
      2        -53.695641   1.000000
      3        -27.946850   1.000000
      4        -27.946850   1.000000
      5        -27.768017   1.000000
      6        -27.528750   1.000000
      7        -27.341415   1.000000
      8        -27.341415   1.000000
      9          4.013632   1.000000
     10          7.208930   1.000000
     11          7.208930   1.000000
     12          9.791205   0.010059
     13          9.791205   0.010059
     14         10.896450   0.000000
     15         11.484807   0.000000
     16         11.994069   0.000000
     17         11.994069   0.000000
     18         13.038957   0.000000
     19         13.038957   0.000000
     20         19.599079   0.000000
     21         19.599079   0.000000
     22         20.477606   0.000000
     23         27.917583   0.000000
     24         27.917583   0.000000
     25         28.988534   0.000000
     26         28.988534   0.000000
     27         30.949011   0.000000
     28         33.704140   0.000000
     29         35.298228   0.000000
     30         37.547936   0.000000
     31         37.547936   0.000000
     32         40.648956   0.000000
     33         40.648956   0.000000
     34         40.836182   0.000000
     35         44.652681   0.000000
     36         46.976373   0.000000
     37         46.976373   0.000000
     38         47.387191   0.000000
     39         50.771493   0.000000
     40         50.771493   0.000000
     41         56.969039   0.000000
     42         56.969039   0.000000
     43         57.514182   0.000000
     44         59.122702   0.000000
     45         63.053022   0.000000
     46         63.053022   0.000000
     47         65.308507   0.000000
     48         65.719952   0.000000
 
  0.2500000E+00  0.1250000E+00  0.1250000E+00  0.4687500E-01
      1        -53.921619   1.000000
      2        -53.720931   1.000000
      3        -27.999698   1.000000
      4        -27.872571   1.000000
      5        -27.673705   1.000000
      6        -27.668887   1.000000
      7        -27.409112   1.000000
      8        -27.349716   1.000000