 vasp.6.4.3 19Mar24 (build Jun 26 2024 13:02:28) complex                        
  
 executed on             LinuxIFC date 2025.08.08  18:48:16
 running   48 mpi-ranks, on    4 nodes
 distrk:  each k-point on   48 cores,    1 groups
 distr:  one band on NCORE=   1 cores,   48 groups


--------------------------------------------------------------------------------------------------------


 INCAR:
   ENCUT = 342.7749
   IBRION = -1
   ISMEAR = 0
   ISYM = 2
   LCHARG = True
   LWAVE = True
   SIGMA = 0.05
   SYSTEM = V

 POTCAR:  PAW_PBE V_sv 02Aug2007                  
 -----------------------------------------------------------------------------
|                                                                             |
|           W    W    AA    RRRRR   N    N  II  N    N   GGGG   !!!           |
|           W    W   A  A   R    R  NN   N  II  NN   N  G    G  !!!           |
|           W    W  A    A  R    R  N N  N  II  N N  N  G       !!!           |
|           W WW W  AAAAAA  RRRRR   N  N N  II  N  N N  G  GGG   !            |
|           WW  WW  A    A  R   R   N   NN  II  N   NN  G    G                |
|           W    W  A    A  R    R  N    N  II  N    N   GGGG   !!!           |
|                                                                             |
|     For optimal performance we recommend to set                             |
|       NCORE = 2 up to number-of-cores-per-socket                            |
|     NCORE specifies how many cores store one orbital (NPAR=cpu/NCORE).      |
|     This setting can greatly improve the performance of VASP for DFT.       |
|     The default, NCORE=1 might be grossly inefficient on modern             |
|     multi-core architectures or massively parallel machines. Do your        |
|     own testing! More info at https://www.vasp.at/wiki/index.php/NCORE      |
|     Unfortunately you need to use the default for GW and RPA                |
|     calculations (for HF NCORE is supported but not extensively tested      |
|     yet).                                                                   |
|                                                                             |
 -----------------------------------------------------------------------------

 POTCAR:  PAW_PBE V_sv 02Aug2007                  
   VRHFIN =V: p6 d4 s1                                                                              
   LEXCH  = PE                                                                                      
   EATOM  =  1952.1149 eV,  143.4764 Ry                                                             
                                                                                                    
   TITEL  = PAW_PBE V_sv 02Aug2007                                                                  
   LULTRA =        F    use ultrasoft PP ?                                                          
   IUNSCR =        1    unscreen: 0-lin 1-nonlin 2-no                                               
   RPACOR =    2.000    partial core radius                                                         
   POMASS =   50.941; ZVAL   =   13.000    mass and valenz                                          
   RCORE  =    2.300    outmost cutoff radius                                                       
   RWIGS  =    2.300; RWIGS  =    1.217    wigner-seitz radius (au A)                               
   ENMAX  =  263.673; ENMIN  =  197.755 eV                                                          
   ICORE  =        3    local potential                                                             
   LCOR   =        T    correct aug charges                                                         
   LPAW   =        T    paw PP                                                                      
   EAUG   =  526.568                                                                                
   RMAX   =    2.359    core radius for proj-oper                                                   
   RAUG   =    1.300    factor for augmentation sphere                                              
   RDEP   =    2.430    radius for radial grids                                                     
   RDEPT  =    1.870    core radius for aug-charge                                                  
                                                                                                    
   Atomic configuration                                                                             
    8 entries                                                                                       
     n  l   j            E        occ.                                                              
     1  0  0.50     -5360.7193   2.0000                                                             
     2  0  0.50      -598.4546   2.0000                                                             
     2  1  1.50      -499.0155   6.0000                                                             
     3  0  0.50       -66.5711   2.0000                                                             
     4  0  0.50        -3.8743   1.0000                                                             
     3  1  1.50       -40.5282   6.0000                                                             
     3  2  2.50        -2.4291   4.0000                                                             
     4  3  2.50        -1.3606   0.0000                                                             
   Description                                                                                      
     l       E           TYP  RCUT    TYP  RCUT                                                     
     0    -66.5711413     23  1.800                                                                 
     0     -3.8742736     23  2.300                                                                 
     1    -40.5282350     23  2.000                                                                 
     1      5.4423304     23  2.000                                                                 
     2     -2.4290848     23  2.300                                                                 
     2     -1.0472431     23  2.300                                                                 
     3     -1.3605826     23  2.300                                                                 
  local pseudopotential read in
  partial core-charges read in
  partial kinetic energy density read in
  atomic valenz-charges read in
  non local Contribution for L=           0  read in
    real space projection operators read in
  non local Contribution for L=           0  read in
    real space projection operators read in
  non local Contribution for L=           1  read in
    real space projection operators read in
  non local Contribution for L=           1  read in
    real space projection operators read in
  non local Contribution for L=           2  read in
    real space projection operators read in
  non local Contribution for L=           2  read in
    real space projection operators read in
    PAW grid and wavefunctions read in
 
   number of l-projection  operators is LMAX  =           6
   number of lm-projection operators is LMMAX =          18
 
PAW_PBE V_sv 02Aug2007                  :
 energy of atom  1       EATOM=-1952.1149
 kinetic energy error for atom=    0.0638 (will be added to EATOM!!)
 
 
 POSCAR: V2
  positions in direct lattice
  No initial velocities read in


 exchange-correlation table for PE
   RHO(1)=    0.500       N(1)  =     2000
   RHO(2)=  100.500       N(2)  =     4000
 


--------------------------------------------------------------------------------------------------------


 ion  position               nearest neighbor table
   1  0.000  0.000  0.000-   2 2.60   2 2.60   2 2.60   2 2.60   2 2.60   2 2.60   2 2.60   2 2.60

   2  0.500  0.500  0.500-   1 2.60   1 2.60   1 2.60   1 2.60   1 2.60   1 2.60   1 2.60   1 2.60

 
  LATTYP: Found a simple cubic cell.
 ALAT       =     2.9989400000
  
  Lattice vectors:
  
 A1 = (   2.9989400000,   0.0000000000,   0.0000000000)
 A2 = (   0.0000000000,   2.9989400000,   0.0000000000)
 A3 = (   0.0000000000,   0.0000000000,   2.9989400000)


Analysis of symmetry for initial positions (statically):
=====================================================================
 Subroutine PRICEL returns following result:
 
  LATTYP: Found a body centered cubic cell.
 ALAT       =     2.9989400000
  
  Lattice vectors:
  
 A1 = (   1.4994700000,   1.4994700000,  -1.4994700000)
 A2 = (  -1.4994700000,   1.4994700000,   1.4994700000)
 A3 = (   1.4994700000,  -1.4994700000,   1.4994700000)
 
   2 primitive cells build up your supercell.
 

 Routine SETGRP: Setting up the symmetry group for a 
 simple cubic supercell.


 Subroutine GETGRP returns: Found 48 space group operations
 (whereof 48 operations were pure point group operations)
 out of a pool of 48 trial point group operations.


The static configuration has the point symmetry O_h .


Analysis of symmetry for dynamics (positions and initial velocities):
=====================================================================
 Subroutine PRICEL returns following result:
 
  LATTYP: Found a body centered cubic cell.
 ALAT       =     2.9989400000
  
  Lattice vectors:
  
 A1 = (   1.4994700000,   1.4994700000,  -1.4994700000)
 A2 = (  -1.4994700000,   1.4994700000,   1.4994700000)
 A3 = (   1.4994700000,  -1.4994700000,   1.4994700000)
 
   2 primitive cells build up your supercell.
 

 Routine SETGRP: Setting up the symmetry group for a 
 simple cubic supercell.


 Subroutine GETGRP returns: Found 48 space group operations
 (whereof 48 operations were pure point group operations)
 out of a pool of 48 trial point group operations.


The dynamic configuration has the point symmetry O_h .


 Subroutine INISYM returns: Found 48 space group operations
 (whereof 48 operations are pure point group operations),
 and found     2 'primitive' translations


----------------------------------------------------------------------------------------

                                     Primitive cell                                     

  volume of cell :      13.4857

  direct lattice vectors                    reciprocal lattice vectors
     1.499470000  1.499470000 -1.499470000     0.333451153  0.333451153  0.000000000
    -1.499470000  1.499470000  1.499470000    -0.000000000  0.333451153  0.333451153
     1.499470000 -1.499470000  1.499470000     0.333451153 -0.000000000  0.333451153

  length of vectors
     2.597158224  2.597158224  2.597158224     0.471571143  0.471571143  0.471571143

  position of ions in fractional coordinates (direct lattice)
     0.000000000  0.000000000  0.000000000

  ion indices of the primitive-cell ions
   primitive index   ion index
                 1           1

----------------------------------------------------------------------------------------

 
 
 KPOINTS: Automatic kpoint scheme                 

Automatic generation of k-mesh.
 Grid dimensions read from file:
 generate k-points for:    8    8    8

 Generating k-lattice:

  Cartesian coordinates                     Fractional coordinates (reciprocal lattice)
     0.041681394 -0.000000000  0.000000000     0.125000000  0.000000000  0.000000000
     0.000000000  0.041681394  0.000000000     0.000000000  0.125000000  0.000000000
    -0.000000000 -0.000000000  0.041681394     0.000000000  0.000000000  0.125000000

  Length of vectors
     0.041681394  0.041681394  0.041681394

  Shift w.r.t. Gamma in fractional coordinates (k-lattice)
     0.000000000  0.000000000  0.000000000

 
 Subroutine IBZKPT returns following result:
 ===========================================
 
 Found     35 irreducible k-points:
 
 Following reciprocal coordinates:
            Coordinates               Weight
  0.000000  0.000000  0.000000      1.000000
  0.125000  0.000000  0.000000      6.000000
  0.250000  0.000000  0.000000      6.000000
  0.375000  0.000000  0.000000      6.000000
  0.500000  0.000000  0.000000      3.000000
  0.125000  0.125000  0.000000     12.000000
  0.250000  0.125000  0.000000     24.000000
  0.375000  0.125000  0.000000     24.000000
  0.500000  0.125000  0.000000     12.000000
  0.250000  0.250000  0.000000     12.000000
  0.375000  0.250000  0.000000     24.000000
  0.500000  0.250000  0.000000     12.000000
  0.375000  0.375000  0.000000     12.000000
  0.500000  0.375000  0.000000     12.000000
  0.500000  0.500000  0.000000      3.000000
  0.125000  0.125000  0.125000      8.000000
  0.250000  0.125000  0.125000     24.000000
  0.375000  0.125000  0.125000     24.000000
  0.500000  0.125000  0.125000     12.000000
  0.250000  0.250000  0.125000     24.000000
  0.375000  0.250000  0.125000     48.000000
  0.500000  0.250000  0.125000     24.000000
  0.375000  0.375000  0.125000     24.000000
  0.500000  0.375000  0.125000     24.000000
  0.500000  0.500000  0.125000      6.000000
  0.250000  0.250000  0.250000      8.000000
  0.375000  0.250000  0.250000     24.000000
  0.500000  0.250000  0.250000     12.000000
  0.375000  0.375000  0.250000     24.000000
  0.500000  0.375000  0.250000     24.000000
  0.500000  0.500000  0.250000      6.000000
  0.375000  0.375000  0.375000      8.000000
  0.500000  0.375000  0.375000     12.000000
  0.500000  0.500000  0.375000      6.000000
  0.500000  0.500000  0.500000      1.000000
 
 Following cartesian coordinates:
            Coordinates               Weight
  0.000000  0.000000  0.000000      1.000000
  0.041681 -0.000000  0.000000      6.000000
  0.083363 -0.000000  0.000000      6.000000
  0.125044 -0.000000  0.000000      6.000000
  0.166726 -0.000000  0.000000      3.000000
  0.041681  0.041681  0.000000     12.000000
  0.083363  0.041681  0.000000     24.000000
  0.125044  0.041681  0.000000     24.000000
  0.166726  0.041681  0.000000     12.000000
  0.083363  0.083363  0.000000     12.000000
  0.125044  0.083363  0.000000     24.000000
  0.166726  0.083363  0.000000     12.000000
  0.125044  0.125044  0.000000     12.000000
  0.166726  0.125044  0.000000     12.000000
  0.166726  0.166726  0.000000      3.000000
  0.041681  0.041681  0.041681      8.000000
  0.083363  0.041681  0.041681     24.000000
  0.125044  0.041681  0.041681     24.000000
  0.166726  0.041681  0.041681     12.000000
  0.083363  0.083363  0.041681     24.000000
  0.125044  0.083363  0.041681     48.000000
  0.166726  0.083363  0.041681     24.000000
  0.125044  0.125044  0.041681     24.000000
  0.166726  0.125044  0.041681     24.000000
  0.166726  0.166726  0.041681      6.000000
  0.083363  0.083363  0.083363      8.000000
  0.125044  0.083363  0.083363     24.000000
  0.166726  0.083363  0.083363     12.000000
  0.125044  0.125044  0.083363     24.000000
  0.166726  0.125044  0.083363     24.000000
  0.166726  0.166726  0.083363      6.000000
  0.125044  0.125044  0.125044      8.000000
  0.166726  0.125044  0.125044     12.000000
  0.166726  0.166726  0.125044      6.000000
  0.166726  0.166726  0.166726      1.000000
 
 
 Subroutine IBZKPT_HF returns following result:
 ==============================================
 
 Found    512 k-points in 1st BZ
 the following    512 k-points will be used (e.g. in the exchange kernel)
 Following reciprocal coordinates:   # in IRBZ
  0.000000  0.000000  0.000000    0.00195312   1 t-inv F
  0.125000  0.000000  0.000000    0.00195312   2 t-inv F
  0.250000  0.000000  0.000000    0.00195312   3 t-inv F
  0.375000  0.000000  0.000000    0.00195312   4 t-inv F
  0.500000  0.000000  0.000000    0.00195312   5 t-inv F
  0.125000  0.125000  0.000000    0.00195312   6 t-inv F
  0.250000  0.125000  0.000000    0.00195312   7 t-inv F
  0.375000  0.125000  0.000000    0.00195312   8 t-inv F
  0.500000  0.125000  0.000000    0.00195312   9 t-inv F
  0.250000  0.250000  0.000000    0.00195312  10 t-inv F
  0.375000  0.250000  0.000000    0.00195312  11 t-inv F
  0.500000  0.250000  0.000000    0.00195312  12 t-inv F
  0.375000  0.375000  0.000000    0.00195312  13 t-inv F
  0.500000  0.375000  0.000000    0.00195312  14 t-inv F
  0.500000  0.500000  0.000000    0.00195312  15 t-inv F
  0.125000  0.125000  0.125000    0.00195312  16 t-inv F
  0.250000  0.125000  0.125000    0.00195312  17 t-inv F
  0.375000  0.125000  0.125000    0.00195312  18 t-inv F
  0.500000  0.125000  0.125000    0.00195312  19 t-inv F
  0.250000  0.250000  0.125000    0.00195312  20 t-inv F
  0.375000  0.250000  0.125000    0.00195312  21 t-inv F
  0.500000  0.250000  0.125000    0.00195312  22 t-inv F
  0.375000  0.375000  0.125000    0.00195312  23 t-inv F
  0.500000  0.375000  0.125000    0.00195312  24 t-inv F
  0.500000  0.500000  0.125000    0.00195312  25 t-inv F
  0.250000  0.250000  0.250000    0.00195312  26 t-inv F
  0.375000  0.250000  0.250000    0.00195312  27 t-inv F
  0.500000  0.250000  0.250000    0.00195312  28 t-inv F
  0.375000  0.375000  0.250000    0.00195312  29 t-inv F
  0.500000  0.375000  0.250000    0.00195312  30 t-inv F
  0.500000  0.500000  0.250000    0.00195312  31 t-inv F
  0.375000  0.375000  0.375000    0.00195312  32 t-inv F
  0.500000  0.375000  0.375000    0.00195312  33 t-inv F
  0.500000  0.500000  0.375000    0.00195312  34 t-inv F
  0.500000  0.500000  0.500000    0.00195312  35 t-inv F
 -0.125000 -0.000000  0.000000    0.00195312   2 t-inv F
  0.000000  0.125000  0.000000    0.00195312   2 t-inv F
  0.000000 -0.125000 -0.000000    0.00195312   2 t-inv F
  0.000000  0.000000  0.125000    0.00195312   2 t-inv F
 -0.000000  0.000000 -0.125000    0.00195312   2 t-inv F
 -0.250000 -0.000000  0.000000    0.00195312   3 t-inv F
  0.000000  0.250000  0.000000    0.00195312   3 t-inv F
  0.000000 -0.250000 -0.000000    0.00195312   3 t-inv F
  0.000000  0.000000  0.250000    0.00195312   3 t-inv F
 -0.000000  0.000000 -0.250000    0.00195312   3 t-inv F
 -0.375000 -0.000000  0.000000    0.00195312   4 t-inv F
  0.000000  0.375000  0.000000    0.00195312   4 t-inv F
  0.000000 -0.375000 -0.000000    0.00195312   4 t-inv F
  0.000000  0.000000  0.375000    0.00195312   4 t-inv F
 -0.000000  0.000000 -0.375000    0.00195312   4 t-inv F
  0.000000  0.500000  0.000000    0.00195312   5 t-inv F
  0.000000  0.000000  0.500000    0.00195312   5 t-inv F
 -0.125000 -0.125000  0.000000    0.00195312   6 t-inv F
  0.000000  0.125000  0.125000    0.00195312   6 t-inv F
  0.000000 -0.125000 -0.125000    0.00195312   6 t-inv F
  0.125000  0.000000  0.125000    0.00195312   6 t-inv F
 -0.125000  0.000000 -0.125000    0.00195312   6 t-inv F
 -0.125000  0.125000  0.000000    0.00195312   6 t-inv F
  0.125000 -0.125000  0.000000    0.00195312   6 t-inv F
 -0.125000  0.000000  0.125000    0.00195312   6 t-inv F
  0.125000  0.000000 -0.125000    0.00195312   6 t-inv F
  0.000000 -0.125000  0.125000    0.00195312   6 t-inv F
  0.000000  0.125000 -0.125000    0.00195312   6 t-inv F
 -0.250000 -0.125000  0.000000    0.00195312   7 t-inv F
  0.000000  0.250000  0.125000    0.00195312   7 t-inv F
  0.000000 -0.250000 -0.125000    0.00195312   7 t-inv F
  0.125000  0.000000  0.250000    0.00195312   7 t-inv F
 -0.125000  0.000000 -0.250000    0.00195312   7 t-inv F
 -0.125000  0.250000  0.000000    0.00195312   7 t-inv F
  0.125000 -0.250000  0.000000    0.00195312   7 t-inv F
 -0.250000  0.000000  0.125000    0.00195312   7 t-inv F
  0.250000  0.000000 -0.125000    0.00195312   7 t-inv F
  0.000000  0.125000  0.250000    0.00195312   7 t-inv F
  0.000000 -0.125000 -0.250000    0.00195312   7 t-inv F
  0.000000 -0.250000  0.125000    0.00195312   7 t-inv F
  0.000000  0.250000 -0.125000    0.00195312   7 t-inv F
 -0.125000  0.000000  0.250000    0.00195312   7 t-inv F
  0.125000  0.000000 -0.250000    0.00195312   7 t-inv F
  0.250000  0.000000  0.125000    0.00195312   7 t-inv F
 -0.250000  0.000000 -0.125000    0.00195312   7 t-inv F
  0.000000 -0.125000  0.250000    0.00195312   7 t-inv F
  0.000000  0.125000 -0.250000    0.00195312   7 t-inv F
  0.250000 -0.125000  0.000000    0.00195312   7 t-inv F
 -0.250000  0.125000  0.000000    0.00195312   7 t-inv F
  0.125000  0.250000  0.000000    0.00195312   7 t-inv F
 -0.125000 -0.250000  0.000000    0.00195312   7 t-inv F
 -0.375000 -0.125000  0.000000    0.00195312   8 t-inv F
  0.000000  0.375000  0.125000    0.00195312   8 t-inv F
  0.000000 -0.375000 -0.125000    0.00195312   8 t-inv F
  0.125000  0.000000  0.375000    0.00195312   8 t-inv F
 -0.125000  0.000000 -0.375000    0.00195312   8 t-inv F
 -0.125000  0.375000  0.000000    0.00195312   8 t-inv F
  0.125000 -0.375000  0.000000    0.00195312   8 t-inv F
 -0.375000  0.000000  0.125000    0.00195312   8 t-inv F
  0.375000  0.000000 -0.125000    0.00195312   8 t-inv F
  0.000000  0.125000  0.375000    0.00195312   8 t-inv F
  0.000000 -0.125000 -0.375000    0.00195312   8 t-inv F
  0.000000 -0.375000  0.125000    0.00195312   8 t-inv F
  0.000000  0.375000 -0.125000    0.00195312   8 t-inv F
 -0.125000  0.000000  0.375000    0.00195312   8 t-inv F
  0.125000  0.000000 -0.375000    0.00195312   8 t-inv F
  0.375000  0.000000  0.125000    0.00195312   8 t-inv F
 -0.375000  0.000000 -0.125000    0.00195312   8 t-inv F
  0.000000 -0.125000  0.375000    0.00195312   8 t-inv F
  0.000000  0.125000 -0.375000    0.00195312   8 t-inv F
  0.375000 -0.125000  0.000000    0.00195312   8 t-inv F
 -0.375000  0.125000  0.000000    0.00195312   8 t-inv F
  0.125000  0.375000  0.000000    0.00195312   8 t-inv F
 -0.125000 -0.375000  0.000000    0.00195312   8 t-inv F
 -0.500000 -0.125000  0.000000    0.00195312   9 t-inv F
  0.000000  0.500000  0.125000    0.00195312   9 t-inv F
  0.000000 -0.500000 -0.125000    0.00195312   9 t-inv F
  0.125000  0.000000  0.500000    0.00195312   9 t-inv F
 -0.125000  0.000000 -0.500000    0.00195312   9 t-inv F
 -0.125000  0.500000  0.000000    0.00195312   9 t-inv F
  0.125000 -0.500000  0.000000    0.00195312   9 t-inv F
 -0.500000  0.000000  0.125000    0.00195312   9 t-inv F
  0.500000  0.000000 -0.125000    0.00195312   9 t-inv F
  0.000000  0.125000  0.500000    0.00195312   9 t-inv F
  0.000000 -0.125000 -0.500000    0.00195312   9 t-inv F
 -0.250000 -0.250000  0.000000    0.00195312  10 t-inv F
  0.000000  0.250000  0.250000    0.00195312  10 t-inv F
  0.000000 -0.250000 -0.250000    0.00195312  10 t-inv F
  0.250000  0.000000  0.250000    0.00195312  10 t-inv F
 -0.250000  0.000000 -0.250000    0.00195312  10 t-inv F
 -0.250000  0.250000  0.000000    0.00195312  10 t-inv F
  0.250000 -0.250000  0.000000    0.00195312  10 t-inv F
 -0.250000  0.000000  0.250000    0.00195312  10 t-inv F
  0.250000  0.000000 -0.250000    0.00195312  10 t-inv F
  0.000000 -0.250000  0.250000    0.00195312  10 t-inv F
  0.000000  0.250000 -0.250000    0.00195312  10 t-inv F
 -0.375000 -0.250000  0.000000    0.00195312  11 t-inv F
  0.000000  0.375000  0.250000    0.00195312  11 t-inv F
  0.000000 -0.375000 -0.250000    0.00195312  11 t-inv F
  0.250000  0.000000  0.375000    0.00195312  11 t-inv F
 -0.250000  0.000000 -0.375000    0.00195312  11 t-inv F
 -0.250000  0.375000  0.000000    0.00195312  11 t-inv F
  0.250000 -0.375000  0.000000    0.00195312  11 t-inv F
 -0.375000  0.000000  0.250000    0.00195312  11 t-inv F
  0.375000  0.000000 -0.250000    0.00195312  11 t-inv F
  0.000000  0.250000  0.375000    0.00195312  11 t-inv F
  0.000000 -0.250000 -0.375000    0.00195312  11 t-inv F
  0.000000 -0.375000  0.250000    0.00195312  11 t-inv F
  0.000000  0.375000 -0.250000    0.00195312  11 t-inv F
 -0.250000  0.000000  0.375000    0.00195312  11 t-inv F
  0.250000  0.000000 -0.375000    0.00195312  11 t-inv F
  0.375000  0.000000  0.250000    0.00195312  11 t-inv F
 -0.375000  0.000000 -0.250000    0.00195312  11 t-inv F
  0.000000 -0.250000  0.375000    0.00195312  11 t-inv F
  0.000000  0.250000 -0.375000    0.00195312  11 t-inv F
  0.375000 -0.250000  0.000000    0.00195312  11 t-inv F
 -0.375000  0.250000  0.000000    0.00195312  11 t-inv F
  0.250000  0.375000  0.000000    0.00195312  11 t-inv F
 -0.250000 -0.375000  0.000000    0.00195312  11 t-inv F
 -0.500000 -0.250000  0.000000    0.00195312  12 t-inv F
  0.000000  0.500000  0.250000    0.00195312  12 t-inv F
  0.000000 -0.500000 -0.250000    0.00195312  12 t-inv F
  0.250000  0.000000  0.500000    0.00195312  12 t-inv F
 -0.250000  0.000000 -0.500000    0.00195312  12 t-inv F
 -0.250000  0.500000  0.000000    0.00195312  12 t-inv F
  0.250000 -0.500000  0.000000    0.00195312  12 t-inv F
 -0.500000  0.000000  0.250000    0.00195312  12 t-inv F
  0.500000  0.000000 -0.250000    0.00195312  12 t-inv F
  0.000000  0.250000  0.500000    0.00195312  12 t-inv F
  0.000000 -0.250000 -0.500000    0.00195312  12 t-inv F
 -0.375000 -0.375000  0.000000    0.00195312  13 t-inv F
  0.000000  0.375000  0.375000    0.00195312  13 t-inv F
  0.000000 -0.375000 -0.375000    0.00195312  13 t-inv F
  0.375000  0.000000  0.375000    0.00195312  13 t-inv F
 -0.375000  0.000000 -0.375000    0.00195312  13 t-inv F
 -0.375000  0.375000  0.000000    0.00195312  13 t-inv F
  0.375000 -0.375000  0.000000    0.00195312  13 t-inv F
 -0.375000  0.000000  0.375000    0.00195312  13 t-inv F
  0.375000  0.000000 -0.375000    0.00195312  13 t-inv F
  0.000000 -0.375000  0.375000    0.00195312  13 t-inv F
  0.000000  0.375000 -0.375000    0.00195312  13 t-inv F
 -0.500000 -0.375000  0.000000    0.00195312  14 t-inv F
  0.000000  0.500000  0.375000    0.00195312  14 t-inv F
  0.000000 -0.500000 -0.375000    0.00195312  14 t-inv F
  0.375000  0.000000  0.500000    0.00195312  14 t-inv F
 -0.375000  0.000000 -0.500000    0.00195312  14 t-inv F
 -0.375000  0.500000  0.000000    0.00195312  14 t-inv F
  0.375000 -0.500000  0.000000    0.00195312  14 t-inv F
 -0.500000  0.000000  0.375000    0.00195312  14 t-inv F
  0.500000  0.000000 -0.375000    0.00195312  14 t-inv F
  0.000000  0.375000  0.500000    0.00195312  14 t-inv F
  0.000000 -0.375000 -0.500000    0.00195312  14 t-inv F
  0.000000  0.500000  0.500000    0.00195312  15 t-inv F
  0.500000  0.000000  0.500000    0.00195312  15 t-inv F
 -0.125000 -0.125000 -0.125000    0.00195312  16 t-inv F
 -0.125000  0.125000  0.125000    0.00195312  16 t-inv F
  0.125000 -0.125000 -0.125000    0.00195312  16 t-inv F
 -0.125000 -0.125000  0.125000    0.00195312  16 t-inv F
  0.125000  0.125000 -0.125000    0.00195312  16 t-inv F
  0.125000 -0.125000  0.125000    0.00195312  16 t-inv F
 -0.125000  0.125000 -0.125000    0.00195312  16 t-inv F
 -0.250000 -0.125000 -0.125000    0.00195312  17 t-inv F
  0.125000  0.250000  0.125000    0.00195312  17 t-inv F
 -0.125000 -0.250000 -0.125000    0.00195312  17 t-inv F
  0.125000  0.125000  0.250000    0.00195312  17 t-inv F
 -0.125000 -0.125000 -0.250000    0.00195312  17 t-inv F
 -0.125000  0.250000  0.125000    0.00195312  17 t-inv F
  0.125000 -0.250000 -0.125000    0.00195312  17 t-inv F
 -0.250000  0.125000  0.125000    0.00195312  17 t-inv F
  0.250000 -0.125000 -0.125000    0.00195312  17 t-inv F
 -0.125000  0.125000  0.250000    0.00195312  17 t-inv F
  0.125000 -0.125000 -0.250000    0.00195312  17 t-inv F
 -0.250000 -0.125000  0.125000    0.00195312  17 t-inv F
  0.250000  0.125000 -0.125000    0.00195312  17 t-inv F
 -0.125000 -0.250000  0.125000    0.00195312  17 t-inv F
  0.125000  0.250000 -0.125000    0.00195312  17 t-inv F
 -0.125000 -0.125000  0.250000    0.00195312  17 t-inv F
  0.125000  0.125000 -0.250000    0.00195312  17 t-inv F
  0.125000 -0.250000  0.125000    0.00195312  17 t-inv F
 -0.125000  0.250000 -0.125000    0.00195312  17 t-inv F
  0.250000 -0.125000  0.125000    0.00195312  17 t-inv F
 -0.250000  0.125000 -0.125000    0.00195312  17 t-inv F
  0.125000 -0.125000  0.250000    0.00195312  17 t-inv F
 -0.125000  0.125000 -0.250000    0.00195312  17 t-inv F
 -0.375000 -0.125000 -0.125000    0.00195312  18 t-inv F
  0.125000  0.375000  0.125000    0.00195312  18 t-inv F
 -0.125000 -0.375000 -0.125000    0.00195312  18 t-inv F
  0.125000  0.125000  0.375000    0.00195312  18 t-inv F
 -0.125000 -0.125000 -0.375000    0.00195312  18 t-inv F
 -0.125000  0.375000  0.125000    0.00195312  18 t-inv F
  0.125000 -0.375000 -0.125000    0.00195312  18 t-inv F
 -0.375000  0.125000  0.125000    0.00195312  18 t-inv F
  0.375000 -0.125000 -0.125000    0.00195312  18 t-inv F
 -0.125000  0.125000  0.375000    0.00195312  18 t-inv F
  0.125000 -0.125000 -0.375000    0.00195312  18 t-inv F
 -0.375000 -0.125000  0.125000    0.00195312  18 t-inv F
  0.375000  0.125000 -0.125000    0.00195312  18 t-inv F
 -0.125000 -0.375000  0.125000    0.00195312  18 t-inv F
  0.125000  0.375000 -0.125000    0.00195312  18 t-inv F
 -0.125000 -0.125000  0.375000    0.00195312  18 t-inv F
  0.125000  0.125000 -0.375000    0.00195312  18 t-inv F
  0.125000 -0.375000  0.125000    0.00195312  18 t-inv F
 -0.125000  0.375000 -0.125000    0.00195312  18 t-inv F
  0.375000 -0.125000  0.125000    0.00195312  18 t-inv F
 -0.375000  0.125000 -0.125000    0.00195312  18 t-inv F
  0.125000 -0.125000  0.375000    0.00195312  18 t-inv F
 -0.125000  0.125000 -0.375000    0.00195312  18 t-inv F
 -0.500000 -0.125000 -0.125000    0.00195312  19 t-inv F
  0.125000  0.500000  0.125000    0.00195312  19 t-inv F
 -0.125000 -0.500000 -0.125000    0.00195312  19 t-inv F
  0.125000  0.125000  0.500000    0.00195312  19 t-inv F
 -0.125000 -0.125000 -0.500000    0.00195312  19 t-inv F
 -0.125000  0.500000  0.125000    0.00195312  19 t-inv F
  0.125000 -0.500000 -0.125000    0.00195312  19 t-inv F
 -0.125000  0.125000  0.500000    0.00195312  19 t-inv F
  0.125000 -0.125000 -0.500000    0.00195312  19 t-inv F
 -0.500000 -0.125000  0.125000    0.00195312  19 t-inv F
  0.500000  0.125000 -0.125000    0.00195312  19 t-inv F
 -0.250000 -0.250000 -0.125000    0.00195312  20 t-inv F
  0.125000  0.250000  0.250000    0.00195312  20 t-inv F
 -0.125000 -0.250000 -0.250000    0.00195312  20 t-inv F
  0.250000  0.125000  0.250000    0.00195312  20 t-inv F
 -0.250000 -0.125000 -0.250000    0.00195312  20 t-inv F
 -0.250000  0.250000  0.125000    0.00195312  20 t-inv F
  0.250000 -0.250000 -0.125000    0.00195312  20 t-inv F
 -0.250000  0.125000  0.250000    0.00195312  20 t-inv F
  0.250000 -0.125000 -0.250000    0.00195312  20 t-inv F
 -0.125000  0.250000  0.250000    0.00195312  20 t-inv F
  0.125000 -0.250000 -0.250000    0.00195312  20 t-inv F
 -0.250000 -0.250000  0.125000    0.00195312  20 t-inv F
  0.250000  0.250000 -0.125000    0.00195312  20 t-inv F
 -0.125000 -0.250000  0.250000    0.00195312  20 t-inv F
  0.125000  0.250000 -0.250000    0.00195312  20 t-inv F
 -0.250000 -0.125000  0.250000    0.00195312  20 t-inv F
  0.250000  0.125000 -0.250000    0.00195312  20 t-inv F
  0.250000 -0.250000  0.125000    0.00195312  20 t-inv F
 -0.250000  0.250000 -0.125000    0.00195312  20 t-inv F
  0.250000 -0.125000  0.250000    0.00195312  20 t-inv F
 -0.250000  0.125000 -0.250000    0.00195312  20 t-inv F
  0.125000 -0.250000  0.250000    0.00195312  20 t-inv F
 -0.125000  0.250000 -0.250000    0.00195312  20 t-inv F
 -0.375000 -0.250000 -0.125000    0.00195312  21 t-inv F
  0.125000  0.375000  0.250000    0.00195312  21 t-inv F
 -0.125000 -0.375000 -0.250000    0.00195312  21 t-inv F
  0.250000  0.125000  0.375000    0.00195312  21 t-inv F
 -0.250000 -0.125000 -0.375000    0.00195312  21 t-inv F
 -0.250000  0.375000  0.125000    0.00195312  21 t-inv F
  0.250000 -0.375000 -0.125000    0.00195312  21 t-inv F
 -0.375000  0.125000  0.250000    0.00195312  21 t-inv F
  0.375000 -0.125000 -0.250000    0.00195312  21 t-inv F
 -0.125000  0.250000  0.375000    0.00195312  21 t-inv F
  0.125000 -0.250000 -0.375000    0.00195312  21 t-inv F
 -0.375000 -0.250000  0.125000    0.00195312  21 t-inv F
  0.375000  0.250000 -0.125000    0.00195312  21 t-inv F
 -0.125000 -0.375000  0.250000    0.00195312  21 t-inv F
  0.125000  0.375000 -0.250000    0.00195312  21 t-inv F
 -0.250000 -0.125000  0.375000    0.00195312  21 t-inv F
  0.250000  0.125000 -0.375000    0.00195312  21 t-inv F
  0.250000 -0.375000  0.125000    0.00195312  21 t-inv F
 -0.250000  0.375000 -0.125000    0.00195312  21 t-inv F
  0.375000 -0.125000  0.250000    0.00195312  21 t-inv F
 -0.375000  0.125000 -0.250000    0.00195312  21 t-inv F
  0.125000 -0.250000  0.375000    0.00195312  21 t-inv F
 -0.125000  0.250000 -0.375000    0.00195312  21 t-inv F
  0.125000 -0.375000 -0.250000    0.00195312  21 t-inv F
 -0.125000  0.375000  0.250000    0.00195312  21 t-inv F
  0.250000 -0.125000 -0.375000    0.00195312  21 t-inv F
 -0.250000  0.125000  0.375000    0.00195312  21 t-inv F
  0.375000 -0.250000 -0.125000    0.00195312  21 t-inv F
 -0.375000  0.250000  0.125000    0.00195312  21 t-inv F
  0.125000  0.250000 -0.375000    0.00195312  21 t-inv F
 -0.125000 -0.250000  0.375000    0.00195312  21 t-inv F
  0.250000  0.375000 -0.125000    0.00195312  21 t-inv F
 -0.250000 -0.375000  0.125000    0.00195312  21 t-inv F
  0.375000  0.125000 -0.250000    0.00195312  21 t-inv F
 -0.375000 -0.125000  0.250000    0.00195312  21 t-inv F
 -0.250000  0.125000 -0.375000    0.00195312  21 t-inv F
  0.250000 -0.125000  0.375000    0.00195312  21 t-inv F
 -0.375000  0.250000 -0.125000    0.00195312  21 t-inv F
  0.375000 -0.250000  0.125000    0.00195312  21 t-inv F
 -0.125000  0.375000 -0.250000    0.00195312  21 t-inv F
  0.125000 -0.375000  0.250000    0.00195312  21 t-inv F
 -0.375000 -0.125000 -0.250000    0.00195312  21 t-inv F
  0.375000  0.125000  0.250000    0.00195312  21 t-inv F
 -0.250000 -0.375000 -0.125000    0.00195312  21 t-inv F
  0.250000  0.375000  0.125000    0.00195312  21 t-inv F
 -0.125000 -0.250000 -0.375000    0.00195312  21 t-inv F
  0.125000  0.250000  0.375000    0.00195312  21 t-inv F
 -0.500000 -0.250000 -0.125000    0.00195312  22 t-inv F
  0.125000  0.500000  0.250000    0.00195312  22 t-inv F
 -0.125000 -0.500000 -0.250000    0.00195312  22 t-inv F
  0.250000  0.125000  0.500000    0.00195312  22 t-inv F
 -0.250000 -0.125000 -0.500000    0.00195312  22 t-inv F
 -0.250000  0.500000  0.125000    0.00195312  22 t-inv F
  0.250000 -0.500000 -0.125000    0.00195312  22 t-inv F
 -0.500000  0.125000  0.250000    0.00195312  22 t-inv F
  0.500000 -0.125000 -0.250000    0.00195312  22 t-inv F
 -0.125000  0.250000  0.500000    0.00195312  22 t-inv F
  0.125000 -0.250000 -0.500000    0.00195312  22 t-inv F
 -0.500000 -0.250000  0.125000    0.00195312  22 t-inv F
  0.500000  0.250000 -0.125000    0.00195312  22 t-inv F
 -0.125000 -0.500000  0.250000    0.00195312  22 t-inv F
  0.125000  0.500000 -0.250000    0.00195312  22 t-inv F
  0.250000 -0.500000  0.125000    0.00195312  22 t-inv F
 -0.250000  0.500000 -0.125000    0.00195312  22 t-inv F
  0.500000 -0.125000  0.250000    0.00195312  22 t-inv F
 -0.500000  0.125000 -0.250000    0.00195312  22 t-inv F
  0.250000 -0.125000 -0.500000    0.00195312  22 t-inv F
 -0.250000  0.125000  0.500000    0.00195312  22 t-inv F
  0.125000  0.250000 -0.500000    0.00195312  22 t-inv F
 -0.125000 -0.250000  0.500000    0.00195312  22 t-inv F
 -0.375000 -0.375000 -0.125000    0.00195312  23 t-inv F
  0.125000  0.375000  0.375000    0.00195312  23 t-inv F
 -0.125000 -0.375000 -0.375000    0.00195312  23 t-inv F
  0.375000  0.125000  0.375000    0.00195312  23 t-inv F
 -0.375000 -0.125000 -0.375000    0.00195312  23 t-inv F
 -0.375000  0.375000  0.125000    0.00195312  23 t-inv F
  0.375000 -0.375000 -0.125000    0.00195312  23 t-inv F
 -0.375000  0.125000  0.375000    0.00195312  23 t-inv F
  0.375000 -0.125000 -0.375000    0.00195312  23 t-inv F
 -0.125000  0.375000  0.375000    0.00195312  23 t-inv F
  0.125000 -0.375000 -0.375000    0.00195312  23 t-inv F
 -0.375000 -0.375000  0.125000    0.00195312  23 t-inv F
  0.375000  0.375000 -0.125000    0.00195312  23 t-inv F
 -0.125000 -0.375000  0.375000    0.00195312  23 t-inv F
  0.125000  0.375000 -0.375000    0.00195312  23 t-inv F
 -0.375000 -0.125000  0.375000    0.00195312  23 t-inv F
  0.375000  0.125000 -0.375000    0.00195312  23 t-inv F
  0.375000 -0.375000  0.125000    0.00195312  23 t-inv F
 -0.375000  0.375000 -0.125000    0.00195312  23 t-inv F
  0.375000 -0.125000  0.375000    0.00195312  23 t-inv F
 -0.375000  0.125000 -0.375000    0.00195312  23 t-inv F
  0.125000 -0.375000  0.375000    0.00195312  23 t-inv F
 -0.125000  0.375000 -0.375000    0.00195312  23 t-inv F
 -0.500000 -0.375000 -0.125000    0.00195312  24 t-inv F
  0.125000  0.500000  0.375000    0.00195312  24 t-inv F
 -0.125000 -0.500000 -0.375000    0.00195312  24 t-inv F
  0.375000  0.125000  0.500000    0.00195312  24 t-inv F
 -0.375000 -0.125000 -0.500000    0.00195312  24 t-inv F
 -0.375000  0.500000  0.125000    0.00195312  24 t-inv F
  0.375000 -0.500000 -0.125000    0.00195312  24 t-inv F
 -0.500000  0.125000  0.375000    0.00195312  24 t-inv F
  0.500000 -0.125000 -0.375000    0.00195312  24 t-inv F
 -0.125000  0.375000  0.500000    0.00195312  24 t-inv F
  0.125000 -0.375000 -0.500000    0.00195312  24 t-inv F
 -0.500000 -0.375000  0.125000    0.00195312  24 t-inv F
  0.500000  0.375000 -0.125000    0.00195312  24 t-inv F
 -0.125000 -0.500000  0.375000    0.00195312  24 t-inv F
  0.125000  0.500000 -0.375000    0.00195312  24 t-inv F
  0.375000 -0.500000  0.125000    0.00195312  24 t-inv F
 -0.375000  0.500000 -0.125000    0.00195312  24 t-inv F
  0.500000 -0.125000  0.375000    0.00195312  24 t-inv F
 -0.500000  0.125000 -0.375000    0.00195312  24 t-inv F
  0.375000 -0.125000 -0.500000    0.00195312  24 t-inv F
 -0.375000  0.125000  0.500000    0.00195312  24 t-inv F
  0.125000  0.375000 -0.500000    0.00195312  24 t-inv F
 -0.125000 -0.375000  0.500000    0.00195312  24 t-inv F
 -0.500000 -0.500000 -0.125000    0.00195312  25 t-inv F
  0.125000  0.500000  0.500000    0.00195312  25 t-inv F
 -0.125000 -0.500000 -0.500000    0.00195312  25 t-inv F
  0.500000  0.125000  0.500000    0.00195312  25 t-inv F
 -0.500000 -0.125000 -0.500000    0.00195312  25 t-inv F
 -0.250000 -0.250000 -0.250000    0.00195312  26 t-inv F
 -0.250000  0.250000  0.250000    0.00195312  26 t-inv F
  0.250000 -0.250000 -0.250000    0.00195312  26 t-inv F
 -0.250000 -0.250000  0.250000    0.00195312  26 t-inv F
  0.250000  0.250000 -0.250000    0.00195312  26 t-inv F
  0.250000 -0.250000  0.250000    0.00195312  26 t-inv F
 -0.250000  0.250000 -0.250000    0.00195312  26 t-inv F
 -0.375000 -0.250000 -0.250000    0.00195312  27 t-inv F
  0.250000  0.375000  0.250000    0.00195312  27 t-inv F
 -0.250000 -0.375000 -0.250000    0.00195312  27 t-inv F
  0.250000  0.250000  0.375000    0.00195312  27 t-inv F
 -0.250000 -0.250000 -0.375000    0.00195312  27 t-inv F
 -0.250000  0.375000  0.250000    0.00195312  27 t-inv F
  0.250000 -0.375000 -0.250000    0.00195312  27 t-inv F
 -0.375000  0.250000  0.250000    0.00195312  27 t-inv F
  0.375000 -0.250000 -0.250000    0.00195312  27 t-inv F
 -0.250000  0.250000  0.375000    0.00195312  27 t-inv F
  0.250000 -0.250000 -0.375000    0.00195312  27 t-inv F
 -0.375000 -0.250000  0.250000    0.00195312  27 t-inv F
  0.375000  0.250000 -0.250000    0.00195312  27 t-inv F
 -0.250000 -0.375000  0.250000    0.00195312  27 t-inv F
  0.250000  0.375000 -0.250000    0.00195312  27 t-inv F
 -0.250000 -0.250000  0.375000    0.00195312  27 t-inv F
  0.250000  0.250000 -0.375000    0.00195312  27 t-inv F
  0.250000 -0.375000  0.250000    0.00195312  27 t-inv F
 -0.250000  0.375000 -0.250000    0.00195312  27 t-inv F
  0.375000 -0.250000  0.250000    0.00195312  27 t-inv F
 -0.375000  0.250000 -0.250000    0.00195312  27 t-inv F
  0.250000 -0.250000  0.375000    0.00195312  27 t-inv F
 -0.250000  0.250000 -0.375000    0.00195312  27 t-inv F
 -0.500000 -0.250000 -0.250000    0.00195312  28 t-inv F
  0.250000  0.500000  0.250000    0.00195312  28 t-inv F
 -0.250000 -0.500000 -0.250000    0.00195312  28 t-inv F
  0.250000  0.250000  0.500000    0.00195312  28 t-inv F
 -0.250000 -0.250000 -0.500000    0.00195312  28 t-inv F
 -0.250000  0.500000  0.250000    0.00195312  28 t-inv F
  0.250000 -0.500000 -0.250000    0.00195312  28 t-inv F
 -0.250000  0.250000  0.500000    0.00195312  28 t-inv F
  0.250000 -0.250000 -0.500000    0.00195312  28 t-inv F
 -0.500000 -0.250000  0.250000    0.00195312  28 t-inv F
  0.500000  0.250000 -0.250000    0.00195312  28 t-inv F
 -0.375000 -0.375000 -0.250000    0.00195312  29 t-inv F
  0.250000  0.375000  0.375000    0.00195312  29 t-inv F
 -0.250000 -0.375000 -0.375000    0.00195312  29 t-inv F
  0.375000  0.250000  0.375000    0.00195312  29 t-inv F
 -0.375000 -0.250000 -0.375000    0.00195312  29 t-inv F
 -0.375000  0.375000  0.250000    0.00195312  29 t-inv F
  0.375000 -0.375000 -0.250000    0.00195312  29 t-inv F
 -0.375000  0.250000  0.375000    0.00195312  29 t-inv F
  0.375000 -0.250000 -0.375000    0.00195312  29 t-inv F
 -0.250000  0.375000  0.375000    0.00195312  29 t-inv F
  0.250000 -0.375000 -0.375000    0.00195312  29 t-inv F
 -0.375000 -0.375000  0.250000    0.00195312  29 t-inv F
  0.375000  0.375000 -0.250000    0.00195312  29 t-inv F
 -0.250000 -0.375000  0.375000    0.00195312  29 t-inv F
  0.250000  0.375000 -0.375000    0.00195312  29 t-inv F
 -0.375000 -0.250000  0.375000    0.00195312  29 t-inv F
  0.375000  0.250000 -0.375000    0.00195312  29 t-inv F
  0.375000 -0.375000  0.250000    0.00195312  29 t-inv F
 -0.375000  0.375000 -0.250000    0.00195312  29 t-inv F
  0.375000 -0.250000  0.375000    0.00195312  29 t-inv F
 -0.375000  0.250000 -0.375000    0.00195312  29 t-inv F
  0.250000 -0.375000  0.375000    0.00195312  29 t-inv F
 -0.250000  0.375000 -0.375000    0.00195312  29 t-inv F
 -0.500000 -0.375000 -0.250000    0.00195312  30 t-inv F
  0.250000  0.500000  0.375000    0.00195312  30 t-inv F
 -0.250000 -0.500000 -0.375000    0.00195312  30 t-inv F
  0.375000  0.250000  0.500000    0.00195312  30 t-inv F
 -0.375000 -0.250000 -0.500000    0.00195312  30 t-inv F
 -0.375000  0.500000  0.250000    0.00195312  30 t-inv F
  0.375000 -0.500000 -0.250000    0.00195312  30 t-inv F
 -0.500000  0.250000  0.375000    0.00195312  30 t-inv F
  0.500000 -0.250000 -0.375000    0.00195312  30 t-inv F
 -0.250000  0.375000  0.500000    0.00195312  30 t-inv F
  0.250000 -0.375000 -0.500000    0.00195312  30 t-inv F
 -0.500000 -0.375000  0.250000    0.00195312  30 t-inv F
  0.500000  0.375000 -0.250000    0.00195312  30 t-inv F
 -0.250000 -0.500000  0.375000    0.00195312  30 t-inv F
  0.250000  0.500000 -0.375000    0.00195312  30 t-inv F
  0.375000 -0.500000  0.250000    0.00195312  30 t-inv F
 -0.375000  0.500000 -0.250000    0.00195312  30 t-inv F
  0.500000 -0.250000  0.375000    0.00195312  30 t-inv F
 -0.500000  0.250000 -0.375000    0.00195312  30 t-inv F
  0.375000 -0.250000 -0.500000    0.00195312  30 t-inv F
 -0.375000  0.250000  0.500000    0.00195312  30 t-inv F
  0.250000  0.375000 -0.500000    0.00195312  30 t-inv F
 -0.250000 -0.375000  0.500000    0.00195312  30 t-inv F
 -0.500000 -0.500000 -0.250000    0.00195312  31 t-inv F
  0.250000  0.500000  0.500000    0.00195312  31 t-inv F
 -0.250000 -0.500000 -0.500000    0.00195312  31 t-inv F
  0.500000  0.250000  0.500000    0.00195312  31 t-inv F
 -0.500000 -0.250000 -0.500000    0.00195312  31 t-inv F
 -0.375000 -0.375000 -0.375000    0.00195312  32 t-inv F
 -0.375000  0.375000  0.375000    0.00195312  32 t-inv F
  0.375000 -0.375000 -0.375000    0.00195312  32 t-inv F
 -0.375000 -0.375000  0.375000    0.00195312  32 t-inv F
  0.375000  0.375000 -0.375000    0.00195312  32 t-inv F
  0.375000 -0.375000  0.375000    0.00195312  32 t-inv F
 -0.375000  0.375000 -0.375000    0.00195312  32 t-inv F
 -0.500000 -0.375000 -0.375000    0.00195312  33 t-inv F
  0.375000  0.500000  0.375000    0.00195312  33 t-inv F
 -0.375000 -0.500000 -0.375000    0.00195312  33 t-inv F
  0.375000  0.375000  0.500000    0.00195312  33 t-inv F
 -0.375000 -0.375000 -0.500000    0.00195312  33 t-inv F
 -0.375000  0.500000  0.375000    0.00195312  33 t-inv F
  0.375000 -0.500000 -0.375000    0.00195312  33 t-inv F
 -0.375000  0.375000  0.500000    0.00195312  33 t-inv F
  0.375000 -0.375000 -0.500000    0.00195312  33 t-inv F
 -0.500000 -0.375000  0.375000    0.00195312  33 t-inv F
  0.500000  0.375000 -0.375000    0.00195312  33 t-inv F
 -0.500000 -0.500000 -0.375000    0.00195312  34 t-inv F
  0.375000  0.500000  0.500000    0.00195312  34 t-inv F
 -0.375000 -0.500000 -0.500000    0.00195312  34 t-inv F
  0.500000  0.375000  0.500000    0.00195312  34 t-inv F
 -0.500000 -0.375000 -0.500000    0.00195312  34 t-inv F


--------------------------------------------------------------------------------------------------------




 Dimension of arrays:
   k-points           NKPTS =     35   k-points in BZ     NKDIM =     35   number of bands    NBANDS=     48
   number of dos      NEDOS =    301   number of ions     NIONS =      2
   non local maximal  LDIM  =      6   non local SUM 2l+1 LMDIM =     18
   total plane-waves  NPLWV =   2744
   max r-space proj   IRMAX =      1   max aug-charges    IRDMAX=   3667
   dimension x,y,z NGX =    14 NGY =   14 NGZ =   14
   dimension x,y,z NGXF=    28 NGYF=   28 NGZF=   28
   support grid    NGXF=    28 NGYF=   28 NGZF=   28
   ions per type =               2
   NGX,Y,Z   is equivalent  to a cutoff of   7.76,  7.76,  7.76 a.u.
   NGXF,Y,Z  is equivalent  to a cutoff of  15.52, 15.52, 15.52 a.u.

 SYSTEM =  V                                       
 POSCAR =  V2                                      

 Startparameter for this run:
   NWRITE =      2    write-flag & timer
   PREC   = normal    normal or accurate (medium, high low for compatibility)
   ISTART =      1    job   : 0-new  1-cont  2-samecut
   ICHARG =      0    charge: 1-file 2-atom 10-const
   ISPIN  =      1    spin polarized calculation?
   LNONCOLLINEAR =      F non collinear calculations
   LSORBIT =      F    spin-orbit coupling
   INIWAV =      1    electr: 0-lowe 1-rand  2-diag
   LASPH  =      F    aspherical Exc in radial PAW
 Electronic Relaxation 1
   ENCUT  =  342.8 eV  25.19 Ry    5.02 a.u.   4.53  4.53  4.53*2*pi/ulx,y,z
   ENINI  =  342.8     initial cutoff
   ENAUG  =  526.6 eV  augmentation charge cutoff
   NELM   =     60;   NELMIN=  2; NELMDL=  0     # of ELM steps 
   EDIFF  = 0.1E-03   stopping-criterion for ELM
   LREAL  =      F    real-space projection
   NLSPLINE    = F    spline interpolate recip. space projectors
   LCOMPAT=      F    compatible to vasp.4.4
   GGA_COMPAT  = T    GGA compatible to vasp.4.4-vasp.4.6
   LMAXPAW     = -100 max onsite density
   LMAXMIX     =    2 max onsite mixed and CHGCAR
   VOSKOWN=      0    Vosko Wilk Nusair interpolation
   ROPT   =    0.00000
 Ionic relaxation
   EDIFFG = 0.1E-02   stopping-criterion for IOM
   NSW    =      0    number of steps for IOM
   NBLOCK =      1;   KBLOCK =      1    inner block; outer block 
   IBRION =     -1    ionic relax: 0-MD 1-quasi-New 2-CG
   NFREE  =      0    steps in history (QN), initial steepest desc. (CG)
   ISIF   =      2    stress and relaxation
   IWAVPR =     10    prediction:  0-non 1-charg 2-wave 3-comb
   ISYM   =      2    0-nonsym 1-usesym 2-fastsym
   LCORR  =      T    Harris-Foulkes like correction to forces

   POTIM  = 0.5000    time-step for ionic-motion
   TEIN   =    0.0    initial temperature
   TEBEG  =    0.0;   TEEND  =   0.0 temperature during run
   SMASS  =  -3.00    Nose mass-parameter (am)
   estimated Nose-frequenzy (Omega)   =  0.10E-29 period in steps = 0.13E+47 mass=  -0.206E-27a.u.
   SCALEE = 1.0000    scale energy and forces
   NPACO  =    256;   APACO  = 10.0  distance and # of slots for P.C.
   PSTRESS=    0.0 pullay stress

  Mass of Ions in am
   POMASS =  50.94
  Ionic Valenz
   ZVAL   =  13.00
  Atomic Wigner-Seitz radii
   RWIGS  =  -1.00
  virtual crystal weights 
   VCA    =   1.00
   NELECT =      26.0000    total number of electrons
   NUPDOWN=      -1.0000    fix difference up-down

 DOS related values:
   EMIN   =  10.00;   EMAX   =-10.00  energy-range for DOS
   EFERMI =   0.00;   METHOD = LEGACY      
   ISMEAR =     0;   SIGMA  =   0.05  broadening in eV -4-tet -1-fermi 0-gaus

 Electronic relaxation 2 (details)
   IALGO  =     38    algorithm
   LDIAG  =      T    sub-space diagonalisation (order eigenvalues)
   LSUBROT=      F    optimize rotation matrix (better conditioning)
   TURBO    =      0    0=normal 1=particle mesh
   IRESTART =      0    0=no restart 2=restart with 2 vectors
   NREBOOT  =      0    no. of reboots
   NMIN     =      0    reboot dimension
   EREF     =   0.00    reference energy to select bands
   IMIX   =      4    mixing-type and parameters
     AMIX     =   0.40;   BMIX     =  1.00
     AMIX_MAG =   1.60;   BMIX_MAG =  1.00
     AMIN     =   0.10
     WC   =   100.;   INIMIX=   1;  MIXPRE=   1;  MAXMIX= -45

 Intra band minimization:
   WEIMIN = 0.0000     energy-eigenvalue tresh-hold
   EBREAK =  0.52E-06  absolut break condition
   DEPER  =   0.30     relativ break condition  

   TIME   =   0.40     timestep for ELM

  volume/ion in A,a.u.               =      13.49        91.01
  Fermi-wavevector in a.u.,A,eV,Ry     =   1.617204  3.056073 35.583985  2.615349
  Thomas-Fermi vector in A             =   2.711667
 
 Write flags
   LWAVE        =      T    write WAVECAR
   LDOWNSAMPLE  =      F    k-point downsampling of WAVECAR
   LCHARG       =      T    write CHGCAR
   LVTOT        =      F    write LOCPOT, total local potential
   LVHAR        =      F    write LOCPOT, Hartree potential only
   WRT_POTENTIAL= false  ! write potential to hdf5 file
   LELF         =      F    write electronic localiz. function (ELF)
   LORBIT       =      0    0 simple, 1 ext, 2 COOP (PROOUT), +10 PAW based schemes


 Dipole corrections
   LMONO      =      F    monopole corrections only (constant potential shift)
   LDIPOL     =      F    correct potential (dipole corrections)
   IDIPOL     =      0    1-x, 2-y, 3-z, 4-all directions 
   EPSILON    =  1.0000000 bulk dielectric constant
   LVACPOTAV  =      F  vacuum potentials using an averaging scheme for the charge density
   VACPOTFLAT =  0.1000000 required flatness to determine vacuum potential
 Exchange correlation treatment:
   GGA     = PE    functional components
   XC_C    = 1    coefficients multiplying the functional components
   LIBXC   =     F    Libxc                    
   VOSKOWN =     0    Vosko Wilk Nusair interpolation
   LHFCALC =     F    Hartree Fock is set to
   LHFONE  =     F    Hartree Fock one center treatment
   AEXX    =    0.0000 exact exchange contribution

 Parameters of functionals:
   PE:
     No parameter
 
 Van der Waals corrections
   IVDW    =     0    specifies the selected vdW correction

 Linear response parameters
   LEPSILON=     F    determine dielectric tensor
   LRPA    =     F    only Hartree local field effects (RPA)
   LNABLA  =     F    use nabla operator in PAW spheres
   LVEL    =     F    velocity operator in full k-point grid
   CSHIFT  =0.1000    complex shift for real part using Kramers Kronig
   OMEGAMAX=  -1.0    maximum frequency
   DEG_THRESHOLD= 0.2000000E-02 threshold for treating states as degnerate
   RTIME   =   -0.100 relaxation time in fs
  (WPLASMAI=    0.000 imaginary part of plasma frequency in eV, 0.658/RTIME)
   DFIELD  = 0.0000000 0.0000000 0.0000000 field for delta impulse in time
 
  Optional k-point grid parameters
   LKPOINTS_OPT  =     T    use optional k-point grid
   KPOINTS_OPT_MODE=     1    mode for optional k-point grid
 
 Orbital magnetization related:
   ORBITALMAG=     F  switch on orbital magnetization
   LCHIMAG   =     F  perturbation theory with respect to B field
   DQ        =  0.001000  dq finite difference perturbation B field
   LLRAUG    =     F  two centre corrections for induced B field
   LBONE     =     F  B-component reconstruction in AE one-centre
   LVGVCALC  =     T  calculate vGv susceptibility
   LVGVAPPL  =     F  apply vGv susceptibility instead of pGv for G=0

 Random number generation:
   RANDOM_GENERATOR = DEFAULT
   PCG_SEED         = not used


--------------------------------------------------------------------------------------------------------


 Static calculation
 charge density and potential will be updated during run
 non-spin polarized calculation
 Variant of blocked Davidson
 Davidson routine will perform the subspace rotation
 perform sub-space diagonalisation
    after iterative eigenvector-optimisation
 modified Broyden-mixing scheme, WC =      100.0
 initial mixing is a Kerker type mixing with AMIX =  0.4000 and BMIX =      1.0000
 Hartree-type preconditioning will be used
 using additional bands           35
 reciprocal scheme for non local part
 use partial core corrections
 calculate Harris-corrections to forces 
   (improved forces if not selfconsistent)
 use gradient corrections 
 use of overlap-Matrix (Vanderbilt PP)
 Gauss-broadening in eV      SIGMA  =   0.05


--------------------------------------------------------------------------------------------------------


  energy-cutoff  :      342.77
  volume of cell :       26.97
      direct lattice vectors                 reciprocal lattice vectors
     2.998940000  0.000000000  0.000000000     0.333451153 -0.000000000  0.000000000
     0.000000000  2.998940000  0.000000000     0.000000000  0.333451153  0.000000000
     0.000000000  0.000000000  2.998940000    -0.000000000 -0.000000000  0.333451153

  length of vectors
     2.998940000  2.998940000  2.998940000     0.333451153  0.333451153  0.333451153


 
 old parameters found on file WAVECAR:
  energy-cutoff  :      342.77
  volume of cell :       26.97
      direct lattice vectors                 reciprocal lattice vectors
     2.998940000  0.000000000  0.000000000     0.333451153 -0.000000000  0.000000000
     0.000000000  2.998940000  0.000000000     0.000000000  0.333451153  0.000000000
     0.000000000  0.000000000  2.998940000    -0.000000000 -0.000000000  0.333451153

  length of vectors

 
 k-points in units of 2pi/SCALE and weight: Automatic kpoint scheme                 
   0.00000000  0.00000000  0.00000000       0.002
   0.04168139 -0.00000000  0.00000000       0.012
   0.08336279 -0.00000000  0.00000000       0.012
   0.12504418 -0.00000000  0.00000000       0.012
   0.16672558 -0.00000000  0.00000000       0.006
   0.04168139  0.04168139  0.00000000       0.023
   0.08336279  0.04168139  0.00000000       0.047
   0.12504418  0.04168139  0.00000000       0.047
   0.16672558  0.04168139  0.00000000       0.023
   0.08336279  0.08336279  0.00000000       0.023
   0.12504418  0.08336279  0.00000000       0.047
   0.16672558  0.08336279  0.00000000       0.023
   0.12504418  0.12504418  0.00000000       0.023
   0.16672558  0.12504418  0.00000000       0.023
   0.16672558  0.16672558  0.00000000       0.006
   0.04168139  0.04168139  0.04168139       0.016
   0.08336279  0.04168139  0.04168139       0.047
   0.12504418  0.04168139  0.04168139       0.047
   0.16672558  0.04168139  0.04168139       0.023
   0.08336279  0.08336279  0.04168139       0.047
   0.12504418  0.08336279  0.04168139       0.094
   0.16672558  0.08336279  0.04168139       0.047
   0.12504418  0.12504418  0.04168139       0.047
   0.16672558  0.12504418  0.04168139       0.047
   0.16672558  0.16672558  0.04168139       0.012
   0.08336279  0.08336279  0.08336279       0.016
   0.12504418  0.08336279  0.08336279       0.047
   0.16672558  0.08336279  0.08336279       0.023
   0.12504418  0.12504418  0.08336279       0.047
   0.16672558  0.12504418  0.08336279       0.047
   0.16672558  0.16672558  0.08336279       0.012
   0.12504418  0.12504418  0.12504418       0.016
   0.16672558  0.12504418  0.12504418       0.023
   0.16672558  0.16672558  0.12504418       0.012
   0.16672558  0.16672558  0.16672558       0.002
 
 k-points in reciprocal lattice and weights: Automatic kpoint scheme                 
   0.00000000  0.00000000  0.00000000       0.002
   0.12500000  0.00000000  0.00000000       0.012
   0.25000000  0.00000000  0.00000000       0.012
   0.37500000  0.00000000  0.00000000       0.012
   0.50000000  0.00000000  0.00000000       0.006
   0.12500000  0.12500000  0.00000000       0.023
   0.25000000  0.12500000  0.00000000       0.047
   0.37500000  0.12500000  0.00000000       0.047
   0.50000000  0.12500000  0.00000000       0.023
   0.25000000  0.25000000  0.00000000       0.023
   0.37500000  0.25000000  0.00000000       0.047
   0.50000000  0.25000000  0.00000000       0.023
   0.37500000  0.37500000  0.00000000       0.023
   0.50000000  0.37500000  0.00000000       0.023
   0.50000000  0.50000000  0.00000000       0.006
   0.12500000  0.12500000  0.12500000       0.016
   0.25000000  0.12500000  0.12500000       0.047
   0.37500000  0.12500000  0.12500000       0.047
   0.50000000  0.12500000  0.12500000       0.023
   0.25000000  0.25000000  0.12500000       0.047
   0.37500000  0.25000000  0.12500000       0.094
   0.50000000  0.25000000  0.12500000       0.047
   0.37500000  0.37500000  0.12500000       0.047
   0.50000000  0.37500000  0.12500000       0.047
   0.50000000  0.50000000  0.12500000       0.012
   0.25000000  0.25000000  0.25000000       0.016
   0.37500000  0.25000000  0.25000000       0.047
   0.50000000  0.25000000  0.25000000       0.023
   0.37500000  0.37500000  0.25000000       0.047
   0.50000000  0.37500000  0.25000000       0.047
   0.50000000  0.50000000  0.25000000       0.012
   0.37500000  0.37500000  0.37500000       0.016
   0.50000000  0.37500000  0.37500000       0.023
   0.50000000  0.50000000  0.37500000       0.012
   0.50000000  0.50000000  0.50000000       0.002
 
 position of ions in fractional coordinates (direct lattice) 
   0.00000000  0.00000000  0.00000000
   0.50000000  0.50000000  0.50000000
 
 position of ions in cartesian coordinates  (Angst):
   0.00000000  0.00000000  0.00000000
   1.49947000  1.49947000  1.49947000
 


--------------------------------------------------------------------------------------------------------


 k-point     1 :   0.0000 0.0000 0.0000  plane waves:     389
 k-point     2 :   0.1250 0.0000 0.0000  plane waves:     389
 k-point     3 :   0.2500 0.0000 0.0000  plane waves:     389
 k-point     4 :   0.3750 0.0000 0.0000  plane waves:     401
 k-point     5 :   0.5000 0.0000 0.0000  plane waves:     402
 k-point     6 :   0.1250 0.1250 0.0000  plane waves:     391
 k-point     7 :   0.2500 0.1250 0.0000  plane waves:     398
 k-point     8 :   0.3750 0.1250 0.0000  plane waves:     388
 k-point     9 :   0.5000 0.1250 0.0000  plane waves:     386
 k-point    10 :   0.2500 0.2500 0.0000  plane waves:     392
 k-point    11 :   0.3750 0.2500 0.0000  plane waves:     389
 k-point    12 :   0.5000 0.2500 0.0000  plane waves:     386
 k-point    13 :   0.3750 0.3750 0.0000  plane waves:     380
 k-point    14 :   0.5000 0.3750 0.0000  plane waves:     384
 k-point    15 :   0.5000 0.5000 0.0000  plane waves:     372
 k-point    16 :   0.1250 0.1250 0.1250  plane waves:     395
 k-point    17 :   0.2500 0.1250 0.1250  plane waves:     396
 k-point    18 :   0.3750 0.1250 0.1250  plane waves:     392
 k-point    19 :   0.5000 0.1250 0.1250  plane waves:     382
 k-point    20 :   0.2500 0.2500 0.1250  plane waves:     396
 k-point    21 :   0.3750 0.2500 0.1250  plane waves:     391
 k-point    22 :   0.5000 0.2500 0.1250  plane waves:     384
 k-point    23 :   0.3750 0.3750 0.1250  plane waves:     385
 k-point    24 :   0.5000 0.3750 0.1250  plane waves:     384
 k-point    25 :   0.5000 0.5000 0.1250  plane waves:     376
 k-point    26 :   0.2500 0.2500 0.2500  plane waves:     389
 k-point    27 :   0.3750 0.2500 0.2500  plane waves:     382
 k-point    28 :   0.5000 0.2500 0.2500  plane waves:     392
 k-point    29 :   0.3750 0.3750 0.2500  plane waves:     387
 k-point    30 :   0.5000 0.3750 0.2500  plane waves:     386
 k-point    31 :   0.5000 0.5000 0.2500  plane waves:     380
 k-point    32 :   0.3750 0.3750 0.3750  plane waves:     389
 k-point    33 :   0.5000 0.3750 0.3750  plane waves:     384
 k-point    34 :   0.5000 0.5000 0.3750  plane waves:     388
 k-point    35 :   0.5000 0.5000 0.5000  plane waves:     360

 maximum and minimum number of plane-waves per node :       402      360

 maximum number of plane-waves:       402
 maximum index in each direction: 
   IXMAX=    4   IYMAX=    4   IZMAX=    4
   IXMIN=   -5   IYMIN=   -4   IZMIN=   -4


 serial   3D FFT for wavefunctions
 parallel 3D FFT for charge:
    minimum data exchange during FFTs selected (reduces bandwidth)


 total amount of memory used by VASP MPI-rank0    32690. kBytes
=======================================================================

   base      :      30000. kBytes
   nonl-proj :       2191. kBytes
   fftplans  :         48. kBytes
   grid      :        152. kBytes
   one-center:         31. kBytes
   wavefun   :        268. kBytes
 
     INWAV:  cpu time      0.0402: real time      0.0403
 Broyden mixing: mesh for mixing (old mesh)
   NGX =  9   NGY =  9   NGZ =  9
  (NGX  = 28   NGY  = 28   NGZ  = 28)
  gives a total of    729 points

 charge density for first step will be calculated from the start-wavefunctions


--------------------------------------------------------------------------------------------------------


 Maximum index for augmentation-charges          277 (set IRDMAX)


--------------------------------------------------------------------------------------------------------


 initial charge from wavefunction
 First call to EWALD:  gamma=   0.591
 Maximum number of real-space cells 3x 3x 3
 Maximum number of reciprocal cells 3x 3x 3

    FEWALD:  cpu time      0.0014: real time      0.0014


--------------------------------------- Ionic step        1  -------------------------------------------




--------------------------------------- Iteration      1(   1)  ---------------------------------------


    POTLOK:  cpu time      0.0024: real time      0.0039
    SETDIJ:  cpu time      0.0018: real time      0.0019
     EDDAV:  cpu time      0.4143: real time      0.4146
       DOS:  cpu time      0.0014: real time      0.0015
    CHARGE:  cpu time      0.0024: real time      0.0024
    MIXING:  cpu time      0.0007: real time      0.0010
    --------------------------------------------
      LOOP:  cpu time      0.4231: real time      0.4254

 eigenvalue-minimisations  :  2928
 total energy-change (2. order) :-0.1798320E+02  (-0.3075498E-04)
 number of electron      26.0000349 magnetization 
 augmentation part        9.4510856 magnetization 

 Broyden mixing:
  rms(total) = 0.56730E-02    rms(broyden)= 0.56722E-02
  rms(prec ) = 0.10011E-01
  weight for this iteration     100.00

 Free energy of the ion-electron system (eV)
  ---------------------------------------------------
  alpha Z        PSCENC =       181.20010233
  Ewald energy   TEWEN  =     -2953.14600272
  -Hartree energ DENC   =      -786.53540897
  -exchange      EXHF   =         0.00000000
  -V(xc)+E(xc)   XCENC  =       139.84658361
  PAW double counting   =      3873.43758738    -3910.37915074
  entropy T*S    EENTRO =        -0.00618799
  eigenvalues    EBANDS =      -466.50284840
  atomic energy  EATOM  =      3904.10212284
  Solvation  Ediel_sol  =         0.00000000
  ---------------------------------------------------
  free energy    TOTEN  =       -17.98320267 eV

  energy without entropy =      -17.97701468  energy(sigma->0) =      -17.98010868


--------------------------------------------------------------------------------------------------------




--------------------------------------- Iteration      1(   2)  ---------------------------------------


    POTLOK:  cpu time      0.0028: real time      0.0035
    SETDIJ:  cpu time      0.0016: real time      0.0016
     EDDAV:  cpu time      0.2080: real time      0.2080
       DOS:  cpu time      0.0005: real time      0.0005
    --------------------------------------------
      LOOP:  cpu time      0.2129: real time      0.2136

 eigenvalue-minimisations  :  1680
 total energy-change (2. order) : 0.2207391E-04  (-0.1382775E-04)
 number of electron      26.0000349 magnetization 
 augmentation part        9.4510856 magnetization 

 Free energy of the ion-electron system (eV)
  ---------------------------------------------------
  alpha Z        PSCENC =       181.20010233
  Ewald energy   TEWEN  =     -2953.14600272
  -Hartree energ DENC   =      -786.36096357
  -exchange      EXHF   =         0.00000000
  -V(xc)+E(xc)   XCENC  =       139.83796409
  PAW double counting   =      3874.14652065    -3911.08494251
  entropy T*S    EENTRO =        -0.00616420
  eigenvalues    EBANDS =      -466.67181750
  atomic energy  EATOM  =      3904.10212284
  Solvation  Ediel_sol  =         0.00000000
  ---------------------------------------------------
  free energy    TOTEN  =       -17.98318060 eV

  energy without entropy =      -17.97701640  energy(sigma->0) =      -17.98009850


--------------------------------------------------------------------------------------------------------




 average (electrostatic) potential at core
  the test charge radii are     0.9956
  (the norm of the test charge is              1.0000)
       1 -70.1519       2 -70.1519
 
 
 
 E-fermi :   9.7090     XC(G=0): -12.8998     alpha+bet :-18.6665

 val. band max:        9.6975259682   @ k =   0.2500   0.1250   0.0000
 cond. band min:       9.7178549282   @ k =   0.3750   0.1250   0.0000
 fundamental gap:      0.0203289601
 Fermi energy:         9.7090336381

 k-point     1 :       0.0000    0.0000    0.0000
  band No.  band energies     occupation 
      1     -53.9994      2.00000
      2     -53.6663      2.00000
      3     -27.9306      2.00000
      4     -27.9306      2.00000
      5     -27.9306      2.00000
      6     -27.3173      2.00000
      7     -27.3173      2.00000
      8     -27.3173      2.00000
      9       3.1056      2.00000
     10       6.7103      2.00000
     11       6.7103      2.00000
     12      10.1196      0.00000
     13      10.1196      0.00000
     14      10.1196      0.00000
     15      12.1151      0.00000
     16      12.1151      0.00000
     17      13.4255      0.00000
     18      13.4255      0.00000
     19      13.4255      0.00000
     20      19.8881      0.00000
     21      19.8881      0.00000
     22      19.8881      0.00000
     23      26.6084      0.00000
     24      26.6084      0.00000
     25      30.1715      0.00000
     26      30.1715      0.00000
     27      30.1715      0.00000
     28      31.5258      0.00000
     29      37.2095      0.00000
     30      37.2095      0.00000
     31      41.4760      0.00000
     32      41.4760      0.00000
     33      41.4760      0.00000
     34      41.9733      0.00000
     35      42.1848      0.00000
     36      42.1848      0.00000
     37      42.1848      0.00000
     38      53.0087      0.00000
     39      53.0087      0.00000
     40      53.0087      0.00000
     41      54.7356      0.00000
     42      54.7356      0.00000
     43      54.7356      0.00000
     44      55.6147      0.00000
     45      63.7907      0.00000
     46      64.9470      0.00000
     47      64.9470      0.00000
     48      64.9470      0.00000

 k-point     2 :       0.1250    0.0000    0.0000
  band No.  band energies     occupation 
      1     -53.9842      2.00000
      2     -53.6772      2.00000
      3     -27.9321      2.00000
      4     -27.9060      2.00000
      5     -27.9060      2.00000
      6     -27.3661      2.00000
      7     -27.3391      2.00000
      8     -27.3391      2.00000
      9       3.4193      2.00000
     10       6.8796      2.00000
     11       6.8834      2.00000
     12      10.1005      0.00000
     13      10.1005      0.00000
     14      10.2314      0.00000
     15      11.8659      0.00000
     16      12.2079      0.00000
     17      12.9703      0.00000
     18      12.9703      0.00000
     19      13.2832      0.00000
     20      18.6571      0.00000
     21      20.6555      0.00000
     22      20.6555      0.00000
     23      26.6109      0.00000
     24      27.1829      0.00000
     25      29.4791      0.00000
     26      30.4139      0.00000
     27      30.4139      0.00000
     28      32.4267      0.00000
     29      35.4107      0.00000
     30      38.7020      0.00000
     31      39.2239      0.00000
     32      39.2239      0.00000
     33      41.4275      0.00000
     34      41.8118      0.00000
     35      43.4562      0.00000
     36      44.6779      0.00000
     37      44.6779      0.00000
     38      50.2541      0.00000
     39      50.2541      0.00000
     40      52.2763      0.00000
     41      55.6002      0.00000
     42      56.0485      0.00000
     43      57.0380      0.00000
     44      57.0380      0.00000
     45      63.0164      0.00000
     46      65.3878      0.00000
     47      65.5094      0.00000
     48      65.5094      0.00000

 k-point     3 :       0.2500    0.0000    0.0000
  band No.  band energies     occupation 
      1     -53.9432      2.00000
      2     -53.7081      2.00000
      3     -27.9249      2.00000
      4     -27.8363      2.00000
      5     -27.8363      2.00000
      6     -27.4938      2.00000
      7     -27.4021      2.00000
      8     -27.4021      2.00000
      9       4.3015      2.00000
     10       7.2612      2.00000
     11       7.3741      2.00000
     12      10.0924      0.00000
     13      10.0924      0.00000
     14      10.5550      0.00000
     15      11.1768      0.00000
     16      12.0495      0.00000
     17      12.0495      0.00000
     18      12.4520      0.00000
     19      12.8861      0.00000
     20      16.3948      0.00000
     21      22.4949      0.00000
     22      22.4949      0.00000
     23      26.6327      0.00000
     24      27.5251      0.00000
     25      28.3370      0.00000
     26      30.6223      0.00000
     27      30.6223      0.00000
     28      32.4362      0.00000
     29      35.2987      0.00000
     30      37.5484      0.00000
     31      37.5484      0.00000
     32      41.3077      0.00000
     33      41.4831      0.00000
     34      42.1707      0.00000
     35      45.1083      0.00000
     36      46.7189      0.00000
     37      46.7189      0.00000
     38      47.5683      0.00000
     39      47.5683      0.00000
     40      50.8714      0.00000
     41      54.6221      0.00000
     42      57.9950      0.00000
     43      58.4570      0.00000
     44      58.4570      0.00000
     45      62.2691      0.00000
     46      63.6013      0.00000
     47      67.0431      0.00000
     48      67.0431      0.00000

 k-point     4 :       0.3750    0.0000    0.0000
  band No.  band energies     occupation 
      1     -53.8844      2.00000
      2     -53.7573      2.00000
      3     -27.8853      2.00000
      4     -27.7336      2.00000
      5     -27.7336      2.00000
      6     -27.6529      2.00000
      7     -27.4984      2.00000
      8     -27.4984      2.00000
      9       5.5584      2.00000
     10       7.4008      2.00000
     11       8.1526      2.00000
     12      10.2027      0.00000
     13      10.2077      0.00000
     14      10.2077      0.00000
     15      11.0542      0.00000
     16      11.1779      0.00000
     17      11.1779      0.00000
     18      12.3133      0.00000
     19      12.7868      0.00000
     20      14.4348      0.00000
     21      24.8310      0.00000
     22      24.8310      0.00000
     23      26.7254      0.00000
     24      27.4768      0.00000
     25      27.6116      0.00000
     26      29.5382      0.00000
     27      29.5382      0.00000
     28      29.8761      0.00000
     29      37.9649      0.00000
     30      37.9649      0.00000
     31      39.4089      0.00000
     32      41.1711      0.00000
     33      41.2135      0.00000
     34      43.2762      0.00000
     35      43.2762      0.00000
     36      46.0372      0.00000
     37      46.6991      0.00000
     38      49.5595      0.00000
     39      50.4196      0.00000
     40      50.5553      0.00000
     41      50.5553      0.00000
     42      56.7680      0.00000
     43      56.7680      0.00000
     44      57.7476      0.00000
     45      61.5434      0.00000
     46      64.6790      0.00000
     47      68.1306      0.00000
     48      68.1306      0.00000

 k-point     5 :       0.5000    0.0000    0.0000
  band No.  band energies     occupation 
      1     -53.8188      2.00000
      2     -53.8188      2.00000
      3     -27.7937      2.00000
      4     -27.7937      2.00000
      5     -27.6146      2.00000
      6     -27.6146      2.00000
      7     -27.6146      2.00000
      8     -27.6146      2.00000
      9       6.7888      2.00000
     10       6.7888      2.00000
     11       9.1372      2.00000
     12       9.1372      2.00000
     13      10.5524      0.00000
     14      10.5524      0.00000
     15      10.5524      0.00000
     16      10.5524      0.00000
     17      11.6685      0.00000
     18      11.6685      0.00000
     19      13.3024      0.00000
     20      13.3024      0.00000
     21      26.9714      0.00000
     22      26.9714      0.00000
     23      27.3197      0.00000
     24      27.3197      0.00000
     25      27.3197      0.00000
     26      27.3197      0.00000
     27      28.2502      0.00000
     28      28.2502      0.00000
     29      40.2004      0.00000
     30      40.2004      0.00000
     31      40.2004      0.00000
     32      40.2004      0.00000
     33      41.1122      0.00000
     34      41.1122      0.00000
     35      43.8754      0.00000
     36      43.8754      0.00000
     37      48.6816      0.00000
     38      48.6816      0.00000
     39      51.9632      0.00000
     40      51.9632      0.00000
     41      53.6885      0.00000
     42      53.6885      0.00000
     43      53.6885      0.00000
     44      53.6885      0.00000
     45      65.9568      0.00000
     46      65.9568      0.00000
     47      66.8167      0.00000
     48      66.8167      0.00000

 k-point     6 :       0.1250    0.1250    0.0000
  band No.  band energies     occupation 
      1     -53.9702      2.00000
      2     -53.6870      2.00000
      3     -27.9730      2.00000
      4     -27.8831      2.00000
      5     -27.8447      2.00000
      6     -27.4537      2.00000
      7     -27.3589      2.00000
      8     -27.3179      2.00000
      9       3.7207      2.00000
     10       7.0241      2.00000
     11       7.0692      2.00000
     12       9.8655      0.00001
     13      10.0354      0.00000
     14      10.5601      0.00000
     15      11.8724      0.00000
     16      12.1358      0.00000
     17      12.3210      0.00000
     18      12.5390      0.00000
     19      13.4815      0.00000
     20      18.9119      0.00000
     21      19.7648      0.00000
     22      21.2777      0.00000
     23      26.8460      0.00000
     24      27.8317      0.00000
     25      29.0409      0.00000
     26      29.9274      0.00000
     27      30.6852      0.00000
     28      33.1504      0.00000
     29      35.9646      0.00000
     30      37.6010      0.00000
     31      37.7763      0.00000
     32      39.0690      0.00000
     33      41.4413      0.00000
     34      42.1156      0.00000
     35      45.1529      0.00000
     36      45.2150      0.00000
     37      45.6197      0.00000
     38      47.9245      0.00000
     39      50.0191      0.00000
     40      54.0181      0.00000
     41      54.1814      0.00000
     42      56.6250      0.00000
     43      56.7758      0.00000
     44      59.3218      0.00000
     45      62.5485      0.00000
     46      64.2577      0.00000
     47      66.0262      0.00000
     48      66.3173      0.00000

 k-point     7 :       0.2500    0.1250    0.0000
  band No.  band energies     occupation 
      1     -53.9322      2.00000
      2     -53.7150      2.00000
      3     -27.9979      2.00000
      4     -27.8180      2.00000
      5     -27.7516      2.00000
      6     -27.6037      2.00000
      7     -27.4166      2.00000
      8     -27.3469      2.00000
      9       4.5613      2.00000
     10       7.3705      2.00000
     11       7.5434      2.00000
     12       9.6975      1.25519
     13       9.8999      0.00000
     14      11.0408      0.00000
     15      11.3881      0.00000
     16      11.4511      0.00000
     17      11.7327      0.00000
     18      12.3570      0.00000
     19      13.3243      0.00000
     20      16.8123      0.00000
     21      21.0449      0.00000
     22      22.8966      0.00000
     23      26.8650      0.00000
     24      27.6290      0.00000
     25      28.7483      0.00000
     26      29.3445      0.00000
     27      30.9743      0.00000
     28      34.5172      0.00000
     29      35.6721      0.00000
     30      36.1025      0.00000
     31      36.8822      0.00000
     32      40.5787      0.00000
     33      41.3844      0.00000
     34      42.5389      0.00000
     35      45.0050      0.00000
     36      46.1391      0.00000
     37      47.9188      0.00000
     38      47.9803      0.00000
     39      48.1903      0.00000
     40      53.1043      0.00000
     41      55.1905      0.00000
     42      55.7922      0.00000
     43      57.6304      0.00000
     44      60.9474      0.00000
     45      61.6595      0.00000
     46      63.0990      0.00000
     47      64.2768      0.00000
     48      65.3901      0.00000

 k-point     8 :       0.3750    0.1250    0.0000
  band No.  band energies     occupation 
      1     -53.8769      2.00000
      2     -53.7593      2.00000
      3     -27.9791      2.00000
      4     -27.7669      2.00000
      5     -27.7222      2.00000
      6     -27.6415      2.00000
      7     -27.5049      2.00000
      8     -27.4219      2.00000
      9       5.7379      2.00000
     10       7.4779      2.00000
     11       8.2232      2.00000
     12       9.6512      1.89838
     13       9.7179      0.80297
     14      10.5659      0.00000
     15      10.9699      0.00000
     16      11.1554      0.00000
     17      11.6173      0.00000
     18      12.7180      0.00000
     19      12.8600      0.00000
     20      14.6880      0.00000
     21      22.8297      0.00000
     22      25.0911      0.00000
     23      26.1514      0.00000
     24      26.9036      0.00000
     25      28.1433      0.00000
     26      29.5021      0.00000
     27      29.8162      0.00000
     28      32.6255      0.00000
     29      36.3295      0.00000
     30      37.4170      0.00000
     31      39.3090      0.00000
     32      39.4250      0.00000
     33      42.4569      0.00000
     34      42.9125      0.00000
     35      44.9572      0.00000
     36      45.4939      0.00000
     37      47.3203      0.00000
     38      50.5557      0.00000
     39      50.7330      0.00000
     40      51.2959      0.00000
     41      52.6015      0.00000
     42      55.1109      0.00000
     43      56.0573      0.00000
     44      59.5864      0.00000
     45      61.2174      0.00000
     46      63.5730      0.00000
     47      63.7212      0.00000
     48      67.6225      0.00000

 k-point     9 :       0.5000    0.1250    0.0000
  band No.  band energies     occupation 
      1     -53.8159      2.00000
      2     -53.8159      2.00000
      3     -27.9012      2.00000
      4     -27.9012      2.00000
      5     -27.6119      2.00000
      6     -27.6119      2.00000
      7     -27.5260      2.00000
      8     -27.5260      2.00000
      9       6.8730      2.00000
     10       6.8730      2.00000
     11       9.0204      2.00000
     12       9.0204      2.00000
     13       9.9971      0.00000
     14       9.9971      0.00000
[...]
     40      52.1801      0.00000
     41      53.7160      0.00000
     42      54.7094      0.00000
     43      55.1762      0.00000
     44      58.5801      0.00000
     45      58.8385      0.00000
     46      61.6118      0.00000
     47      61.7761      0.00000
     48      62.0386      0.00000

 k-point    30 :       0.5000    0.3750    0.2500
  band No.  band energies     occupation 
      1     -53.7965      2.00000
      2     -53.7965      2.00000
      3     -28.0671      2.00000
      4     -28.0671      2.00000
      5     -27.6925      2.00000
      6     -27.6925      2.00000
      7     -27.4327      2.00000
      8     -27.4327      2.00000
      9       7.5472      2.00000
     10       7.5472      2.00000
     11       8.5115      2.00000
     12       8.5115      2.00000
     13       9.4412      2.00000
     14       9.4412      2.00000
     15      12.2102      0.00000
     16      12.2102      0.00000
     17      12.5344      0.00000
     18      12.5344      0.00000
     19      15.9233      0.00000
     20      15.9233      0.00000
     21      20.5066      0.00000
     22      20.5066      0.00000
     23      23.0566      0.00000
     24      23.0566      0.00000
     25      26.5191      0.00000
     26      26.5191      0.00000
     27      34.9251      0.00000
     28      34.9251      0.00000
     29      38.3948      0.00000
     30      38.3948      0.00000
     31      41.6637      0.00000
     32      41.6637      0.00000
     33      44.0357      0.00000
     34      44.0357      0.00000
     35      48.2953      0.00000
     36      48.2953      0.00000
     37      49.7742      0.00000
     38      49.7742      0.00000
     39      51.0330      0.00000
     40      51.0330      0.00000
     41      54.6074      0.00000
     42      54.6074      0.00000
     43      54.8454      0.00000
     44      54.8454      0.00000
     45      59.6905      0.00000
     46      59.6905      0.00000
     47      61.8627      0.00000
     48      61.8627      0.00000

 k-point    31 :       0.5000    0.5000    0.2500
  band No.  band energies     occupation 
      1     -53.7940      2.00000
      2     -53.7940      2.00000
      3     -28.0810      2.00000
      4     -28.0810      2.00000
      5     -27.6803      2.00000
      6     -27.6803      2.00000
      7     -27.4499      2.00000
      8     -27.4499      2.00000
      9       7.4682      2.00000
     10       7.4682      2.00000
     11       8.4225      2.00000
     12       8.4225      2.00000
     13       9.7961      0.01382
     14       9.7961      0.01382
     15      12.3163      0.00000
     16      12.3163      0.00000
     17      12.5072      0.00000
     18      12.5072      0.00000
     19      16.2610      0.00000
     20      16.2610      0.00000
     21      19.7348      0.00000
     22      19.7348      0.00000
     23      23.8034      0.00000
     24      23.8034      0.00000
     25      25.1358      0.00000
     26      25.1358      0.00000
     27      35.5761      0.00000
     28      35.5761      0.00000
     29      40.0104      0.00000
     30      40.0104      0.00000
     31      41.0139      0.00000
     32      41.0139      0.00000
     33      43.4545      0.00000
     34      43.4545      0.00000
     35      47.3974      0.00000
     36      47.3974      0.00000
     37      51.8506      0.00000
     38      51.8506      0.00000
     39      52.7816      0.00000
     40      52.7816      0.00000
     41      53.3439      0.00000
     42      53.3439      0.00000
     43      53.6115      0.00000
     44      53.6115      0.00000
     45      57.2891      0.00000
     46      57.2891      0.00000
     47      62.7212      0.00000
     48      62.7212      0.00000

 k-point    32 :       0.3750    0.3750    0.3750
  band No.  band energies     occupation 
      1     -53.8025      2.00000
      2     -53.7841      2.00000
      3     -28.0147      2.00000
      4     -27.9048      2.00000
      5     -27.9048      2.00000
      6     -27.5783      2.00000
      7     -27.5783      2.00000
      8     -27.4646      2.00000
      9       8.0164      2.00000
     10       8.3364      2.00000
     11       8.4611      2.00000
     12       8.4611      2.00000
     13       8.8162      2.00000
     14       8.8162      2.00000
     15      12.4198      0.00000
     16      12.4198      0.00000
     17      12.4265      0.00000
     18      12.4265      0.00000
     19      16.0882      0.00000
     20      18.7732      0.00000
     21      18.7732      0.00000
     22      20.7670      0.00000
     23      22.5339      0.00000
     24      22.5339      0.00000
     25      23.6260      0.00000
     26      26.2190      0.00000
     27      36.6481      0.00000
     28      36.6481      0.00000
     29      37.1496      0.00000
     30      41.0505      0.00000
     31      41.0505      0.00000
     32      42.7813      0.00000
     33      44.6477      0.00000
     34      46.5322      0.00000
     35      46.5322      0.00000
     36      47.9231      0.00000
     37      47.9231      0.00000
     38      49.4286      0.00000
     39      50.3705      0.00000
     40      51.5989      0.00000
     41      51.5989      0.00000
     42      53.4425      0.00000
     43      53.4425      0.00000
     44      58.8021      0.00000
     45      59.4958      0.00000
     46      59.4958      0.00000
     47      61.7386      0.00000
     48      61.7386      0.00000

 k-point    33 :       0.5000    0.3750    0.3750
  band No.  band energies     occupation 
      1     -53.7909      2.00000
      2     -53.7909      2.00000
      3     -27.9751      2.00000
      4     -27.9751      2.00000
      5     -27.7404      2.00000
      6     -27.7404      2.00000
      7     -27.5275      2.00000
      8     -27.5275      2.00000
      9       8.0915      2.00000
     10       8.0915      2.00000
     11       8.5375      2.00000
     12       8.5375      2.00000
     13       8.9520      2.00000
     14       8.9520      2.00000
     15      12.4060      0.00000
     16      12.4060      0.00000
     17      12.5125      0.00000
     18      12.5125      0.00000
     19      17.3058      0.00000
     20      17.3058      0.00000
     21      20.6353      0.00000
     22      20.6353      0.00000
     23      21.4312      0.00000
     24      21.4312      0.00000
     25      24.3107      0.00000
     26      24.3107      0.00000
     27      37.4633      0.00000
     28      37.4633      0.00000
     29      39.5749      0.00000
     30      39.5749      0.00000
     31      43.3020      0.00000
     32      43.3020      0.00000
     33      43.6626      0.00000
     34      43.6626      0.00000
     35      47.6765      0.00000
     36      47.6765      0.00000
     37      48.2526      0.00000
     38      48.2526      0.00000
     39      51.3777      0.00000
     40      51.3777      0.00000
     41      52.5660      0.00000
     42      52.5660      0.00000
     43      55.0510      0.00000
     44      55.0510      0.00000
     45      60.1227      0.00000
     46      60.1227      0.00000
     47      60.4796      0.00000
     48      60.4796      0.00000

 k-point    34 :       0.5000    0.5000    0.3750
  band No.  band energies     occupation 
      1     -53.7887      2.00000
      2     -53.7887      2.00000
      3     -27.9340      2.00000
      4     -27.9340      2.00000
      5     -27.7382      2.00000
      6     -27.7382      2.00000
      7     -27.5920      2.00000
      8     -27.5920      2.00000
      9       8.2350      2.00000
     10       8.2350      2.00000
     11       8.4016      2.00000
     12       8.4016      2.00000
     13       9.0504      2.00000
     14       9.0504      2.00000
     15      12.4702      0.00000
     16      12.4702      0.00000
     17      12.5297      0.00000
     18      12.5297      0.00000
     19      18.1227      0.00000
     20      18.1227      0.00000
     21      19.8292      0.00000
     22      19.8292      0.00000
     23      22.0408      0.00000
     24      22.0408      0.00000
     25      22.7469      0.00000
     26      22.7469      0.00000
     27      38.6889      0.00000
     28      38.6889      0.00000
     29      41.5131      0.00000
     30      41.5131      0.00000
     31      42.7943      0.00000
     32      42.7943      0.00000
     33      43.1702      0.00000
     34      43.1702      0.00000
     35      45.8398      0.00000
     36      45.8398      0.00000
     37      47.7847      0.00000
     38      47.7847      0.00000
     39      52.4854      0.00000
     40      52.4854      0.00000
     41      53.4012      0.00000
     42      53.4012      0.00000
     43      55.1594      0.00000
     44      55.1594      0.00000
     45      57.7972      0.00000
     46      57.7972      0.00000
     47      61.2954      0.00000
     48      61.2954      0.00000

 k-point    35 :       0.5000    0.5000    0.5000
  band No.  band energies     occupation 
      1     -53.7857      2.00000
      2     -53.7857      2.00000
      3     -27.7618      2.00000
      4     -27.7618      2.00000
      5     -27.7618      2.00000
      6     -27.7618      2.00000
      7     -27.7618      2.00000
      8     -27.7618      2.00000
      9       8.5876      2.00000
     10       8.5876      2.00000
     11       8.5876      2.00000
     12       8.5876      2.00000
     13       8.5876      2.00000
     14       8.5876      2.00000
     15      12.5392      0.00000
     16      12.5392      0.00000
     17      12.5392      0.00000
     18      12.5392      0.00000
     19      20.0884      0.00000
     20      20.0884      0.00000
     21      20.0884      0.00000
     22      20.0884      0.00000
     23      20.0884      0.00000
     24      20.0884      0.00000
     25      21.5882      0.00000
     26      21.5882      0.00000
     27      42.5494      0.00000
     28      42.5494      0.00000
     29      42.5494      0.00000
     30      42.5494      0.00000
     31      42.5494      0.00000
     32      42.5494      0.00000
     33      43.8487      0.00000
     34      43.8487      0.00000
     35      43.8487      0.00000
     36      43.8487      0.00000
     37      43.8487      0.00000
     38      43.8487      0.00000
     39      53.6269      0.00000
     40      53.6269      0.00000
     41      53.6269      0.00000
     42      53.6269      0.00000
     43      58.2717      0.00000
     44      58.2717      0.00000
     45      58.2717      0.00000
     46      58.2717      0.00000
     47      58.2717      0.00000
     48      58.2717      0.00000


--------------------------------------------------------------------------------------------------------


 soft charge-density along one line, spin component           1
         0         1         2         3         4         5         6         7         8         9
 total charge-density along one line
 
 pseudopotential strength for first ion, spin component:           1
-18.205  10.672  -0.000  -0.000   0.000   0.000   0.000  -0.000
 10.672   3.231   0.000   0.000  -0.000  -0.000  -0.000  -0.000
 -0.000   0.000 -27.432  -0.000  -0.000   7.481   0.000   0.000
 -0.000   0.000  -0.000 -27.432  -0.000   0.000   7.481   0.000
  0.000  -0.000  -0.000  -0.000 -27.432   0.000   0.000   7.481
  0.000  -0.000   7.481   0.000   0.000   5.811   0.000  -0.000
  0.000  -0.000   0.000   7.481   0.000   0.000   5.811  -0.000
 -0.000  -0.000   0.000   0.000   7.481  -0.000  -0.000   5.811
 -0.000   0.000   0.000  -0.000  -0.000  -0.000   0.000   0.000
 -0.000   0.000  -0.000  -0.000  -0.000   0.000   0.000   0.000
  0.000  -0.000   0.000  -0.000  -0.000  -0.000   0.000   0.000
 -0.000   0.000  -0.000   0.000  -0.000   0.000  -0.000   0.000
  0.000  -0.000   0.000  -0.000   0.000  -0.000   0.000  -0.000
 -0.000   0.000   0.000  -0.000  -0.000  -0.000   0.000   0.000
 -0.000   0.000  -0.000  -0.000  -0.000   0.000   0.000   0.000
  0.000  -0.000   0.000  -0.000   0.000  -0.000   0.000   0.000
 -0.000   0.000  -0.000  -0.000  -0.000   0.000  -0.000   0.000
  0.000  -0.000   0.000  -0.000   0.000  -0.000   0.000  -0.000
 total augmentation occupancy for first ion, spin component:           1
  1.995  -0.051   0.000   0.000  -0.000   0.000   0.000   0.000   0.000  -0.000   0.000   0.000  -0.000   0.000  -0.000  -0.000
 -0.051   1.706   0.000   0.000   0.000   0.000   0.000   0.000  -0.000   0.000  -0.000  -0.000   0.000  -0.000   0.000   0.000
  0.000   0.000   1.986   0.000   0.000  -0.045  -0.000  -0.000   0.000  -0.000   0.000   0.000  -0.000   0.000   0.000  -0.000
  0.000   0.000   0.000   1.986   0.000  -0.000  -0.045  -0.000   0.000   0.000   0.000  -0.000  -0.000  -0.000   0.000   0.000
 -0.000   0.000   0.000   0.000   1.986  -0.000  -0.000  -0.045   0.000   0.000  -0.000   0.000   0.000   0.000   0.000  -0.000
 -0.000  -0.000  -0.045  -0.000  -0.000   0.124   0.000   0.000   0.000  -0.000   0.000  -0.000   0.000   0.000   0.000   0.000
 -0.000  -0.000  -0.000  -0.045  -0.000   0.000   0.124   0.000  -0.000   0.000   0.000   0.000   0.000   0.000   0.000   0.000
  0.000   0.000  -0.000  -0.000  -0.045   0.000   0.000   0.124  -0.000  -0.000   0.000   0.000   0.000  -0.000   0.000   0.000
  0.000   0.000   0.000   0.000   0.000   0.000  -0.000  -0.000   3.969   0.000  -0.000   0.000  -0.000  -2.020  -0.000   0.000
 -0.000  -0.000  -0.000   0.000   0.000  -0.000   0.000  -0.000   0.000   3.969   0.000   0.000  -0.000  -0.000  -2.020  -0.000
  0.000  -0.000   0.000  -0.000   0.000  -0.000   0.000  -0.000  -0.000   0.000   4.169   0.000   0.000   0.000  -0.000  -2.335
  0.000  -0.000   0.000  -0.000   0.000  -0.000   0.000   0.000   0.000   0.000   0.000   3.969   0.000  -0.000  -0.000  -0.000
 -0.000   0.000  -0.000  -0.000   0.000   0.000   0.000   0.000  -0.000  -0.000   0.000   0.000   4.169   0.000   0.000  -0.000
  0.000  -0.000   0.000  -0.000   0.000   0.000   0.000  -0.000  -2.020  -0.000   0.000  -0.000   0.000   1.077   0.000  -0.000
 -0.000   0.000   0.000   0.000   0.000   0.000   0.000   0.000  -0.000  -2.020  -0.000  -0.000   0.000   0.000   1.077   0.000
 -0.000   0.000  -0.000   0.000  -0.000   0.000   0.000  -0.000   0.000  -0.000  -2.335  -0.000  -0.000  -0.000   0.000   1.335
  0.000  -0.000  -0.000   0.000   0.000  -0.000   0.000  -0.000  -0.000  -0.000  -0.000  -2.020  -0.000   0.000   0.000   0.000
 -0.000  -0.000  -0.000   0.000  -0.000   0.000   0.000   0.000   0.000   0.000  -0.000  -0.000  -2.335  -0.000  -0.000   0.000


------------------------ aborting loop because EDIFF is reached ----------------------------------------


    CHARGE:  cpu time      0.0019: real time      0.0019
    FORLOC:  cpu time      0.0001: real time      0.0001
    FORNL :  cpu time      0.0038: real time      0.0039
    STRESS:  cpu time      0.0351: real time      0.0352
    FORCOR:  cpu time      0.0015: real time      0.0016
    FORHAR:  cpu time      0.0004: real time      0.0005
    MIXING:  cpu time      0.0005: real time      0.0005
    OFIELD:  cpu time      0.0000: real time      0.0001

  FORCE on cell =-STRESS in cart. coord.  units (eV):
  Direction    XX          YY          ZZ          XY          YZ          ZX
  --------------------------------------------------------------------------------------
  Alpha Z   181.20010   181.20010   181.20010
  Ewald    -984.38193  -984.38193  -984.38193    -0.00000     0.00000     0.00000
  Hartree   262.12628   262.12628   262.12628    -0.00000    -0.00000    -0.00000
  E(xc)    -145.17858  -145.17858  -145.17858     0.00000    -0.00000    -0.00000
  Local     234.38673   234.38673   234.38673    -0.00000     0.00000    -0.00000
  n-local   -80.69023   -74.01977   -67.07242     1.28958    -0.60387     0.34350
  augment   147.41501   147.41501   147.41501     0.00000    -0.00000     0.00000
  Kinetic   372.48957   376.16317   385.93617     1.24499    -2.26873     0.20680
  Fock        0.00000     0.00000     0.00000     0.00000     0.00000     0.00000
  -------------------------------------------------------------------------------------
  Total      -0.16357    -0.16357    -0.16357    -0.00000    -0.00000    -0.00000
  in kB      -9.71631    -9.71631    -9.71631    -0.00000    -0.00000    -0.00000
  external pressure =       -9.72 kB  Pullay stress =        0.00 kB


 VOLUME and BASIS-vectors are now :
 -----------------------------------------------------------------------------
  energy-cutoff  :      342.77
  volume of cell :       26.97
      direct lattice vectors                 reciprocal lattice vectors
     2.998940000  0.000000000  0.000000000     0.333451153 -0.000000000  0.000000000
     0.000000000  2.998940000  0.000000000     0.000000000  0.333451153  0.000000000
     0.000000000  0.000000000  2.998940000    -0.000000000 -0.000000000  0.333451153

  length of vectors
     2.998940000  2.998940000  2.998940000     0.333451153  0.333451153  0.333451153


 FORCES acting on ions
    electron-ion (+dipol)            ewald-force                    non-local-force                 convergence-correction
 -----------------------------------------------------------------------------------------------
   -.497E-13 -.439E-13 -.586E-13   -.738E-14 -.698E-14 -.437E-14   0.149E-25 -.556E-26 0.353E-26   0.720E-15 -.464E-14 -.388E-14
   0.399E-12 -.219E-11 -.565E-13   0.824E-14 0.842E-14 0.272E-14   0.217E-25 0.358E-25 0.524E-26   -.853E-14 0.965E-14 -.728E-14
 -----------------------------------------------------------------------------------------------
   0.349E-12 -.224E-11 -.115E-12   0.866E-15 0.143E-14 -.165E-14   0.366E-25 0.302E-25 0.877E-26   -.781E-14 0.502E-14 -.112E-13
 
 
 POSITION                                       TOTAL-FORCE (eV/Angst)
 -----------------------------------------------------------------------------------
      0.00000      0.00000      0.00000         0.000000      0.000000      0.000000
      1.49947      1.49947      1.49947        -0.000000     -0.000000     -0.000000
 -----------------------------------------------------------------------------------
    total drift:                                0.000000     -0.000000     -0.000000


--------------------------------------------------------------------------------------------------------



  FREE ENERGIE OF THE ION-ELECTRON SYSTEM (eV)
  ---------------------------------------------------
  free  energy   TOTEN  =       -17.98318060 eV

  energy  without entropy=      -17.97701640  energy(sigma->0) =      -17.98009850
 


--------------------------------------------------------------------------------------------------------


    POTLOK:  cpu time      0.0032: real time      0.0032


--------------------------------------------------------------------------------------------------------


 writing wavefunctions
     LOOP+:  cpu time     16.1718: real time     16.1903
    4ORBIT:  cpu time      0.0000: real time      0.0000

 total amount of memory used by VASP MPI-rank0    32690. kBytes
=======================================================================

   base      :      30000. kBytes
   nonl-proj :       2191. kBytes
   fftplans  :         48. kBytes
   grid      :        152. kBytes
   one-center:         31. kBytes
   wavefun   :        268. kBytes
 
  
  
 General timing and accounting informations for this job:
 ========================================================
  
                  Total CPU time used (sec):       16.653
                            User time (sec):       16.232
                          System time (sec):        0.420
                         Elapsed time (sec):       16.925
  
                   Maximum memory used (kb):      188980.
                   Average memory used (kb):          N/A
  
                          Minor page faults:        19288
                          Major page faults:            0
                 Voluntary context switches:         3536
