V                                       
           1
     2.998940    0.000000    0.000000
     0.000000    2.998940    0.000000
     0.000000    0.000000    2.998940
   V 
     2
Direct configuration=     1
   0.00000000  0.00000000  0.00000000
   0.50000000  0.50000000  0.50000000
