 DBCSR| CPU Multiplication driver                                           BLAS (U)
 DBCSR| Multrec recursion limit                                              512 (U)
 DBCSR| Multiplication stack size                                           1000 (D)
 DBCSR| Maximum elements for images                                    UNLIMITED (U)
 DBCSR| Multiplicative factor virtual images                                   1 (U)
 DBCSR| Use multiplication densification                                       T (D)
 DBCSR| Multiplication size stacks                                             3 (U)
 DBCSR| Use memory pool for CPU allocation                                     F (U)
 DBCSR| Number of 3D layers                                               SINGLE (U)
 DBCSR| Use MPI memory allocation                                              F (U)
 DBCSR| Use RMA algorithm                                                      F (U)
 DBCSR| Use Communication thread                                               T (U)
 DBCSR| Communication thread load                                             45 (D)
 DBCSR| MPI: My process id                                                     0
 DBCSR| MPI: Number of processes                                               8
 DBCSR| OMP: Current number of threads                                        12
 DBCSR| OMP: Max number of threads                                            12
 DBCSR| Split modifier for TAS multiplication algorithm                  1.0E+00 (U)


  **** **** ******  **  PROGRAM STARTED AT               2025-08-20 15:54:37.133
 ***** ** ***  *** **   PROGRAM STARTED ON                          i01r10c05s02
 **    ****   ******    PROGRAM STARTED BY                               di38fab
 ***** **    ** ** **   PROGRAM PROCESS ID                               1481252
  **** **  *******  **  PROGRAM STARTED IN /hppfs/scratch/04/di38fab/09_GTH/Delt
                                           a_Set/F/SZV-MOLOPT-GTH/8x8x8

 CP2K| version string:                 CP2K version 2025.1 (Development Version)
 CP2K| source code revision number:                                  git:3130539
 CP2K| cp2kflags: omp libint fftw3 libxc parallel scalapack max_contr=4         
 CP2K| is freely available from                            https://www.cp2k.org/
 CP2K| Program compiled at                         Tue Jun  3 16:14:32 CEST 2025
 CP2K| Program compiled on                                               login01
 CP2K| Program compiled for                                        Supermuc-foss
 CP2K| Data directory path                  /hppfs/work/pn36zo/di38fab/cp2k/data
 CP2K| Input file name                                                    GW.inp

 GLOBAL| Force Environment number                                              1
 GLOBAL| Basis set file name            /hppfs/scratch/04/di38fab/09_GTH/BASIS_A
 GLOBAL| Potential file name            /hppfs/work/pn36zo/di38fab/cp2k/data/GTH
 GLOBAL| MM Potential file name                                     MM_POTENTIAL
 GLOBAL| Coordinate file name                                              F.cif
 GLOBAL| Method name                                                        CP2K
 GLOBAL| Project name                                                       WSe2
 GLOBAL| Run type                                                         ENERGY
 GLOBAL| FFT library                                                       FFTW3
 GLOBAL| Diagonalization library                                       ScaLAPACK
 GLOBAL| Cholesky decomposition library                                ScaLAPACK
 GLOBAL| DGEMM library                                                      BLAS
 GLOBAL| Orthonormality check for eigenvectors                          DISABLED
 GLOBAL| Matrix multiplication library                                 ScaLAPACK
 GLOBAL| All-to-all communication in single precision                          F
 GLOBAL| FFTs using library dependent lengths                                  F
 GLOBAL| Grid backend                                                       AUTO
 GLOBAL| Global print level                                               MEDIUM
 GLOBAL| MPI I/O enabled                                                       T
 GLOBAL| Total number of message passing processes                             8
 GLOBAL| Number of threads for this process                                   12
 GLOBAL| This output is from process                                           0
 GLOBAL| OpenMP stack size per thread (OMP_STACKSIZE)                        64M
 GLOBAL| CPU model name             Intel(R) Xeon(R) Platinum 8174 CPU @ 3.10GHz

 MEMORY| system memory details [Kb]
 MEMORY|                        rank 0           min           max       average
 MEMORY| MemTotal             98436664      98436660      98436664      98436662
 MEMORY| MemFree              84688612      84640692      84688612      84664652
 MEMORY| Buffers                     0             0             0             0
 MEMORY| Cached                2447824       2362244       2447824       2405034
 MEMORY| Slab                  1303088       1303088       1309848       1306468
 MEMORY| SReclaimable           283104        283104        286672        284888
 MEMORY| MemLikelyFree        87419540      87289608      87419540      87354574


 *** Fundamental physical constants (SI units) ***

 *** Literature: B. J. Mohr and B. N. Taylor,
 ***             CODATA recommended values of the fundamental physical
 ***             constants: 2006, Web Version 5.1
 ***             http://physics.nist.gov/constants

 Speed of light in vacuum [m/s]                             2.99792458000000E+08
 Magnetic constant or permeability of vacuum [N/A**2]       1.25663706143592E-06
 Electric constant or permittivity of vacuum [F/m]          8.85418781762039E-12
 Planck constant (h) [J*s]                                  6.62606896000000E-34
 Planck constant (h-bar) [J*s]                              1.05457162825177E-34
 Elementary charge [C]                                      1.60217648700000E-19
 Electron mass [kg]                                         9.10938215000000E-31
 Electron g factor [ ]                                     -2.00231930436220E+00
 Proton mass [kg]                                           1.67262163700000E-27
 Fine-structure constant                                    7.29735253760000E-03
 Rydberg constant [1/m]                                     1.09737315685270E+07
 Avogadro constant [1/mol]                                  6.02214179000000E+23
 Boltzmann constant [J/K]                                   1.38065040000000E-23
 Atomic mass unit [kg]                                      1.66053878200000E-27
 Bohr radius [m]                                            5.29177208590000E-11

 *** Conversion factors ***

 [u] -> [a.u.]                                              1.82288848426455E+03
 [Angstrom] -> [Bohr] = [a.u.]                              1.88972613288564E+00
 [a.u.] = [Bohr] -> [Angstrom]                              5.29177208590000E-01
 [a.u.] -> [s]                                              2.41888432650478E-17
 [a.u.] -> [fs]                                             2.41888432650478E-02
 [a.u.] -> [J]                                              4.35974393937059E-18
 [a.u.] -> [N]                                              8.23872205491840E-08
 [a.u.] -> [K]                                              3.15774647902944E+05
 [a.u.] -> [kJ/mol]                                         2.62549961709828E+03
 [a.u.] -> [kcal/mol]                                       6.27509468713739E+02
 [a.u.] -> [Pa]                                             2.94210107994716E+13
 [a.u.] -> [bar]                                            2.94210107994716E+08
 [a.u.] -> [atm]                                            2.90362800883016E+08
 [a.u.] -> [eV]                                             2.72113838565563E+01
 [a.u.] -> [Hz]                                             6.57968392072181E+15
 [a.u.] -> [1/cm] (wave numbers)                            2.19474631370540E+05
 [a.u./Bohr**2] -> [1/cm]                                   5.14048714338585E+03
 

 CELL_TOP| Volume [angstrom^3]:                                       156.187300
 CELL_TOP| Vector a [angstrom     6.163     0.000     0.000   |a| =     6.163100
 CELL_TOP| Vector b [angstrom     0.000     3.685     0.000   |b| =     3.685050
 CELL_TOP| Vector c [angstrom    -0.817     0.000     6.877   |c| =     6.925430
 CELL_TOP| Angle (b,c), alpha [degree]:                                90.000000
 CELL_TOP| Angle (a,c), beta  [degree]:                                96.775380
 CELL_TOP| Angle (a,b), gamma [degree]:                                90.000000
 CELL_TOP| Numerically orthorhombic:                                          NO
 CELL_TOP| Periodicity                                                       XYZ

 CELL_CIF| Volume [angstrom^3]:                                       156.187300
 CELL_CIF| Vector a [angstrom     6.163     0.000     0.000   |a| =     6.163100
 CELL_CIF| Vector b [angstrom     0.000     3.685     0.000   |b| =     3.685050
 CELL_CIF| Vector c [angstrom    -0.817     0.000     6.877   |c| =     6.925430
 CELL_CIF| Angle (b,c), alpha [degree]:                                90.000000
 CELL_CIF| Angle (a,c), beta  [degree]:                                96.775380
 CELL_CIF| Angle (a,b), gamma [degree]:                                90.000000
 CELL_CIF| Numerically orthorhombic:                                          NO
 CELL_CIF| Periodicity                                                       XYZ

 GENERATE|  Preliminary Number of Bonds generated:                             0
 GENERATE|  Achieved consistency in connectivity generation.

 CELL| Volume [angstrom^3]:                                           156.187300
 CELL| Vector a [angstrom]:       6.163     0.000     0.000   |a| =     6.163100
 CELL| Vector b [angstrom]:       0.000     3.685     0.000   |b| =     3.685050
 CELL| Vector c [angstrom]:      -0.817     0.000     6.877   |c| =     6.925430
 CELL| Angle (b,c), alpha [degree]:                                    90.000000
 CELL| Angle (a,c), beta  [degree]:                                    96.775380
 CELL| Angle (a,b), gamma [degree]:                                    90.000000
 CELL| Numerically orthorhombic:                                              NO
 CELL| Periodicity                                                           XYZ

 CELL_REF| Volume [angstrom^3]:                                       156.187300
 CELL_REF| Vector a [angstrom     6.163     0.000     0.000   |a| =     6.163100
 CELL_REF| Vector b [angstrom     0.000     3.685     0.000   |b| =     3.685050
 CELL_REF| Vector c [angstrom    -0.817     0.000     6.877   |c| =     6.925430
 CELL_REF| Angle (b,c), alpha [degree]:                                90.000000
 CELL_REF| Angle (a,c), beta  [degree]:                                96.775380
 CELL_REF| Angle (a,b), gamma [degree]:                                90.000000
 CELL_REF| Numerically orthorhombic:                                          NO
 CELL_REF| Periodicity                                                       XYZ

 *** WARNING in cryssym.F:180 :: Symmetry library SPGLIB not available ***


 *******************************************************************************
                                    Kpoints
 *******************************************************************************
 BRILLOUIN| K-point scheme                                        Monkhorst-Pack
 BRILLOUIN| K-Point grid                                             8    8    8
 BRILLOUIN| Accuracy in Symmetry determination                      0.100000E-05
 BRILLOUIN| K-Point point group symmetrization                               OFF
 BRILLOUIN| Wavefunction type                                            COMPLEX
 BRILLOUIN| List of Kpoints [2 Pi/Bohr]                                      256
 BRILLOUIN| Number           Weight            X              Y              Z
 BRILLOUIN|     1           0.00391       -0.43750       -0.43750       -0.43750
 BRILLOUIN|     2           0.00391       -0.43750       -0.43750       -0.31250
 BRILLOUIN|     3           0.00391       -0.43750       -0.43750       -0.18750
 BRILLOUIN|     4           0.00391       -0.43750       -0.43750       -0.06250
 BRILLOUIN|     5           0.00391       -0.43750       -0.43750        0.06250
 BRILLOUIN|     6           0.00391       -0.43750       -0.43750        0.18750
 BRILLOUIN|     7           0.00391       -0.43750       -0.43750        0.31250
 BRILLOUIN|     8           0.00391       -0.43750       -0.43750        0.43750
 BRILLOUIN|     9           0.00391       -0.43750       -0.31250       -0.43750
 BRILLOUIN|    10           0.00391       -0.43750       -0.31250       -0.31250
 BRILLOUIN|    11           0.00391       -0.43750       -0.31250       -0.18750
 BRILLOUIN|    12           0.00391       -0.43750       -0.31250       -0.06250
 BRILLOUIN|    13           0.00391       -0.43750       -0.31250        0.06250
 BRILLOUIN|    14           0.00391       -0.43750       -0.31250        0.18750
 BRILLOUIN|    15           0.00391       -0.43750       -0.31250        0.31250
 BRILLOUIN|    16           0.00391       -0.43750       -0.31250        0.43750
 BRILLOUIN|    17           0.00391       -0.43750       -0.18750       -0.43750
 BRILLOUIN|    18           0.00391       -0.43750       -0.18750       -0.31250
 BRILLOUIN|    19           0.00391       -0.43750       -0.18750       -0.18750
 BRILLOUIN|    20           0.00391       -0.43750       -0.18750       -0.06250
 BRILLOUIN|    21           0.00391       -0.43750       -0.18750        0.06250
 BRILLOUIN|    22           0.00391       -0.43750       -0.18750        0.18750
 BRILLOUIN|    23           0.00391       -0.43750       -0.18750        0.31250
 BRILLOUIN|    24           0.00391       -0.43750       -0.18750        0.43750
 BRILLOUIN|    25           0.00391       -0.43750       -0.06250       -0.43750
 BRILLOUIN|    26           0.00391       -0.43750       -0.06250       -0.31250
 BRILLOUIN|    27           0.00391       -0.43750       -0.06250       -0.18750
 BRILLOUIN|    28           0.00391       -0.43750       -0.06250       -0.06250
 BRILLOUIN|    29           0.00391       -0.43750       -0.06250        0.06250
 BRILLOUIN|    30           0.00391       -0.43750       -0.06250        0.18750
 BRILLOUIN|    31           0.00391       -0.43750       -0.06250        0.31250
 BRILLOUIN|    32           0.00391       -0.43750       -0.06250        0.43750
 BRILLOUIN|    33           0.00391       -0.43750        0.06250       -0.43750
 BRILLOUIN|    34           0.00391       -0.43750        0.06250       -0.31250
 BRILLOUIN|    35           0.00391       -0.43750        0.06250       -0.18750
 BRILLOUIN|    36           0.00391       -0.43750        0.06250       -0.06250
 BRILLOUIN|    37           0.00391       -0.43750        0.06250        0.06250
 BRILLOUIN|    38           0.00391       -0.43750        0.06250        0.18750
 BRILLOUIN|    39           0.00391       -0.43750        0.06250        0.31250
 BRILLOUIN|    40           0.00391       -0.43750        0.06250        0.43750
 BRILLOUIN|    41           0.00391       -0.43750        0.18750       -0.43750
 BRILLOUIN|    42           0.00391       -0.43750        0.18750       -0.31250
 BRILLOUIN|    43           0.00391       -0.43750        0.18750       -0.18750
 BRILLOUIN|    44           0.00391       -0.43750        0.18750       -0.06250
 BRILLOUIN|    45           0.00391       -0.43750        0.18750        0.06250
 BRILLOUIN|    46           0.00391       -0.43750        0.18750        0.18750
 BRILLOUIN|    47           0.00391       -0.43750        0.18750        0.31250
 BRILLOUIN|    48           0.00391       -0.43750        0.18750        0.43750
 BRILLOUIN|    49           0.00391       -0.43750        0.31250       -0.43750
 BRILLOUIN|    50           0.00391       -0.43750        0.31250       -0.31250
 BRILLOUIN|    51           0.00391       -0.43750        0.31250       -0.18750
 BRILLOUIN|    52           0.00391       -0.43750        0.31250       -0.06250
 BRILLOUIN|    53           0.00391       -0.43750        0.31250        0.06250
 BRILLOUIN|    54           0.00391       -0.43750        0.31250        0.18750
 BRILLOUIN|    55           0.00391       -0.43750        0.31250        0.31250
 BRILLOUIN|    56           0.00391       -0.43750        0.31250        0.43750
 BRILLOUIN|    57           0.00391       -0.43750        0.43750       -0.43750
 BRILLOUIN|    58           0.00391       -0.43750        0.43750       -0.31250
 BRILLOUIN|    59           0.00391       -0.43750        0.43750       -0.18750
 BRILLOUIN|    60           0.00391       -0.43750        0.43750       -0.06250
 BRILLOUIN|    61           0.00391       -0.43750        0.43750        0.06250
 BRILLOUIN|    62           0.00391       -0.43750        0.43750        0.18750
 BRILLOUIN|    63           0.00391       -0.43750        0.43750        0.31250
 BRILLOUIN|    64           0.00391       -0.43750        0.43750        0.43750
 BRILLOUIN|    65           0.00391       -0.31250       -0.43750       -0.43750
 BRILLOUIN|    66           0.00391       -0.31250       -0.43750       -0.31250
 BRILLOUIN|    67           0.00391       -0.31250       -0.43750       -0.18750
 BRILLOUIN|    68           0.00391       -0.31250       -0.43750       -0.06250
 BRILLOUIN|    69           0.00391       -0.31250       -0.43750        0.06250
 BRILLOUIN|    70           0.00391       -0.31250       -0.43750        0.18750
 BRILLOUIN|    71           0.00391       -0.31250       -0.43750        0.31250
 BRILLOUIN|    72           0.00391       -0.31250       -0.43750        0.43750
 BRILLOUIN|    73           0.00391       -0.31250       -0.31250       -0.43750
 BRILLOUIN|    74           0.00391       -0.31250       -0.31250       -0.31250
 BRILLOUIN|    75           0.00391       -0.31250       -0.31250       -0.18750
 BRILLOUIN|    76           0.00391       -0.31250       -0.31250       -0.06250
 BRILLOUIN|    77           0.00391       -0.31250       -0.31250        0.06250
 BRILLOUIN|    78           0.00391       -0.31250       -0.31250        0.18750
 BRILLOUIN|    79           0.00391       -0.31250       -0.31250        0.31250
 BRILLOUIN|    80           0.00391       -0.31250       -0.31250        0.43750
 BRILLOUIN|    81           0.00391       -0.31250       -0.18750       -0.43750
 BRILLOUIN|    82           0.00391       -0.31250       -0.18750       -0.31250
 BRILLOUIN|    83           0.00391       -0.31250       -0.18750       -0.18750
 BRILLOUIN|    84           0.00391       -0.31250       -0.18750       -0.06250
 BRILLOUIN|    85           0.00391       -0.31250       -0.18750        0.06250
 BRILLOUIN|    86           0.00391       -0.31250       -0.18750        0.18750
 BRILLOUIN|    87           0.00391       -0.31250       -0.18750        0.31250
 BRILLOUIN|    88           0.00391       -0.31250       -0.18750        0.43750
 BRILLOUIN|    89           0.00391       -0.31250       -0.06250       -0.43750
 BRILLOUIN|    90           0.00391       -0.31250       -0.06250       -0.31250
 BRILLOUIN|    91           0.00391       -0.31250       -0.06250       -0.18750
 BRILLOUIN|    92           0.00391       -0.31250       -0.06250       -0.06250
 BRILLOUIN|    93           0.00391       -0.31250       -0.06250        0.06250
 BRILLOUIN|    94           0.00391       -0.31250       -0.06250        0.18750
 BRILLOUIN|    95           0.00391       -0.31250       -0.06250        0.31250
 BRILLOUIN|    96           0.00391       -0.31250       -0.06250        0.43750
 BRILLOUIN|    97           0.00391       -0.31250        0.06250       -0.43750
 BRILLOUIN|    98           0.00391       -0.31250        0.06250       -0.31250
 BRILLOUIN|    99           0.00391       -0.31250        0.06250       -0.18750
 BRILLOUIN|   100           0.00391       -0.31250        0.06250       -0.06250
 BRILLOUIN|   101           0.00391       -0.31250        0.06250        0.06250
 BRILLOUIN|   102           0.00391       -0.31250        0.06250        0.18750
 BRILLOUIN|   103           0.00391       -0.31250        0.06250        0.31250
 BRILLOUIN|   104           0.00391       -0.31250        0.06250        0.43750
 BRILLOUIN|   105           0.00391       -0.31250        0.18750       -0.43750
 BRILLOUIN|   106           0.00391       -0.31250        0.18750       -0.31250
 BRILLOUIN|   107           0.00391       -0.31250        0.18750       -0.18750
 BRILLOUIN|   108           0.00391       -0.31250        0.18750       -0.06250
 BRILLOUIN|   109           0.00391       -0.31250        0.18750        0.06250
 BRILLOUIN|   110           0.00391       -0.31250        0.18750        0.18750
 BRILLOUIN|   111           0.00391       -0.31250        0.18750        0.31250
 BRILLOUIN|   112           0.00391       -0.31250        0.18750        0.43750
 BRILLOUIN|   113           0.00391       -0.31250        0.31250       -0.43750
 BRILLOUIN|   114           0.00391       -0.31250        0.31250       -0.31250
 BRILLOUIN|   115           0.00391       -0.31250        0.31250       -0.18750
 BRILLOUIN|   116           0.00391       -0.31250        0.31250       -0.06250
 BRILLOUIN|   117           0.00391       -0.31250        0.31250        0.06250
 BRILLOUIN|   118           0.00391       -0.31250        0.31250        0.18750
 BRILLOUIN|   119           0.00391       -0.31250        0.31250        0.31250
 BRILLOUIN|   120           0.00391       -0.31250        0.31250        0.43750
 BRILLOUIN|   121           0.00391       -0.31250        0.43750       -0.43750
 BRILLOUIN|   122           0.00391       -0.31250        0.43750       -0.31250
 BRILLOUIN|   123           0.00391       -0.31250        0.43750       -0.18750
 BRILLOUIN|   124           0.00391       -0.31250        0.43750       -0.06250
 BRILLOUIN|   125           0.00391       -0.31250        0.43750        0.06250
 BRILLOUIN|   126           0.00391       -0.31250        0.43750        0.18750
 BRILLOUIN|   127           0.00391       -0.31250        0.43750        0.31250
 BRILLOUIN|   128           0.00391       -0.31250        0.43750        0.43750
 BRILLOUIN|   129           0.00391       -0.18750       -0.43750       -0.43750
 BRILLOUIN|   130           0.00391       -0.18750       -0.43750       -0.31250
 BRILLOUIN|   131           0.00391       -0.18750       -0.43750       -0.18750
 BRILLOUIN|   132           0.00391       -0.18750       -0.43750       -0.06250
 BRILLOUIN|   133           0.00391       -0.18750       -0.43750        0.06250
 BRILLOUIN|   134           0.00391       -0.18750       -0.43750        0.18750
 BRILLOUIN|   135           0.00391       -0.18750       -0.43750        0.31250
 BRILLOUIN|   136           0.00391       -0.18750       -0.43750        0.43750
 BRILLOUIN|   137           0.00391       -0.18750       -0.31250       -0.43750
 BRILLOUIN|   138           0.00391       -0.18750       -0.31250       -0.31250
 BRILLOUIN|   139           0.00391       -0.18750       -0.31250       -0.18750
 BRILLOUIN|   140           0.00391       -0.18750       -0.31250       -0.06250
 BRILLOUIN|   141           0.00391       -0.18750       -0.31250        0.06250
 BRILLOUIN|   142           0.00391       -0.18750       -0.31250        0.18750
 BRILLOUIN|   143           0.00391       -0.18750       -0.31250        0.31250
 BRILLOUIN|   144           0.00391       -0.18750       -0.31250        0.43750
 BRILLOUIN|   145           0.00391       -0.18750       -0.18750       -0.43750
 BRILLOUIN|   146           0.00391       -0.18750       -0.18750       -0.31250
 BRILLOUIN|   147           0.00391       -0.18750       -0.18750       -0.18750
 BRILLOUIN|   148           0.00391       -0.18750       -0.18750       -0.06250
 BRILLOUIN|   149           0.00391       -0.18750       -0.18750        0.06250
 BRILLOUIN|   150           0.00391       -0.18750       -0.18750        0.18750
 BRILLOUIN|   151           0.00391       -0.18750       -0.18750        0.31250
 BRILLOUIN|   152           0.00391       -0.18750       -0.18750        0.43750
 BRILLOUIN|   153           0.00391       -0.18750       -0.06250       -0.43750
 BRILLOUIN|   154           0.00391       -0.18750       -0.06250       -0.31250
 BRILLOUIN|   155           0.00391       -0.18750       -0.06250       -0.18750
 BRILLOUIN|   156           0.00391       -0.18750       -0.06250       -0.06250
 BRILLOUIN|   157           0.00391       -0.18750       -0.06250        0.06250
 BRILLOUIN|   158           0.00391       -0.18750       -0.06250        0.18750
 BRILLOUIN|   159           0.00391       -0.18750       -0.06250        0.31250
 BRILLOUIN|   160           0.00391       -0.18750       -0.06250        0.43750
 BRILLOUIN|   161           0.00391       -0.18750        0.06250       -0.43750
 BRILLOUIN|   162           0.00391       -0.18750        0.06250       -0.31250
 BRILLOUIN|   163           0.00391       -0.18750        0.06250       -0.18750
 BRILLOUIN|   164           0.00391       -0.18750        0.06250       -0.06250
 BRILLOUIN|   165           0.00391       -0.18750        0.06250        0.06250
 BRILLOUIN|   166           0.00391       -0.18750        0.06250        0.18750
 BRILLOUIN|   167           0.00391       -0.18750        0.06250        0.31250
 BRILLOUIN|   168           0.00391       -0.18750        0.06250        0.43750
 BRILLOUIN|   169           0.00391       -0.18750        0.18750       -0.43750
 BRILLOUIN|   170           0.00391       -0.18750        0.18750       -0.31250
 BRILLOUIN|   171           0.00391       -0.18750        0.18750       -0.18750
 BRILLOUIN|   172           0.00391       -0.18750        0.18750       -0.06250
 BRILLOUIN|   173           0.00391       -0.18750        0.18750        0.06250
 BRILLOUIN|   174           0.00391       -0.18750        0.18750        0.18750
 BRILLOUIN|   175           0.00391       -0.18750        0.18750        0.31250
 BRILLOUIN|   176           0.00391       -0.18750        0.18750        0.43750
 BRILLOUIN|   177           0.00391       -0.18750        0.31250       -0.43750
 BRILLOUIN|   178           0.00391       -0.18750        0.31250       -0.31250
 BRILLOUIN|   179           0.00391       -0.18750        0.31250       -0.18750
 BRILLOUIN|   180           0.00391       -0.18750        0.31250       -0.06250
 BRILLOUIN|   181           0.00391       -0.18750        0.31250        0.06250
 BRILLOUIN|   182           0.00391       -0.18750        0.31250        0.18750
 BRILLOUIN|   183           0.00391       -0.18750        0.31250        0.31250
 BRILLOUIN|   184           0.00391       -0.18750        0.31250        0.43750
 BRILLOUIN|   185           0.00391       -0.18750        0.43750       -0.43750
 BRILLOUIN|   186           0.00391       -0.18750        0.43750       -0.31250
 BRILLOUIN|   187           0.00391       -0.18750        0.43750       -0.18750
 BRILLOUIN|   188           0.00391       -0.18750        0.43750       -0.06250
 BRILLOUIN|   189           0.00391       -0.18750        0.43750        0.06250
 BRILLOUIN|   190           0.00391       -0.18750        0.43750        0.18750
 BRILLOUIN|   191           0.00391       -0.18750        0.43750        0.31250
 BRILLOUIN|   192           0.00391       -0.18750        0.43750        0.43750
 BRILLOUIN|   193           0.00391       -0.06250       -0.43750       -0.43750
 BRILLOUIN|   194           0.00391       -0.06250       -0.43750       -0.31250
 BRILLOUIN|   195           0.00391       -0.06250       -0.43750       -0.18750
 BRILLOUIN|   196           0.00391       -0.06250       -0.43750       -0.06250
 BRILLOUIN|   197           0.00391       -0.06250       -0.43750        0.06250
 BRILLOUIN|   198           0.00391       -0.06250       -0.43750        0.18750
 BRILLOUIN|   199           0.00391       -0.06250       -0.43750        0.31250
 BRILLOUIN|   200           0.00391       -0.06250       -0.43750        0.43750
 BRILLOUIN|   201           0.00391       -0.06250       -0.31250       -0.43750
 BRILLOUIN|   202           0.00391       -0.06250       -0.31250       -0.31250
 BRILLOUIN|   203           0.00391       -0.06250       -0.31250       -0.18750
 BRILLOUIN|   204           0.00391       -0.06250       -0.31250       -0.06250
 BRILLOUIN|   205           0.00391       -0.06250       -0.31250        0.06250
 BRILLOUIN|   206           0.00391       -0.06250       -0.31250        0.18750
 BRILLOUIN|   207           0.00391       -0.06250       -0.31250        0.31250
 BRILLOUIN|   208           0.00391       -0.06250       -0.31250        0.43750
 BRILLOUIN|   209           0.00391       -0.06250       -0.18750       -0.43750
 BRILLOUIN|   210           0.00391       -0.06250       -0.18750       -0.31250
 BRILLOUIN|   211           0.00391       -0.06250       -0.18750       -0.18750
 BRILLOUIN|   212           0.00391       -0.06250       -0.18750       -0.06250
 BRILLOUIN|   213           0.00391       -0.06250       -0.18750        0.06250
 BRILLOUIN|   214           0.00391       -0.06250       -0.18750        0.18750
 BRILLOUIN|   215           0.00391       -0.06250       -0.18750        0.31250
 BRILLOUIN|   216           0.00391       -0.06250       -0.18750        0.43750
 BRILLOUIN|   217           0.00391       -0.06250       -0.06250       -0.43750
 BRILLOUIN|   218           0.00391       -0.06250       -0.06250       -0.31250
 BRILLOUIN|   219           0.00391       -0.06250       -0.06250       -0.18750
 BRILLOUIN|   220           0.00391       -0.06250       -0.06250       -0.06250
 BRILLOUIN|   221           0.00391       -0.06250       -0.06250        0.06250
 BRILLOUIN|   222           0.00391       -0.06250       -0.06250        0.18750
 BRILLOUIN|   223           0.00391       -0.06250       -0.06250        0.31250
 BRILLOUIN|   224           0.00391       -0.06250       -0.06250        0.43750
 BRILLOUIN|   225           0.00391       -0.06250        0.06250       -0.43750
 BRILLOUIN|   226           0.00391       -0.06250        0.06250       -0.31250
 BRILLOUIN|   227           0.00391       -0.06250        0.06250       -0.18750
 BRILLOUIN|   228           0.00391       -0.06250        0.06250       -0.06250
 BRILLOUIN|   229           0.00391       -0.06250        0.06250        0.06250
 BRILLOUIN|   230           0.00391       -0.06250        0.06250        0.18750
 BRILLOUIN|   231           0.00391       -0.06250        0.06250        0.31250
 BRILLOUIN|   232           0.00391       -0.06250        0.06250        0.43750
 BRILLOUIN|   233           0.00391       -0.06250        0.18750       -0.43750
 BRILLOUIN|   234           0.00391       -0.06250        0.18750       -0.31250
 BRILLOUIN|   235           0.00391       -0.06250        0.18750       -0.18750
 BRILLOUIN|   236           0.00391       -0.06250        0.18750       -0.06250
 BRILLOUIN|   237           0.00391       -0.06250        0.18750        0.06250
 BRILLOUIN|   238           0.00391       -0.06250        0.18750        0.18750
 BRILLOUIN|   239           0.00391       -0.06250        0.18750        0.31250
 BRILLOUIN|   240           0.00391       -0.06250        0.18750        0.43750
 BRILLOUIN|   241           0.00391       -0.06250        0.31250       -0.43750
 BRILLOUIN|   242           0.00391       -0.06250        0.31250       -0.31250
 BRILLOUIN|   243           0.00391       -0.06250        0.31250       -0.18750
 BRILLOUIN|   244           0.00391       -0.06250        0.31250       -0.06250
 BRILLOUIN|   245           0.00391       -0.06250        0.31250        0.06250
 BRILLOUIN|   246           0.00391       -0.06250        0.31250        0.18750
 BRILLOUIN|   247           0.00391       -0.06250        0.31250        0.31250
 BRILLOUIN|   248           0.00391       -0.06250        0.31250        0.43750
 BRILLOUIN|   249           0.00391       -0.06250        0.43750       -0.43750
 BRILLOUIN|   250           0.00391       -0.06250        0.43750       -0.31250
 BRILLOUIN|   251           0.00391       -0.06250        0.43750       -0.18750
 BRILLOUIN|   252           0.00391       -0.06250        0.43750       -0.06250
 BRILLOUIN|   253           0.00391       -0.06250        0.43750        0.06250
 BRILLOUIN|   254           0.00391       -0.06250        0.43750        0.18750
 BRILLOUIN|   255           0.00391       -0.06250        0.43750        0.31250
 BRILLOUIN|   256           0.00391       -0.06250        0.43750        0.43750
 *******************************************************************************

 *******************************************************************************
 *******************************************************************************
 **                                                                           **
 **     #####                         ##              ##                      **
 **    ##   ##            ##          ##              ##                      **
 **   ##     ##                       ##            ######                    **
 **   ##     ##  ##   ##  ##   #####  ##  ##   ####   ##    #####    #####    **
 **   ##     ##  ##   ##  ##  ##      ## ##   ##      ##   ##   ##  ##   ##   **
 **   ##  ## ##  ##   ##  ##  ##      ####     ###    ##   ######   ######    **
 **    ##  ###   ##   ##  ##  ##      ## ##      ##   ##   ##       ##        **
 **     #######   #####   ##   #####  ##  ##  ####    ##    #####   ##        **
 **           ##                                                    ##        **
 **                                                                           **
 **                                                ... make the atoms dance   **
 **                                                                           **
 **            Copyright (C) by CP2K developers group (2000-2025)             **
 **                      J. Chem. Phys. 152, 194103 (2020)                    **
 **                                                                           **
 *******************************************************************************

 DFT| Spin restricted Kohn-Sham (RKS) calculation                            RKS
 DFT| Multiplicity                                                             1
 DFT| Number of spin states                                                    1
 DFT| Charge                                                                   0
 DFT| Self-interaction correction (SIC)                                       NO
 DFT| Cutoffs: density                                              1.000000E-10
 DFT|          gradient                                             1.000000E-10
 DFT|          tau                                                  1.000000E-10
 DFT|          cutoff_smoothing_range                               0.000000E+00
 DFT| XC density smoothing                                                  NONE
 DFT| XC derivatives                                                          PW

 FUNCTIONAL| PBE:
 FUNCTIONAL| J.P.Perdew, K.Burke, M.Ernzerhof, Phys. Rev. Letter, vol. 77, n 18,
 FUNCTIONAL|  pp. 3865-3868, (1996) {spin unpolarized}                          


 QS| Method:                                                                 GPW
 QS| Density plane wave grid type                        NON-SPHERICAL FULLSPACE
 QS| Number of grid levels:                                                    4
 QS| Density cutoff [a.u.]:                                                500.0
 QS| Multi grid cutoff [a.u.]: 1) grid level                               500.0
 QS|                           2) grid level                               166.7
 QS|                           3) grid level                                55.6
 QS|                           4) grid level                                18.5
 QS| Grid level progression factor:                                          3.0
 QS| Relative density cutoff [a.u.]:                                        50.0
 QS| Interaction thresholds: eps_pgf_orb:                                1.0E-16
 QS|                         eps_filter_matrix:                          0.0E+00
 QS|                         eps_core_charge:                            1.0E-18
 QS|                         eps_rho_gspace:                             1.0E-16
 QS|                         eps_rho_rspace:                             1.0E-16
 QS|                         eps_gvg_rspace:                             1.0E-08
 QS|                         eps_ppl:                                    1.0E-02
 QS|                         eps_ppnl:                                   1.0E-10


 ATOMIC KIND INFORMATION

  1. Atomic kind: F                                     Number of atoms:       8

     Orbital Basis Set                                         SZV-MOLOPT-GTH-q7

       Number of orbital shell sets:                                           1
       Number of orbital shells:                                               2
       Number of primitive Cartesian functions:                                7
       Number of Cartesian basis functions:                                    4
       Number of spherical basis functions:                                    4
       Norm type:                                                              2

       Normalised Cartesian orbitals:

                        Set   Shell   Orbital            Exponent    Coefficient

                          1       1    2s               15.025673      -0.376932
                                                         6.156801      -0.368898
                                                         2.411456       0.244971
                                                         0.963986       0.349414
                                                         0.396230       0.147372
                                                         0.157659       0.012715
                                                         0.048130       0.000145

                          1       2    3px              15.025673       1.819113
                                                         6.156801       1.920740
                                                         2.411456       1.216350
                                                         0.963986       0.488224
                                                         0.396230       0.135049
                                                         0.157659       0.019710
                                                         0.048130       0.000282
                          1       2    3py              15.025673       1.819113
                                                         6.156801       1.920740
                                                         2.411456       1.216350
                                                         0.963986       0.488224
                                                         0.396230       0.135049
                                                         0.157659       0.019710
                                                         0.048130       0.000282
                          1       2    3pz              15.025673       1.819113
                                                         6.156801       1.920740
                                                         2.411456       1.216350
                                                         0.963986       0.488224
                                                         0.396230       0.135049
                                                         0.157659       0.019710
                                                         0.048130       0.000282

       Atomic covalent radius [Angstrom]:                                  0.720

       Atomic van der Waals radius [Angstrom]:                             1.470

     GTH Potential information for                                    GTH-PBE-q7

       Description:                       Goedecker-Teter-Hutter pseudopotential
                                           Goedecker et al., PRB 54, 1703 (1996)
                                          Hartwigsen et al., PRB 58, 3641 (1998)
                                                      Krack, TCA 114, 145 (2005)

       Gaussian exponent of the core charge distribution:              10.823746
       Electronic configuration (s p d ...):                               2   5

       Parameters of the local part of the GTH pseudopotential:

                          rloc        C1          C2          C3          C4
                        0.214930  -21.573028    3.199776

       Parameters of the non-local part of the GTH (SOC) pseudopotential:

                   l      r(l)      h(i,j,l)
                                    k(i,j,l)
                   0    0.194684   23.743540
                   1    0.186156    0.000000
                                    0.012614


 MOLECULE KIND INFORMATION


 All atoms are their own molecule, skipping detailed information


 TOTAL NUMBERS AND MAXIMUM NUMBERS

  Total number of            - Atomic kinds:                                   1
                             - Atoms:                                          8
                             - Shell sets:                                     8
                             - Shells:                                        16
                             - Primitive Cartesian functions:                 56
                             - Cartesian basis functions:                     32
                             - Spherical basis functions:                     32

  Maximum angular momentum of- Orbital basis functions:                        1
                             - Local part of the GTH pseudopotential:          2
                             - Non-local part of the GTH pseudopotential:      1


 MODULE QUICKSTEP: ATOMIC COORDINATES IN ANGSTROM

   Atom Kind Element         X             Y             Z       Z(eff)     Mass
      1    1 F     9      1.494682      1.217172      0.647338   7.0000  18.9984
      2    1 F     9      3.851374      2.467878      6.229727   7.0000  18.9984
      3    1 F     9      4.259896      1.217172      2.791194   7.0000  18.9984
      4    1 F     9      1.086161      2.467878      4.085871   7.0000  18.9984
      5    1 F     9      4.576232      3.059697      0.647338   7.0000  18.9984
      6    1 F     9      0.769824      0.625353      6.229727   7.0000  18.9984
      7    1 F     9      1.178346      3.059697      2.791194   7.0000  18.9984
      8    1 F     9      4.167711      0.625353      4.085871   7.0000  18.9984



 SCF PARAMETERS         Density guess:                                   RESTART
                        --------------------------------------------------------
                        max_scf:                                             500
                        max_scf_history:                                       0
                        max_diis:                                              4
                        --------------------------------------------------------
                        eps_scf:                                        1.00E-09
                        eps_scf_history:                                0.00E+00
                        eps_diis:                                       1.00E-01
                        eps_eigval:                                     1.00E-05
                        --------------------------------------------------------
                        level_shift [a.u.]:                             0.000000
                        added MOs                                         4    0
                        --------------------------------------------------------
                        Mixing method:                            BROYDEN_MIXING
                                                charge density mixing in g-space
                        --------------------------------------------------------
                        No outer SCF

 PW_GRID| Information for grid number                                          1
 PW_GRID| Grid distributed over                                     8 processors
 PW_GRID| Real space group dimensions                                     8    1
 PW_GRID| the grid is blocked:                                                NO
 PW_GRID| Cutoff [a.u.]                                                    500.0
 PW_GRID| spherical cutoff:                                                   NO
 PW_GRID|   Bounds   1            -60      59                Points:         120
 PW_GRID|   Bounds   2            -36      35                Points:          72
 PW_GRID|   Bounds   3            -67      67                Points:         135
 PW_GRID| Volume element (a.u.^3)  0.9036E-03     Volume (a.u.^3)      1054.0042
 PW_GRID| Grid span                                                    FULLSPACE
 PW_GRID|   Distribution                         Average         Max         Min
 PW_GRID|   G-Vectors                           145800.0      145800      145800
 PW_GRID|   G-Rays                                1215.0        1215        1215
 PW_GRID|   Real Space Points                   145800.0      145800      145800

 PW_GRID| Information for grid number                                          2
 PW_GRID| Number of the reference grid                                         1
 PW_GRID| Grid distributed over                                     8 processors
 PW_GRID| Real space group dimensions                                     8    1
 PW_GRID| the grid is blocked:                                                NO
 PW_GRID| Cutoff [a.u.]                                                    166.7
 PW_GRID| spherical cutoff:                                                   NO
 PW_GRID|   Bounds   1            -36      35                Points:          72
 PW_GRID|   Bounds   2            -22      22                Points:          45
 PW_GRID|   Bounds   3            -40      39                Points:          80
 PW_GRID| Volume element (a.u.^3)  0.4066E-02     Volume (a.u.^3)      1054.0042
 PW_GRID| Grid span                                                    FULLSPACE
 PW_GRID|   Distribution                         Average         Max         Min
 PW_GRID|   G-Vectors                            32400.0       32688       32040
 PW_GRID|   G-Rays                                 450.0         454         445
 PW_GRID|   Real Space Points                    32400.0       32400       32400

 PW_GRID| Information for grid number                                          3
 PW_GRID| Number of the reference grid                                         1
 PW_GRID| Grid distributed over                                     8 processors
 PW_GRID| Real space group dimensions                                     8    1
 PW_GRID| the grid is blocked:                                                NO
 PW_GRID| Cutoff [a.u.]                                                     55.6
 PW_GRID| spherical cutoff:                                                   NO
 PW_GRID|   Bounds   1            -20      19                Points:          40
 PW_GRID|   Bounds   2            -12      11                Points:          24
 PW_GRID|   Bounds   3            -22      22                Points:          45
 PW_GRID| Volume element (a.u.^3)  0.2440E-01     Volume (a.u.^3)      1054.0042
 PW_GRID| Grid span                                                    FULLSPACE
 PW_GRID|   Distribution                         Average         Max         Min
 PW_GRID|   G-Vectors                             5400.0        5560        5280
 PW_GRID|   G-Rays                                 135.0         139         132
 PW_GRID|   Real Space Points                     5400.0        5400        5400

 PW_GRID| Information for grid number                                          4
 PW_GRID| Number of the reference grid                                         1
 PW_GRID| Grid distributed over                                     8 processors
 PW_GRID| Real space group dimensions                                     8    1
 PW_GRID| the grid is blocked:                                                NO
 PW_GRID| Cutoff [a.u.]                                                     18.5
 PW_GRID| spherical cutoff:                                                   NO
 PW_GRID|   Bounds   1            -12      11                Points:          24
 PW_GRID|   Bounds   2             -7       7                Points:          15
 PW_GRID|   Bounds   3            -12      12                Points:          25
 PW_GRID| Volume element (a.u.^3)  0.1171         Volume (a.u.^3)      1054.0042
 PW_GRID| Grid span                                                    FULLSPACE
 PW_GRID|   Distribution                         Average         Max         Min
 PW_GRID|   G-Vectors                             1125.0        1152        1080
 PW_GRID|   G-Rays                                  46.9          48          45
 PW_GRID|   Real Space Points                     1125.0        1125        1125

 POISSON| Solver                                                        PERIODIC
 POISSON| Periodicity                                                        XYZ

 RS_GRID| Information for grid number                                          1
 RS_GRID|   Bounds   1            -60      59                Points:         120
 RS_GRID|   Bounds   2            -36      35                Points:          72
 RS_GRID|   Bounds   3            -67      67                Points:         135
 RS_GRID| Real space fully replicated
 RS_GRID| Group size                                                           1

 RS_GRID| Information for grid number                                          2
 RS_GRID|   Bounds   1            -36      35                Points:          72
 RS_GRID|   Bounds   2            -22      22                Points:          45
 RS_GRID|   Bounds   3            -40      39                Points:          80
 RS_GRID| Real space fully replicated
 RS_GRID| Group size                                                           1

 RS_GRID| Information for grid number                                          3
 RS_GRID|   Bounds   1            -20      19                Points:          40
 RS_GRID|   Bounds   2            -12      11                Points:          24
 RS_GRID|   Bounds   3            -22      22                Points:          45
 RS_GRID| Real space fully replicated
 RS_GRID| Group size                                                           1

 RS_GRID| Information for grid number                                          4
 RS_GRID|   Bounds   1            -12      11                Points:          24
 RS_GRID|   Bounds   2             -7       7                Points:          15
 RS_GRID|   Bounds   3            -12      12                Points:          25
 RS_GRID| Real space fully replicated
 RS_GRID| Group size                                                           1

 Number of electrons:                                                         56
 Number of occupied orbitals:                                                 28
 Number of molecular orbitals:                                                32

 Number of orbital functions:                                                 32
 Number of independent orbital functions:                                     32

 Extrapolation method: initial_guess

 *** WARNING in qs_initial_guess.F:306 :: User requested to restart the    ***
 *** wavefunction from the file named: WSe2-RESTART.kp. This file does not ***
 *** exist. Please check the existence of the file or change properly the  ***
 *** value of the keyword WFN_RESTART_FILE_NAME. Calculation continues     ***
 *** using ATOMIC GUESS.                                                   ***


 Atomic guess: The first density matrix is obtained in terms of atomic orbitals
               and electronic configurations assigned to each atomic kind

 Guess for atomic kind: F

 Electronic structure
    Total number of core electrons                                          2.00
    Total number of valence electrons                                       7.00
    Total number of electrons                                               9.00
    Multiplicity                                                   not specified
    S   [  2.00] 2.00
    P      5.00


 *******************************************************************************
                  Iteration          Convergence                     Energy [au]
 *******************************************************************************
                          1         0.00000                     -23.940386768815

 Energy components [Hartree]           Total Energy ::          -23.940386768815
                                        Band Energy ::           -2.569122769503
                                     Kinetic Energy ::           18.807638946008
                                   Potential Energy ::          -42.748025714823
                                      Virial (-V/T) ::            2.272907611505
                                        Core Energy ::          -40.751511133203
                                          XC Energy ::           -4.368220983717
                                     Coulomb Energy ::           21.179345348105
                       Total Pseudopotential Energy ::          -59.593293007623
                       Local Pseudopotential Energy ::          -61.295341869254
                    Nonlocal Pseudopotential Energy ::            1.702048861632
                                        Confinement ::            0.341429284119

 Orbital energies  State     L     Occupation   Energy[a.u.]          Energy[eV]

                       1     0          2.000      -0.851572          -23.172441

                       1     1          5.000      -0.173196           -4.712901


 Total Electron Density at R=0:                                         0.000154
 Re-scaling the density matrix to get the right number of electrons
                  # Electrons              Trace(P)               Scaling factor
                           56                56.000                        1.000


 SCF WAVEFUNCTION OPTIMIZATION

  Step     Update method      Time    Convergence         Total energy    Change
  ------------------------------------------------------------------------------
     1 NoMix/Diag. 0.50E-01    2.3     0.73994828      -193.5646010157 -1.94E+02
     2 Broy./Diag. 0.50E-01    2.5     0.00212488      -194.3609701383 -7.96E-01
     3 Broy./Diag. 0.50E-01    2.5     0.04688584      -193.6973563935  6.64E-01
     4 Broy./Diag. 0.50E-01    2.5     0.00034065      -193.4626873607  2.35E-01
     5 Broy./Diag. 0.50E-01    2.5     0.00357218      -193.3664640643  9.62E-02
     6 Broy./Diag. 0.50E-01    2.5     0.00010901      -193.3436549041  2.28E-02
     7 Broy./Diag. 0.50E-01    2.5     0.00203541      -193.2278725368  1.16E-01
     8 Broy./Diag. 0.50E-01    2.5     0.00007538      -193.2086777943  1.92E-02
     9 Broy./Diag. 0.50E-01    2.5     0.00022301      -193.1537996771  5.49E-02
    10 Broy./Diag. 0.50E-01    2.5     0.00002487      -193.1492318199  4.57E-03
    11 Broy./Diag. 0.50E-01    2.5     0.00002006      -193.1481733614  1.06E-03
    12 Broy./Diag. 0.50E-01    2.5     0.00002821      -193.1472207456  9.53E-04
    13 Broy./Diag. 0.50E-01    2.5     0.00000049      -193.1470991472  1.22E-04
    14 Broy./Diag. 0.50E-01    2.5     0.00001666      -193.1481473482 -1.05E-03
    15 Broy./Diag. 0.50E-01    2.5     0.00000027      -193.1482462228 -9.89E-05
    16 Broy./Diag. 0.50E-01    2.5     0.00000210      -193.1481568610  8.94E-05
    17 Broy./Diag. 0.50E-01    2.5     0.00000013      -193.1481589825 -2.12E-06
    18 Broy./Diag. 0.50E-01    2.5     0.00000134      -193.1480603551  9.86E-05
    19 Broy./Diag. 0.50E-01    2.5     0.00000020      -193.1480447098  1.56E-05
    20 Broy./Diag. 0.50E-01    2.5     0.00000075      -193.1480361066  8.60E-06
    21 Broy./Diag. 0.50E-01    2.5     0.00000015      -193.1480794378 -4.33E-05
    22 Broy./Diag. 0.50E-01    2.5     0.00000038      -193.1481840911 -1.05E-04
    23 Broy./Diag. 0.50E-01    2.5     0.00000002      -193.1481869339 -2.84E-06
    24 Broy./Diag. 0.50E-01    2.5     0.00000003      -193.1481894825 -2.55E-06
    25 Broy./Diag. 0.50E-01    2.5     0.00000004      -193.1481891385  3.44E-07
    26 Broy./Diag. 0.50E-01    2.5     8.8462E-09      -193.1481893111 -1.73E-07
    27 Broy./Diag. 0.50E-01    2.5     0.00000002      -193.1481925912 -3.28E-06
    28 Broy./Diag. 0.50E-01    2.5     0.00000008      -193.1481987607 -6.17E-06
    29 Broy./Diag. 0.50E-01    2.5     3.3366E-09      -193.1481998565 -1.10E-06
    30 Broy./Diag. 0.50E-01    2.5     0.00000004      -193.1481994866  3.70E-07
    31 Broy./Diag. 0.50E-01    2.5     7.9139E-09      -193.1481979246  1.56E-06
    32 Broy./Diag. 0.50E-01    2.5     0.00000002      -193.1481932096  4.71E-06
    33 Broy./Diag. 0.50E-01    2.5     2.6037E-09      -193.1481930641  1.46E-07
    34 Broy./Diag. 0.50E-01    2.5     0.00000002      -193.1481940981 -1.03E-06
    35 Broy./Diag. 0.50E-01    2.5     3.7519E-09      -193.1481948094 -7.11E-07
    36 Broy./Diag. 0.50E-01    2.5     3.2739E-09      -193.1481953247 -5.15E-07
    37 Broy./Diag. 0.50E-01    2.5     2.2792E-09      -193.1481952281  9.66E-08
    38 Broy./Diag. 0.50E-01    2.5     5.6274E-09      -193.1481951544  7.37E-08
    39 Broy./Diag. 0.50E-01    2.5     6.3801E-09      -193.1481953082 -1.54E-07
    40 Broy./Diag. 0.50E-01    2.5     2.5518E-09      -193.1481956103 -3.02E-07
    41 Broy./Diag. 0.50E-01    2.5     6.4998E-10      -193.1481959903 -3.80E-07

  *** SCF run converged in    41 steps ***


  Electronic density on regular grids:        -56.0000000000        0.0000000000
  Core density on regular grids:               56.0000000000       -0.0000000000
  Total charge density on r-space grids:        0.0000000000
  Total charge density g-space grids:           0.0000000000

  Overlap energy of the core charge distribution:               0.00000000000000
  Self energy of the core charge distribution:               -514.49946177890274
  Core Hamiltonian energy:                                    141.63502056273367
  Hartree energy:                                             216.13491941933995
  Exchange-correlation energy:                                -36.41867419350851

  Total energy:                                              -193.14819599033765

 !-----------------------------------------------------------------------------!
                     Mulliken Population Analysis

 #  Atom  Element  Kind  Atomic population                           Net charge
       1     F        1          7.000000                              0.000000
       2     F        1          7.000000                              0.000000
       3     F        1          7.000000                             -0.000000
       4     F        1          7.000000                             -0.000000
       5     F        1          7.000000                              0.000000
       6     F        1          7.000000                              0.000000
       7     F        1          7.000000                             -0.000000
       8     F        1          7.000000                             -0.000000
 # Total charge                             56.000000                  0.000000

 !-----------------------------------------------------------------------------!

 !-----------------------------------------------------------------------------!
                           Hirshfeld Charges

  #Atom  Element  Kind  Ref Charge     Population                    Net charge
      1       F      1       7.000          7.000                         0.000
      2       F      1       7.000          7.000                         0.000
      3       F      1       7.000          7.000                        -0.000
      4       F      1       7.000          7.000                        -0.000
      5       F      1       7.000          7.000                         0.000
      6       F      1       7.000          7.000                         0.000
      7       F      1       7.000          7.000                        -0.000
      8       F      1       7.000          7.000                        -0.000

  Total Charge                                                            0.000
 !-----------------------------------------------------------------------------!

 KPOINTS| Band Structure Calculation
 KPOINTS| Number of k-point sets                                               1
 KPOINTS| Number of added MOs/bands                                           -1
 KPOINTS| Number of k-points in set    1                                     148
 KPOINTS| In units of b-vector [2pi/Bohr]
 KPOINTS| Special point     1 not specifi     0.000000     0.000000     0.000000
 KPOINTS| Special point     2 not specifi     0.340639     0.340639     0.000000
 KPOINTS| Special point     3 not specifi    -0.500000     0.500000     0.000000
 KPOINTS| Special point     4 not specifi     0.000000     0.000000     0.000000
 KPOINTS| Time for k-point line                                            0.890

 ENERGY| Total FORCE_EVAL ( QS ) energy [hartree]           -193.148195990337655

 -------------------------------------------------------------------------------
 -                                                                             -
 -                                DBCSR STATISTICS                             -
 -                                                                             -
 -------------------------------------------------------------------------------
 COUNTER                                    TOTAL       BLAS       SMM       ACC
 flops inhomo. stacks                           0       0.0%      0.0%      0.0%
 flops total                         0.000000E+00       0.0%      0.0%      0.0%
 flops max/rank                      0.000000E+00       0.0%      0.0%      0.0%
 matmuls inhomo. stacks                         0       0.0%      0.0%      0.0%
 matmuls total                                  0       0.0%      0.0%      0.0%
 number of processed stacks                     0       0.0%      0.0%      0.0%
 average stack size                                     0.0       0.0       0.0
 marketing flops                     0.000000E+00
 -------------------------------------------------------------------------------
 -                                                                             -
 -                      DBCSR MESSAGE PASSING PERFORMANCE                      -
 -                                                                             -
 -------------------------------------------------------------------------------
 ROUTINE             CALLS      AVE VOLUME [Bytes]
 MP_Bcast                1                     12.
 MP_Allreduce           19                     21.
 MP_Alltoall        900580                    743.
 -------------------------------------------------------------------------------

 -------------------------------------------------------------------------------
 -                                                                             -
 -                                DBM STATISTICS                               -
 -                                                                             -
 -------------------------------------------------------------------------------
    M  x    N  x    K                                          COUNT     PERCENT
 -------------------------------------------------------------------------------

 -------------------------------------------------------------------------------
 -                                                                             -
 -                                GRID STATISTICS                              -
 -                                                                             -
 -------------------------------------------------------------------------------
 LP    KERNEL             BACKEND                              COUNT     PERCENT
 2     collocate general  CPU                                2886408      50.60%
 2     integrate general  CPU                                2817684      49.40%
 0     collocate general  CPU                                     16       0.00%
 0     integrate general  CPU                                      8       0.00%
 -------------------------------------------------------------------------------

 MEMORY| Estimated peak process memory [MiB]                                 435

 -------------------------------------------------------------------------------
 ----                             MULTIGRID INFO                            ----
 -------------------------------------------------------------------------------
 count for grid        1:          20400          cutoff [a.u.]          500.00
 count for grid        2:          16036          cutoff [a.u.]          166.67
 count for grid        3:          28588          cutoff [a.u.]           55.56
 count for grid        4:          43484          cutoff [a.u.]           18.52
 total gridlevel count  :         108508

 -------------------------------------------------------------------------------
 -                                                                             -
 -                         MESSAGE PASSING PERFORMANCE                         -
 -                                                                             -
 -------------------------------------------------------------------------------

 ROUTINE             CALLS      AVE VOLUME [Bytes]
 MP_Group                6
 MP_Bcast           382593                  15088.
 MP_Allreduce       103199                     37.
 MP_Sync                 4
 MP_Alltoall           743                6484043.
 MP_SendRecv          1190                 378826.
 MP_ISendRecv         1155                 374280.
 MP_Wait            263447
 MP_comm_split           4
 MP_ISend           278924                    245.
 MP_IRecv           445568                    156.
 -------------------------------------------------------------------------------


 -------------------------------------------------------------------------------
 -                                                                             -
 -                           R E F E R E N C E S                               -
 -                                                                             -
 -------------------------------------------------------------------------------
 
 CP2K version 2025.1 (Development Version), the CP2K developers group (2025).
 CP2K is freely available from https://www.cp2k.org/ .
 
 T. D. Kuehne, M. Iannuzzi, M. Del Ben, V. V. Rybkin, P. Seewald, F. Stein, T. 
 Laino, R. Z. Khaliullin, O. Schuett, F. Schiffmann, D. Golze, J. Wilhelm, S. 
 Chulkov, M. H. Bani-Hashemian, V. Weber, U. Borstnik, M. Taillefumier, A. S. 
 Jakobovits, A. Lazzaro, H. Pabst, T. Mueller, R. Schade, M. Guidon, S. 
 Andermatt, N. Holmberg, G. K. Schenter, A. Hehn, A. Bussy, F. Belleflamme, G. 
 Tabacchi, A. Gloess, M. Lass, I. Bethune, C. J. Mundy, C. Plessl, M. Watkins, 
 J. VandeVondele, M. Krack, J. Hutter.
 J. Chem. Phys. 152, 194103 (2020).
 CP2K: An electronic structure and molecular dynamics software package - 
 Quickstep: Efficient and accurate electronic structure calculations.
 https://doi.org/10.1063/5.0007045

 O. Schuett, P. Messmer, J. Hutter, J. VandeVondele.
 Electronic Structure Calculations on Graphics Processing Units, 173-190 (2016).
 GPU-Accelerated Sparse Matrix-Matrix Multiplication for Linear Scaling Density 
 Functional Theory.
 https://doi.org/10.1002/9781118670712.ch8

 J. Hutter, M. Iannuzzi, F. Schiffmann, J. VandeVondele.
 WIREs Comput Mol Sci. 4, 15-25 (2014).
 CP2K: atomistic simulations of condensed matter systems.
 https://doi.org/10.1002/wcms.1159

 U. Borstnik, J. VandeVondele, V. Weber, J. Hutter.
 Parallel Comput. 40, 47-58 (2014).
 Sparse matrix multiplication: The distributed block-compressed sparse row 
 library.
 https://doi.org/10.1016/j.parco.2014.03.012

 J. VandeVondele, J. Hutter.
 J. Chem. Phys. 127, 114105 (2007).
 Gaussian basis sets for accurate calculations on molecular systems in gas and 
 condensed phases.
 https://doi.org/10.1063/1.2770708

 J. VandeVondele, M. Krack, F. Mohamed, M. Parrinello, T. Chassaing, J. Hutter.
 Comput. Phys. Commun. 167, 103-128 (2005).
 QUICKSTEP: Fast and accurate density functional calculations using a mixed 
 Gaussian and plane waves approach.
 https://doi.org/10.1016/j.cpc.2004.12.014

 M. Krack.
 Theor. Chem. Acc. 114, 145-152 (2005).
 Pseudopotentials for H to Kr optimized for gradient-corrected 
 exchange-correlation functionals.
 https://doi.org/10.1007/s00214-005-0655-y

 M. Frigo, S. G. Johnson.
 Proc. IEEE 93, 216-231 (2005).
 The design and implementation of FFTW3.
 https://doi.org/10.1109/JPROC.2004.840301

 C. Hartwigsen, S. Goedecker, J. Hutter.
 Phys. Rev. B 58, 3641-3662 (1998).
 Relativistic separable dual-space Gaussian pseudopotentials from H to Rn.
 https://doi.org/10.1103/PhysRevB.58.3641

 G. Lippert, J. Hutter, M. Parrinello.
 Mol. Phys. 92, 477-487 (1997).
 A hybrid Gaussian and plane wave density functional scheme.
 https://doi.org/10.1080/002689797170220

 S. Goedecker, M. Teter, J. Hutter.
 Phys. Rev. B 54, 1703-1710 (1996).
 Separable dual-space Gaussian pseudopotentials.
 https://doi.org/10.1103/PhysRevB.54.1703

 J. P. Perdew, K. Burke, M. Ernzerhof.
 Phys. Rev. Lett. 77, 3865-3868 (1996).
 Generalized gradient approximation made simple.
 https://doi.org/10.1103/PhysRevLett.77.3865


 -------------------------------------------------------------------------------
 -                                                                             -
 -                                T I M I N G                                  -
 -                                                                             -
 -------------------------------------------------------------------------------
 SUBROUTINE                       CALLS  ASD         SELF TIME        TOTAL TIME
                                MAXIMUM       AVERAGE  MAXIMUM  AVERAGE  MAXIMUM
 CP2K                                 1  1.0    0.012    0.016  107.376  107.376
 qs_energies                          1  2.0    0.005    0.020  106.119  106.127
 scf_env_do_scf                       1  3.0    0.000    0.000  103.908  103.908
 scf_env_do_scf_inner_loop           41  4.0    0.031    0.033  103.908  103.908
 do_general_diag_kp                  42  5.9    0.246    0.258   83.340   85.628
 qs_scf_new_mos_kp                   41  5.0    0.000    0.000   82.476   84.769
 rskp_transform                   21288  7.0   26.750   30.461   26.750   30.461
 dbcsr_complete_redistribute      66055  8.3    2.240    2.401   20.732   25.150
 mp_alltoall_i22                 153694  8.8    9.195   25.120    9.195   25.120
 dbcsr_desymmetrize_deep          87639  7.4    1.420    1.500   13.546   24.922
 kpoint_density_transform            41  7.0    0.104    0.110   22.922   22.930
 copy_dbcsr_to_fm                 45063  6.9    0.472    0.505   20.907   21.334
 transform_dmat                   10496  8.0   12.735   14.629   12.735   14.629
 copy_fm_to_dbcsr                 20992  8.0    0.133    0.139    8.281   12.641
 qs_ks_update_qs_env                 41  5.0    0.000    0.000    9.886   10.910
 rebuild_ks_matrix                   41  6.0    0.000    0.000    8.958    9.982
 qs_ks_build_kohn_sham_matrix        41  7.0    0.059    0.060    8.958    9.982
 sum_up_and_integrate                41  8.0    0.000    0.001    7.240    8.266
 integrate_v_rspace                  41  9.0    0.062    0.096    7.238    8.263
 qs_rho_update_rho_low               42  5.0    0.000    0.000    8.246    8.255
 calculate_rho_elec                  42  6.0    0.048    0.049    8.245    8.255
 grid_integrate_task_list            41 10.0    6.600    7.591    6.600    7.591
 grid_collocate_task_list            42  7.0    6.456    7.310    6.456    7.310
 dbcsr_finalize                  167454  8.6    0.755    0.836    5.145    5.632
 cp_fm_start_copy_general         63568  7.3    0.731    1.158    4.808    4.887
 mp_alltoall_d11v                461082  9.4    4.121    4.423    4.121    4.423
 density_rs2pw                       42  7.0    0.002    0.002    1.734    3.865
 transfer_rs2pw                     170  8.0    0.002    0.002    1.489    3.756
 mp_cart_sub                      90128  8.9    3.701    3.714    3.701    3.714
 transfer_rs2pw_500                  44  8.9    0.175    0.186    1.357    3.637
 mp_sendrecv_dv                    1190 10.0    1.269    3.524    1.269    3.524
 dbcsr_merge_all                  66055 10.3    1.796    2.196    2.763    3.187
 hybrid_alltoall_any              87639  8.4    0.337    0.352    2.649    2.877
 mp_alltoall_i11v                285804  9.0    2.774    2.809    2.774    2.809
 mp_cart_create                   45070  8.9    2.178    2.247    2.178    2.247
 mp_allgather_i                  127136  8.3    1.854    1.966    1.854    1.966
 mp_bcast_iv                     254436  8.3    1.508    1.706    1.508    1.706
 write_kpoints_restart               41  5.0    0.008    0.012    1.670    1.670
 fft_wrap_pw1pw2                    743 10.0    0.007    0.008    1.643    1.658
 fft_wrap_pw1pw2_500                494 11.3    0.120    0.123    1.524    1.544
 dbcsr_create_new                293821  8.1    1.168    1.267    1.403    1.518
 dbcsr_copy                       89799  7.1    0.427    0.464    1.298    1.456
 dbcsr_work_create               153694  8.8    0.965    1.017    1.363    1.432
 fft3d_ps                           743 12.0    0.566    0.580    1.313    1.331
 dbcsr_iterator_start            519884  8.9    0.975    0.998    1.135    1.170
 qs_vxc_create                       41  8.0    0.001    0.001    1.160    1.161
 xc_vxc_pw_create                    41  9.0    0.047    0.047    1.159    1.161
 create_qs_kind_set                   1  2.0    0.000    0.000    1.101    1.101
 read_qs_kind                         1  3.0    0.661    0.668    1.101    1.101
 dbcsr_work_destroy_all          153694  9.8    0.722    0.734    1.085    1.095
 gspace_mixing                       40  5.0    0.042    0.042    1.052    1.052
 copy_fm_to_dbcsr_bc              20992  9.0    0.283    0.308    0.935    1.013
 copy_dbcsr_to_fm_bc              45063  7.9    0.431    0.451    0.955    0.988
 evaluate_core_matrix_traces         41  6.0    0.000    0.000    0.928    0.928
 calculate_ptrace_kp                 82  7.0    0.049    0.052    0.928    0.928
 dbcsr_copy_into_existing         21821  9.8    0.634    0.754    0.761    0.883
 dbcsr_dot                        67979  8.0    0.317    0.330    0.878    0.879
 broyden_mixing                      40  6.0    0.841    0.864    0.871    0.874
 dbcsr_data_new                 1655338  9.7    0.709    0.870    0.709    0.870
 dbcsr_data_release             2350500 10.1    0.777    0.789    0.777    0.789
 dbcsr_iterator_stop             519884  8.9    0.629    0.641    0.742    0.756
 xc_pw_derive                       246 11.0    0.001    0.001    0.740    0.746
 qs_energies_init_hamiltonians        1  3.0    0.000    0.000    0.729    0.729
 cp_dbcsr_alloc_block_from_nbl     6051  5.1    0.618    0.696    0.640    0.718
 tree_to_linear_d                 66055 11.3    0.677    0.703    0.677    0.703
 dbcsr_destroy                   225843  8.2    0.373    0.383    0.649    0.688
 mp_alltoall_z22v                   743 14.0    0.650    0.683    0.650    0.683
 xc_rho_set_and_dset_create          41 10.0    0.030    0.031    0.628    0.632
 potential_pw2rs                     41 10.0    0.003    0.003    0.575    0.589
 build_core_hamiltonian_matrix        1  4.0    0.003    0.003    0.483    0.570
 cp_cfm_geeig                      1349  6.9    0.008    0.008    0.539    0.548
 mp_waitall_1                    263447  8.3    0.306    0.533    0.306    0.533
 mp_bcast_im                     127136  8.3    0.459    0.521    0.459    0.521
 cp_fm_write_unformatted           2487  6.0    0.466    0.502    0.470    0.518
 self_consistency_check              41  5.0    0.047    0.048    0.499    0.517
 parser_read_line                143978  4.0    0.047    0.050    0.497    0.501
 quick_finalize                   87639  9.4    0.281    0.290    0.484    0.497
 xc_pw_divergence                    41 10.0    0.001    0.001    0.478    0.482
 mp_sum_d                         68729  8.9    0.407    0.461    0.407    0.461
 parser_read_line_low               163  5.2    0.053    0.229    0.450    0.454
 broadcast_input_information        163  6.2    0.105    0.110    0.397    0.427
 cp_cfm_heevd                      1349  7.9    0.001    0.002    0.421    0.426
 x_to_yz                            410 13.2    0.058    0.061    0.413    0.425
 cp_cfm_heevd_base                 1349  8.9    0.419    0.425    0.419    0.425
 cp_sm_mix                        33989  6.0    0.122    0.126    0.406    0.423
 transfer_pw2rs                     165 11.0    0.001    0.001    0.389    0.390
 mp_comm_free                    135235  8.9    0.324    0.371    0.324    0.371
 yz_to_x                            333 12.8    0.032    0.036    0.327    0.344
 init_scf_run                         1  3.0    0.000    0.000    0.276    0.332
 scf_env_initial_rho_setup            1  4.0    0.000    0.000    0.276    0.332
 qs_env_update_s_mstruct              1  4.0    0.000    0.000    0.222    0.323
 transfer_pw2rs_500                  42 11.9    0.147    0.152    0.286    0.290
 calculate_rho_core                   1  5.0    0.001    0.002    0.109    0.245
 dbcsr_set                       181748  7.8    0.170    0.175    0.234    0.241
 dbcsr_sort_indices              180737 10.8    0.207    0.240    0.207    0.240
 mp_max_d                         33991  7.0    0.206    0.234    0.206    0.234
 xc_functional_eval                  41 11.0    0.000    0.000    0.207    0.210
 pbe_lda_eval                        41 12.0    0.207    0.210    0.207    0.210
 mixing_allocate                      1  3.0    0.005    0.005    0.187    0.207
 mp_bcast_i_src                     652  7.2    0.170    0.199    0.170    0.199
 cp_fm_finish_copy_general        26388  7.8    0.135    0.137    0.175    0.187
 dbcsr_iterator_seek             519884  9.9    0.160    0.172    0.160    0.172
 dbcsr_make_index_exist          293821  9.1    0.150    0.157    0.150    0.157
 kpoint_density_matrices             41  7.0    0.012    0.012    0.146    0.149
 build_core_ppnl                      1  5.0    0.107    0.143    0.107    0.143
 merge_index                      66055 11.3    0.127    0.140    0.127    0.140
 dbcsr_reserve_all_blocks         20992 10.0    0.035    0.039    0.126    0.135
 parallel_gemm_fm                  5248  8.0    0.005    0.005    0.132    0.135
 parallel_gemm_fm_gemm             5248  9.0    0.005    0.005    0.127    0.130
 cp_fm_gemm                        5248 10.0    0.123    0.126    0.123    0.126
 mp_bcast_am_src                    163  7.2    0.111    0.114    0.120    0.125
 transfer_rs2pw_170                  42  9.0    0.034    0.036    0.103    0.123
 mp_irecv_iv                     254272  8.3    0.015    0.122    0.015    0.122
 dbcsr_reserve_blocks             27043  9.9    0.083    0.089    0.111    0.117
 pw_scatter_p                       410 12.2    0.110    0.113    0.110    0.113
 build_overlap_matrix_low             1  5.0    0.007    0.008    0.098    0.111
 build_kinetic_matrix_low             1  5.0    0.007    0.008    0.098    0.110
 dbcsr_switch_data_area           87639 10.4    0.078    0.079    0.102    0.105
 qs_env_rebuild_rho                   1  5.0    0.000    0.000    0.092    0.103
 qs_rho_rebuild                       1  6.0    0.002    0.002    0.092    0.103
 pw_poisson_solve                    41  8.0    0.000    0.000    0.093    0.094
 mp_isend_dv                      64160  8.3    0.089    0.094    0.089    0.094
 mp_isend_iv                     143176  8.3    0.022    0.086    0.022    0.086
 transfer_pw2rs_170                  41 12.0    0.036    0.038    0.079    0.084
 fft_wrap_pw1pw2_170                 83 10.5    0.006    0.006    0.079    0.082
 build_core_ppl                       1  5.0    0.056    0.081    0.056    0.081
 calculate_first_density_matrix       1  5.0    0.001    0.001    0.024    0.080
 mp_bcast_b_src                      42  6.0    0.022    0.077    0.022    0.077
 cp_fm_cleanup_copy_general       45200  7.0    0.050    0.050    0.075    0.077
 mp_isendrecv_dv                   1155 13.0    0.040    0.077    0.040    0.077
 dbcsr_distribution_new           66057  8.6    0.057    0.069    0.057    0.069
 dbcsr_zero                      181748  8.8    0.064    0.066    0.064    0.066
 dbcsr_get_data_size_used        153694  9.8    0.059    0.064    0.059    0.064
 topology_control                     1  2.0    0.000    0.000    0.063    0.063
 pw_integral_ab_c1d_c1d_gs           41  9.0    0.059    0.060    0.061    0.062
 mp_irecv_im2                    127136  8.3    0.008    0.061    0.008    0.061
 cp_cfm_triangular_multiply        4047  7.9    0.057    0.060    0.057    0.060
 pw_gather_p                        333 11.8    0.054    0.056    0.054    0.056
 dbcsr_make_dbcsr_index          180737 10.8    0.052    0.054    0.052    0.054
 qs_init_subsys                       1  2.0    0.001    0.002    0.051    0.052
 calculate_ecore_overlap              1  4.0    0.000    0.000    0.014    0.049
 qs_env_setup                         1  3.0    0.000    0.000    0.049    0.049
 qs_env_rebuild_pw_env                2  3.5    0.000    0.000    0.048    0.049
 pw_env_rebuild                       1  5.0    0.000    0.001    0.048    0.049
 pw_grid_setup                        4  6.0    0.000    0.000    0.047    0.047
 pw_grid_setup_internal               4  7.0    0.001    0.001    0.047    0.047
 read_cell_cif                        2  4.5    0.002    0.005    0.043    0.043
 mp_isend_im2                     71588  8.3    0.010    0.039    0.010    0.039
 mp_irecv_dv                      64160  8.3    0.036    0.038    0.036    0.038
 mp_sum_iv                           24  5.3    0.010    0.038    0.010    0.038
 qs_scf_ensure_work_matrices          1  3.0    0.000    0.000    0.010    0.038
 pw_copy                            615 10.5    0.035    0.038    0.035    0.038
 coordinate_control                   1  3.0    0.000    0.001    0.037    0.038
 coordinate_control_READ_COORDI       1  4.0    0.000    0.000    0.037    0.038
 read_coordinate_cif                  1  5.0    0.002    0.002    0.037    0.037
 kpoint_set_mo_occupation            41  7.0    0.015    0.015    0.029    0.035
 dbcsr_data_copy_aa2              66055 11.3    0.033    0.034    0.033    0.034
 mp_sum_dv                          336  3.5    0.017    0.034    0.017    0.034
 mp_sum_dm                           40  7.0    0.020    0.033    0.020    0.033
 pw_grid_sort                         4  8.0    0.023    0.024    0.030    0.032
 pw_derive                          369 11.3    0.029    0.030    0.029    0.030
 scf_post_calculation_gpw             1  3.0    0.000    0.000    0.028    0.028
 write_available_results              1  4.0    0.000    0.000    0.027    0.028
 write_mo_free_results                1  5.0    0.002    0.002    0.027    0.027
 pw_copy_from_array                 410 12.2    0.022    0.027    0.022    0.027
 mixing_init                          1  5.0    0.025    0.026    0.026    0.026
 cp_cfm_cholesky_decompose         1349  7.9    0.024    0.025    0.024    0.025
 qs_create_task_list                  1  5.0    0.000    0.000    0.021    0.025
 generate_qs_task_list                1  6.0    0.015    0.018    0.021    0.025
 fft_wrap_pw1pw2_60                  83 10.5    0.001    0.001    0.023    0.023
 cp_cfm_triangular_invert          1349  7.9    0.022    0.022    0.022    0.022
 transfer_rs2pw_60                   42  9.0    0.006    0.006    0.020    0.022
 pw_poisson_set                      42  8.9    0.001    0.001    0.021    0.022
 mp_comm_size                     69225  9.0    0.018    0.021    0.018    0.021
 mp_sum_dm3                          41  8.0    0.014    0.020    0.014    0.020
 transfer_pw2rs_60                   41 12.0    0.007    0.007    0.018    0.020
 mp_comm_rank                     69225  9.0    0.016    0.018    0.016    0.018
 mp_recv_dv                        7461  7.0    0.002    0.016    0.002    0.016
 restraint_control                    1  2.0    0.000    0.000    0.008    0.016
 mp_sum_i                             4  2.8    0.008    0.016    0.008    0.016
 pw_axpy                            414  9.3    0.014    0.015    0.014    0.015
 pw_zero                            206 10.4    0.008    0.012    0.008    0.012
 fft_wrap_pw1pw2_20                  83 10.5    0.001    0.001    0.011    0.011
 pw_copy_to_array                   333 11.8    0.010    0.011    0.010    0.011
 calculate_hirshfeld_normalizat       1  6.0    0.003    0.003    0.011    0.011
 -------------------------------------------------------------------------------

 The number of warnings for this run is : 2
 
 -------------------------------------------------------------------------------
  **** **** ******  **  PROGRAM ENDED AT                 2025-08-20 15:56:24.837
 ***** ** ***  *** **   PROGRAM RAN ON                              i01r10c05s02
 **    ****   ******    PROGRAM RAN BY                                   di38fab
 ***** **    ** ** **   PROGRAM PROCESS ID                               1481252
  **** **  *******  **  PROGRAM STOPPED IN /hppfs/scratch/04/di38fab/09_GTH/Delt
                                           a_Set/F/SZV-MOLOPT-GTH/8x8x8
