Kr                                      
   1.00000000000000     
     6.429300    0.000000    0.000000
     0.000000    6.429300    0.000000
     0.000000    0.000000    6.429300
   Kr
     4
Direct
  0.000000  0.000000  0.000000
  0.000000  0.500000  0.500000
  0.500000  0.000000  0.500000
  0.500000  0.500000  0.000000
 
   48   48   48
 -.49657539650E+02 0.13788082892E+02 0.16707279423E+03 0.32526419965E+03 0.41184563675E+03
 0.40049459688E+03 0.31715857437E+03 0.21254871939E+03 0.12929628608E+03 0.75545393084E+02
 0.43546107428E+02 0.25284743828E+02 0.14798394544E+02 0.85735188642E+01 0.49545158295E+01
 0.30033666931E+01 0.18839187204E+01 0.11027350420E+01 0.64722095277E+00 0.52636006876E+00
 0.48475555563E+00 0.34761748293E+00 0.26485777541E+00 0.35805702532E+00 0.44317363864E+00
 0.35805702532E+00 0.26485777541E+00 0.34761748293E+00 0.48475555563E+00 0.52636006876E+00
 0.64722095277E+00 0.11027350420E+01 0.18839187204E+01 0.30033666931E+01 0.49545158295E+01
 0.85735188642E+01 0.14798394544E+02 0.25284743828E+02 0.43546107428E+02 0.75545393084E+02
 0.12929628608E+03 0.21254871939E+03 0.31715857437E+03 0.40049459688E+03 0.41184563675E+03
 0.32526419965E+03 0.16707279423E+03 0.13788082892E+02 0.13788082892E+02 0.70703962531E+02
 0.20731006226E+03 0.34553279211E+03 0.41560385761E+03 0.39470348794E+03 0.30858065514E+03
 0.20558144686E+03 0.12514830862E+03 0.73290502874E+02 0.42371286171E+02 0.24670126332E+02
 0.14470149192E+02 0.84020236368E+01 0.48674812419E+01 0.29543696823E+01 0.18541745073E+01
 0.10888788319E+01 0.63873848222E+00 0.50681973451E+00 0.44925690301E+00 0.30116232447E+00
 0.20618130079E+00 0.28211865152E+00 0.35805702532E+00 0.28211865152E+00 0.20618130079E+00
 0.30116232447E+00 0.44925690301E+00 0.50681973451E+00 0.63873848222E+00 0.10888788319E+01
 0.18541745073E+01 0.29543696823E+01 0.48674812419E+01 0.84020236368E+01 0.14470149192E+02
 0.24670126332E+02 0.42371286171E+02 0.73290502874E+02 0.12514830862E+03 0.20558144686E+03
 0.30858065514E+03 0.39470348794E+03 0.41560385761E+03 0.34553279211E+03 0.20731006226E+03
 0.70703962531E+02 0.16707279423E+03 0.20731006226E+03 0.30142913952E+03 0.38912695067E+03
 0.41806440239E+03 0.37435453069E+03 0.28300401173E+03 0.18595097866E+03 0.11356527125E+03
 0.66984372855E+02 0.39068924367E+02 0.22931313987E+02 0.13536270201E+02 0.79114163016E+01
 0.46171415365E+01 0.28141060086E+01 0.17712717624E+01 0.10550483158E+01 0.62930849109E+00
 0.48373843454E+00 0.40640880904E+00 0.25685819153E+00 0.15648399008E+00 0.20618130079E+00
 0.26485777541E+00 0.20618130079E+00 0.15648399008E+00 0.25685819153E+00 0.40640880904E+00
 0.48373843454E+00 0.62930849109E+00 0.10550483158E+01 0.17712717624E+01 0.28141060086E+01
 0.46171415365E+01 0.79114163016E+01 0.13536270201E+02 0.22931313987E+02 0.39068924367E+02
 0.66984372855E+02 0.11356527125E+03 0.18595097866E+03 0.28300401173E+03 0.37435453069E+03
 0.41806440239E+03 0.38912695067E+03 0.30142913952E+03 0.20731006226E+03 0.32526419965E+03
 0.34553279211E+03 0.38912695067E+03 0.41777342576E+03 0.40057193429E+03 0.33427008446E+03
 0.24224799217E+03 0.15741571707E+03 0.96837686249E+02 0.57838210986E+02 0.34227283622E+02
 0.20349055288E+02 0.12134375699E+02 0.71674330881E+01 0.42339343757E+01 0.26014436332E+01
 0.16508102263E+01 0.10143028070E+01 0.63901632513E+00 0.50104706988E+00 0.43290770188E+00
 0.32361807801E+00 0.25685819153E+00 0.30116232447E+00 0.34761748293E+00 0.30116232447E+00
 0.25685819153E+00 0.32361807801E+00 0.43290770188E+00 0.50104706988E+00 0.63901632513E+00
 0.10143028070E+01 0.16508102263E+01 0.26014436332E+01 0.42339343757E+01 0.71674330881E+01
 0.12134375699E+02 0.20349055288E+02 0.34227283622E+02 0.57838210986E+02 0.96837686249E+02
 0.15741571707E+03 0.24224799217E+03 0.33427008446E+03 0.40057193429E+03 0.41777342576E+03
 0.38912695067E+03 0.34553279211E+03 0.41184563675E+03 0.41560385761E+03 0.41806440239E+03
 0.40057193429E+03 0.35099361427E+03 0.27469129671E+03 0.19222695865E+03 0.12506729818E+03
 0.77930572117E+02 0.47404008994E+02 0.28606957509E+02 0.17294222060E+02 0.10451213283E+02
 0.62625276687E+01 0.37630336625E+01 0.23444823538E+01 0.15128504465E+01 0.97407308131E+00
 0.66229584064E+00 0.54252235762E+00 0.49325179835E+00 0.43290770188E+00 0.40640880904E+00
 0.44925690301E+00 0.48475555563E+00 0.44925690301E+00 0.40640880904E+00 0.43290770188E+00
 0.49325179835E+00 0.54252235762E+00 0.66229584064E+00 0.97407308131E+00 0.15128504465E+01
 0.23444823538E+01 0.37630336625E+01 0.62625276687E+01 0.10451213283E+02 0.17294222060E+02
 0.28606957509E+02 0.47404008994E+02 0.77930572117E+02 0.12506729818E+03 0.19222695865E+03
 0.27469129671E+03 0.35099361427E+03 0.40057193429E+03 0.41806440239E+03 0.41560385761E+03
 0.40049459688E+03 0.39470348794E+03 0.37435453069E+03 0.33427008446E+03 0.27469129671E+03
 0.20553457439E+03 0.14251743953E+03 0.93795586498E+02 0.59586273160E+02 0.37111416371E+02
 0.22925734206E+02 0.14131668936E+02 0.86790843487E+01 0.52973998720E+01 0.32576718037E+01
 0.20774378589E+01 0.13819548975E+01 0.94596672317E+00 0.69605267285E+00 0.58921444985E+00
 0.54252235762E+00 0.50104706988E+00 0.48373843454E+00 0.50681973451E+00 0.52636006876E+00
 0.50681973451E+00 0.48373843454E+00 0.50104706988E+00 0.54252235762E+00 0.58921444985E+00
 0.69605267285E+00 0.94596672317E+00 0.13819548975E+01 0.20774378589E+01 0.32576718037E+01
 0.52973998720E+01 0.86790843487E+01 0.14131668936E+02 0.22925734206E+02 0.37111416371E+02
 0.59586273160E+02 0.93795586498E+02 0.14251743953E+03 0.20553457439E+03 0.27469129671E+03
 0.33427008446E+03 0.37435453069E+03 0.39470348794E+03 0.31715857437E+03 0.30858065514E+03
 0.28300401173E+03 0.24224799217E+03 0.19222695865E+03 0.14251743953E+03 0.99874553181E+02
 0.67014450218E+02 0.43664269784E+02 0.27950468774E+02 0.17711581434E+02 0.11151282416E+02
 0.69819722349E+01 0.43648660733E+01 0.27720181112E+01 0.18372391103E+01 0.12882865411E+01
 0.95876744622E+00 0.77639641647E+00 0.69605267285E+00 0.66229584064E+00 0.63901632513E+00
 0.62930849109E+00 0.63873848222E+00 0.64722095277E+00 0.63873848222E+00 0.62930849109E+00
 0.63901632513E+00 0.66229584064E+00 0.69605267285E+00 0.77639641647E+00 0.95876744622E+00
 0.12882865411E+01 0.18372391103E+01 0.27720181112E+01 0.43648660733E+01 0.69819722349E+01
 0.11151282416E+02 0.17711581434E+02 0.27950468774E+02 0.43664269784E+02 0.67014450218E+02
 0.99874553181E+02 0.14251743953E+03 0.19222695865E+03 0.24224799217E+03 0.28300401173E+03
 0.30858065514E+03 0.21254871939E+03 0.20558144686E+03 0.18595097866E+03 0.15741571707E+03
 0.12506729818E+03 0.93795586498E+02 0.67014450218E+02 0.46139611834E+02 0.30950135069E+02
 0.20390954104E+02 0.13259798073E+02 0.85412074352E+01 0.54782478735E+01 0.35392026015E+01
 0.23549791038E+01 0.16600554339E+01 0.12647334809E+01 0.10515023040E+01 0.95876744622E+00
 0.94596672317E+00 0.97407308131E+00 0.10143028070E+01 0.10550483158E+01 0.10888788319E+01
 0.11027350420E+01 0.10888788319E+01 0.10550483158E+01 0.10143028070E+01 0.97407308131E+00
 0.94596672317E+00 0.95876744622E+00 0.10515023040E+01 0.12647334809E+01 0.16600554339E+01
 0.23549791038E+01 0.35392026015E+01 0.54782478735E+01 0.85412074352E+01 0.13259798073E+02
 0.20390954104E+02 0.30950135069E+02 0.46139611834E+02 0.67014450218E+02 0.93795586498E+02
 0.12506729818E+03 0.15741571707E+03 0.18595097866E+03 0.20558144686E+03 0.12929628608E+03
 0.12514830862E+03 0.11356527125E+03 0.96837686249E+02 0.77930572117E+02 0.59586273160E+02
 0.43664269784E+02 0.30950135069E+02 0.21389124694E+02 0.14492891806E+02 0.96709995248E+01
 0.63946582762E+01 0.42380694889E+01 0.28717852301E+01 0.20468436810E+01 0.15804735602E+01
 0.13462233948E+01 0.12647334809E+01 0.12882865411E+01 0.13819548975E+01 0.15128504465E+01
 0.16508102263E+01 0.17712717624E+01 0.18541745073E+01 0.18839187204E+01 0.18541745073E+01
 0.17712717624E+01 0.16508102263E+01 0.15128504465E+01 0.13819548975E+01 0.12882865411E+01
 0.12647334809E+01 0.13462233948E+01 0.15804735602E+01 0.20468436810E+01 0.28717852301E+01
 0.42380694889E+01 0.63946582762E+01 0.96709995248E+01 0.14492891806E+02 0.21389124694E+02
 0.30950135069E+02 0.43664269784E+02 0.59586273160E+02 0.77930572117E+02 0.96837686249E+02
 0.11356527125E+03 0.12514830862E+03 0.75545393084E+02 0.73290502874E+02 0.66984372855E+02
 0.57838210986E+02 0.47404008994E+02 0.37111416371E+02 0.27950468774E+02 0.20390954104E+02
 0.14492891806E+02 0.10086696801E+02 0.69193353706E+01 0.47321218755E+01 0.32900954697E+01
 0.23928797572E+01 0.18808099528E+01 0.16365747661E+01 0.15804735602E+01 0.16600554339E+01
 0.18372391103E+01 0.20774378589E+01 0.23444823538E+01 0.26014436332E+01 0.28141060086E+01
 0.29543696823E+01 0.30033666931E+01 0.29543696823E+01 0.28141060086E+01 0.26014436332E+01
 0.23444823538E+01 0.20774378589E+01 0.18372391103E+01 0.16600554339E+01 0.15804735602E+01
 0.16365747661E+01 0.18808099528E+01 0.23928797572E+01 0.32900954697E+01 0.47321218755E+01
 0.69193353706E+01 0.10086696801E+02 0.14492891806E+02 0.20390954104E+02 0.27950468774E+02
 0.37111416371E+02 0.47404008994E+02 0.57838210986E+02 0.66984372855E+02 0.73290502874E+02
 0.43546107428E+02 0.42371286171E+02 0.39068924367E+02 0.34227283622E+02 0.28606957509E+02
 0.22925734206E+02 0.17711581434E+02 0.13259798073E+02 0.96709995248E+01 0.69193353706E+01
 0.49116062270E+01 0.35254723322E+01 0.26332394592E+01 0.21189846787E+01 0.18901137900E+01
 0.18808099528E+01 0.20468436810E+01 0.23549791038E+01 0.27720181112E+01 0.32576718037E+01
 0.37630336625E+01 0.42339343757E+01 0.46171415365E+01 0.48674812419E+01 0.49545158295E+01
 0.48674812419E+01 0.46171415365E+01 0.42339343757E+01 0.37630336625E+01 0.32576718037E+01
 0.27720181112E+01 0.23549791038E+01 0.20468436810E+01 0.18808099528E+01 0.18901137900E+01
 0.21189846787E+01 0.26332394592E+01 0.35254723322E+01 0.49116062270E+01 0.69193353706E+01
 0.96709995248E+01 0.13259798073E+02 0.17711581434E+02 0.22925734206E+02 0.28606957509E+02
 0.34227283622E+02 0.39068924367E+02 0.42371286171E+02 0.25284743828E+02 0.24670126332E+02
 0.22931313987E+02 0.20349055288E+02 0.17294222060E+02 0.14131668936E+02 0.11151282416E+02
 0.85412074352E+01 0.63946582762E+01 0.47321218755E+01 0.35254723322E+01 0.27195229438E+01
 0.22510112077E+01 0.20640298107E+01 0.21189846787E+01 0.23928797572E+01 0.28717852301E+01
 0.35392026015E+01 0.43648660733E+01 0.52973998720E+01 0.62625276687E+01 0.71674330881E+01
 0.79114163016E+01 0.84020236368E+01 0.85735188642E+01 0.84020236368E+01 0.79114163016E+01
 0.71674330881E+01 0.62625276687E+01 0.52973998720E+01 0.43648660733E+01 0.35392026015E+01
 0.28717852301E+01 0.23928797572E+01 0.21189846787E+01 0.20640298107E+01 0.22510112077E+01
 0.27195229438E+01 0.35254723322E+01 0.47321218755E+01 0.63946582762E+01 0.85412074352E+01
 0.11151282416E+02 0.14131668936E+02 0.17294222060E+02 0.20349055288E+02 0.22931313987E+02
 0.24670126332E+02 0.14798394544E+02 0.14470149192E+02 0.13536270201E+02 0.12134375699E+02
 0.10451213283E+02 0.86790843487E+01 0.69819722349E+01 0.54782478735E+01 0.42380694889E+01
 0.32900954697E+01 0.26332394592E+01 0.22510112077E+01 0.21260037023E+01 0.22510112077E+01
 0.26332394592E+01 0.32900954697E+01 0.42380694889E+01 0.54782478735E+01 0.69819722349E+01
 0.86790843487E+01 0.10451213283E+02 0.12134375699E+02 0.13536270201E+02 0.14470149192E+02
 0.14798394544E+02 0.14470149192E+02 0.13536270201E+02 0.12134375699E+02 0.10451213283E+02
 0.86790843487E+01 0.69819722349E+01 0.54782478735E+01 0.42380694889E+01 0.32900954697E+01
 0.26332394592E+01 0.22510112077E+01 0.21260037023E+01 0.22510112077E+01 0.26332394592E+01
 0.32900954697E+01 0.42380694889E+01 0.54782478735E+01 0.69819722349E+01 0.86790843487E+01
 0.10451213283E+02 0.12134375699E+02 0.13536270201E+02 0.14470149192E+02 0.85735188642E+01
 0.84020236368E+01 0.79114163016E+01 0.71674330881E+01 0.62625276687E+01 0.52973998720E+01
 0.43648660733E+01 0.35392026015E+01 0.28717852301E+01 0.23928797572E+01 0.21189846787E+01
 0.20640298107E+01 0.22510112077E+01 0.27195229438E+01 0.35254723322E+01 0.47321218755E+01
 0.63946582762E+01 0.85412074352E+01 0.11151282416E+02 0.14131668936E+02 0.17294222060E+02
 0.20349055288E+02 0.22931313987E+02 0.24670126332E+02 0.25284743828E+02 0.24670126332E+02
 0.22931313987E+02 0.20349055288E+02 0.17294222060E+02 0.14131668936E+02 0.11151282416E+02
 0.85412074352E+01 0.63946582762E+01 0.47321218755E+01 0.35254723322E+01 0.27195229438E+01
 0.22510112077E+01 0.20640298107E+01 0.21189846787E+01 0.23928797572E+01 0.28717852301E+01
 0.35392026015E+01 0.43648660733E+01 0.52973998720E+01 0.62625276687E+01 0.71674330881E+01
 0.79114163016E+01 0.84020236368E+01 0.49545158295E+01 0.48674812419E+01 0.46171415365E+01
 0.42339343757E+01 0.37630336625E+01 0.32576718037E+01 0.27720181112E+01 0.23549791038E+01
 0.20468436810E+01 0.18808099528E+01 0.18901137900E+01 0.21189846787E+01 0.26332394592E+01
 0.35254723322E+01 0.49116062270E+01 0.69193353706E+01 0.96709995248E+01 0.13259798073E+02
 0.17711581434E+02 0.22925734206E+02 0.28606957509E+02 0.34227283622E+02 0.39068924367E+02
 0.42371286171E+02 0.43546107428E+02 0.42371286171E+02 0.39068924367E+02 0.34227283622E+02
 0.28606957509E+02 0.22925734206E+02 0.17711581434E+02 0.13259798073E+02 0.96709995248E+01
 0.69193353706E+01 0.49116062270E+01 0.35254723322E+01 0.26332394592E+01 0.21189846787E+01
 0.18901137900E+01 0.18808099528E+01 0.20468436810E+01 0.23549791038E+01 0.27720181112E+01
 0.32576718037E+01 0.37630336625E+01 0.42339343757E+01 0.46171415365E+01 0.48674812419E+01
 0.30033666931E+01 0.29543696823E+01 0.28141060086E+01 0.26014436332E+01 0.23444823538E+01
 0.20774378589E+01 0.18372391103E+01 0.16600554339E+01 0.15804735602E+01 0.16365747661E+01
 0.18808099528E+01 0.23928797572E+01 0.32900954697E+01 0.47321218755E+01 0.69193353706E+01
 0.10086696801E+02 0.14492891806E+02 0.20390954104E+02 0.27950468774E+02 0.37111416371E+02
 0.47404008994E+02 0.57838210986E+02 0.66984372855E+02 0.73290502874E+02 0.75545393084E+02
 0.73290502874E+02 0.66984372855E+02 0.57838210986E+02 0.47404008994E+02 0.37111416371E+02
 0.27950468774E+02 0.20390954104E+02 0.14492891806E+02 0.10086696801E+02 0.69193353706E+01
 0.47321218755E+01 0.32900954697E+01 0.23928797572E+01 0.18808099528E+01 0.16365747661E+01
 0.15804735602E+01 0.16600554339E+01 0.18372391103E+01 0.20774378589E+01 0.23444823538E+01
 0.26014436332E+01 0.28141060086E+01 0.29543696823E+01 0.18839187204E+01 0.18541745073E+01
 0.17712717624E+01 0.16508102263E+01 0.15128504465E+01 0.13819548975E+01 0.12882865411E+01
 0.12647334809E+01 0.13462233948E+01 0.15804735602E+01 0.20468436810E+01 0.28717852301E+01
 0.42380694889E+01 0.63946582762E+01 0.96709995248E+01 0.14492891806E+02 0.21389124694E+02
 0.30950135069E+02 0.43664269784E+02 0.59586273160E+02 0.77930572117E+02 0.96837686249E+02
 0.11356527125E+03 0.12514830862E+03 0.12929628608E+03 0.12514830862E+03 0.11356527125E+03
 0.96837686249E+02 0.77930572117E+02 0.59586273160E+02 0.43664269784E+02 0.30950135069E+02
 0.21389124694E+02 0.14492891806E+02 0.96709995248E+01 0.63946582762E+01 0.42380694889E+01
 0.28717852301E+01 0.20468436810E+01 0.15804735602E+01 0.13462233948E+01 0.12647334809E+01
 0.12882865411E+01 0.13819548975E+01 0.15128504465E+01 0.16508102263E+01 0.17712717624E+01
 0.18541745073E+01 0.11027350420E+01 0.10888788319E+01 0.10550483158E+01 0.10143028070E+01
 0.97407308131E+00 0.94596672317E+00 0.95876744622E+00 0.10515023040E+01 0.12647334809E+01
 0.16600554339E+01 0.23549791038E+01 0.35392026015E+01 0.54782478735E+01 0.85412074352E+01
 0.13259798073E+02 0.20390954104E+02 0.30950135069E+02 0.46139611834E+02 0.67014450218E+02
 0.93795586498E+02 0.12506729818E+03 0.15741571707E+03 0.18595097866E+03 0.20558144686E+03
 0.21254871939E+03 0.20558144686E+03 0.18595097866E+03 0.15741571707E+03 0.12506729818E+03
 0.93795586498E+02 0.67014450218E+02 0.46139611834E+02 0.30950135069E+02 0.20390954104E+02
 0.13259798073E+02 0.85412074352E+01 0.54782478735E+01 0.35392026015E+01 0.23549791038E+01
 0.16600554339E+01 0.12647334809E+01 0.10515023040E+01 0.95876744622E+00 0.94596672317E+00
 0.97407308131E+00 0.10143028070E+01 0.10550483158E+01 0.10888788319E+01 0.64722095277E+00
 0.63873848222E+00 0.62930849109E+00 0.63901632513E+00 0.66229584064E+00 0.69605267285E+00
 0.77639641647E+00 0.95876744622E+00 0.12882865411E+01 0.18372391103E+01 0.27720181112E+01
 0.43648660733E+01 0.69819722349E+01 0.11151282416E+02 0.17711581434E+02 0.27950468774E+02
 0.43664269784E+02 0.67014450218E+02 0.99874553181E+02 0.14251743953E+03 0.19222695865E+03
 0.24224799217E+03 0.28300401173E+03 0.30858065514E+03 0.31715857437E+03 0.30858065514E+03
 0.28300401173E+03 0.24224799217E+03 0.19222695865E+03 0.14251743953E+03 0.99874553181E+02
 0.67014450218E+02 0.43664269784E+02 0.27950468774E+02 0.17711581434E+02 0.11151282416E+02
 0.69819722349E+01 0.43648660733E+01 0.27720181112E+01 0.18372391103E+01 0.12882865411E+01
 0.95876744622E+00 0.77639641647E+00 0.69605267285E+00 0.66229584064E+00 0.63901632513E+00
 0.62930849109E+00 0.63873848222E+00 0.52636006876E+00 0.50681973451E+00 0.48373843454E+00
 0.50104706988E+00 0.54252235762E+00 0.58921444985E+00 0.69605267285E+00 0.94596672317E+00
 0.13819548975E+01 0.20774378589E+01 0.32576718037E+01 0.52973998720E+01 0.86790843487E+01
 0.14131668936E+02 0.22925734206E+02 0.37111416371E+02 0.59586273160E+02 0.93795586498E+02
 0.14251743953E+03 0.20553457439E+03 0.27469129671E+03 0.33427008446E+03 0.37435453069E+03
 0.39470348794E+03 0.40049459688E+03 0.39470348794E+03 0.37435453069E+03 0.33427008446E+03
 0.27469129671E+03 0.20553457439E+03 0.14251743953E+03 0.93795586498E+02 0.59586273160E+02
 0.37111416371E+02 0.22925734206E+02 0.14131668936E+02 0.86790843487E+01 0.52973998720E+01
 0.32576718037E+01 0.20774378589E+01 0.13819548975E+01 0.94596672317E+00 0.69605267285E+00
 0.58921444985E+00 0.54252235762E+00 0.50104706988E+00 0.48373843454E+00 0.50681973451E+00
 0.48475555563E+00 0.44925690301E+00 0.40640880904E+00 0.43290770188E+00 0.49325179835E+00
 0.54252235762E+00 0.66229584064E+00 0.97407308131E+00 0.15128504465E+01 0.23444823538E+01
 0.37630336625E+01 0.62625276687E+01 0.10451213283E+02 0.17294222060E+02 0.28606957509E+02
 0.47404008994E+02 0.77930572117E+02 0.12506729818E+03 0.19222695865E+03 0.27469129671E+03
 0.35099361427E+03 0.40057193429E+03 0.41806440239E+03 0.41560385761E+03 0.41184563675E+03
 0.41560385761E+03 0.41806440239E+03 0.40057193429E+03 0.35099361427E+03 0.27469129671E+03
 0.19222695865E+03 0.12506729818E+03 0.77930572117E+02 0.47404008994E+02 0.28606957509E+02
 0.17294222060E+02 0.10451213283E+02 0.62625276687E+01 0.37630336625E+01 0.23444823538E+01
 0.15128504465E+01 0.97407308131E+00 0.66229584064E+00 0.54252235762E+00 0.49325179835E+00
 0.43290770188E+00 0.40640880904E+00 0.44925690301E+00 0.34761748293E+00 0.30116232447E+00
 0.25685819153E+00 0.32361807801E+00 0.43290770188E+00 0.50104706988E+00 0.63901632513E+00
 0.10143028070E+01 0.16508102263E+01 0.26014436332E+01 0.42339343757E+01 0.71674330881E+01
 0.12134375699E+02 0.20349055288E+02 0.34227283622E+02 0.57838210986E+02 0.96837686249E+02
 0.15741571707E+03 0.24224799217E+03 0.33427008446E+03 0.40057193429E+03 0.41777342576E+03
 0.38912695067E+03 0.34553279211E+03 0.32526419965E+03 0.34553279211E+03 0.38912695067E+03
 0.41777342576E+03 0.40057193429E+03 0.33427008446E+03 0.24224799217E+03 0.15741571707E+03
 0.96837686249E+02 0.57838210986E+02 0.34227283622E+02 0.20349055288E+02 0.12134375699E+02
 0.71674330881E+01 0.42339343757E+01 0.26014436332E+01 0.16508102263E+01 0.10143028070E+01
 0.63901632513E+00 0.50104706988E+00 0.43290770188E+00 0.32361807801E+00 0.25685819153E+00
 0.30116232447E+00 0.26485777541E+00 0.20618130079E+00 0.15648399008E+00 0.25685819153E+00
 0.40640880904E+00 0.48373843454E+00 0.62930849109E+00 0.10550483158E+01 0.17712717624E+01
 0.28141060086E+01 0.46171415365E+01 0.79114163016E+01 0.13536270201E+02 0.22931313987E+02
 0.39068924367E+02 0.66984372855E+02 0.11356527125E+03 0.18595097866E+03 0.28300401173E+03
 0.37435453069E+03 0.41806440239E+03 0.38912695067E+03 0.30142913952E+03 0.20731006226E+03
 0.16707279423E+03 0.20731006226E+03 0.30142913952E+03 0.38912695067E+03 0.41806440239E+03
 0.37435453069E+03 0.28300401173E+03 0.18595097866E+03 0.11356527125E+03 0.66984372855E+02
 0.39068924367E+02 0.22931313987E+02 0.13536270201E+02 0.79114163016E+01 0.46171415365E+01
 0.28141060086E+01 0.17712717624E+01 0.10550483158E+01 0.62930849109E+00 0.48373843454E+00
 0.40640880904E+00 0.25685819153E+00 0.15648399008E+00 0.20618130079E+00 0.35805702532E+00
 0.28211865152E+00 0.20618130079E+00 0.30116232447E+00 0.44925690301E+00 0.50681973451E+00
 0.63873848222E+00 0.10888788319E+01 0.18541745073E+01 0.29543696823E+01 0.48674812419E+01
 0.84020236368E+01 0.14470149192E+02 0.24670126332E+02 0.42371286171E+02 0.73290502874E+02
 0.12514830862E+03 0.20558144686E+03 0.30858065514E+03 0.39470348794E+03 0.41560385761E+03
 0.34553279211E+03 0.20731006226E+03 0.70703962531E+02 0.13788082892E+02 0.70703962531E+02
 0.20731006226E+03 0.34553279211E+03 0.41560385761E+03 0.39470348794E+03 0.30858065514E+03
 0.20558144686E+03 0.12514830862E+03 0.73290502874E+02 0.42371286171E+02 0.24670126332E+02
 0.14470149192E+02 0.84020236368E+01 0.48674812419E+01 0.29543696823E+01 0.18541745073E+01
 0.10888788319E+01 0.63873848222E+00 0.50681973451E+00 0.44925690301E+00 0.30116232447E+00
 0.20618130079E+00 0.28211865152E+00 0.44317363864E+00 0.35805702532E+00 0.26485777541E+00
 0.34761748293E+00 0.48475555563E+00 0.52636006876E+00 0.64722095277E+00 0.11027350420E+01
 0.18839187204E+01 0.30033666931E+01 0.49545158295E+01 0.85735188642E+01 0.14798394544E+02
 0.25284743828E+02 0.43546107428E+02 0.75545393084E+02 0.12929628608E+03 0.21254871939E+03
 0.31715857437E+03 0.40049459688E+03 0.41184563675E+03 0.32526419965E+03 0.16707279423E+03
 0.13788082892E+02 -.49657539650E+02 0.13788082892E+02 0.16707279423E+03 0.32526419965E+03
 0.41184563675E+03 0.40049459688E+03 0.31715857437E+03 0.21254871939E+03 0.12929628608E+03
 0.75545393084E+02 0.43546107428E+02 0.25284743828E+02 0.14798394544E+02 0.85735188642E+01
 0.49545158295E+01 0.30033666931E+01 0.18839187204E+01 0.11027350420E+01 0.64722095277E+00
 0.52636006876E+00 0.48475555563E+00 0.34761748293E+00 0.26485777541E+00 0.35805702532E+00
 0.35805702532E+00 0.28211865152E+00 0.20618130079E+00 0.30116232447E+00 0.44925690301E+00
 0.50681973451E+00 0.63873848222E+00 0.10888788319E+01 0.18541745073E+01 0.29543696823E+01
 0.48674812419E+01 0.84020236368E+01 0.14470149192E+02 0.24670126332E+02 0.42371286171E+02
 0.73290502874E+02 0.12514830862E+03 0.20558144686E+03 0.30858065514E+03 0.39470348794E+03
 0.41560385761E+03 0.34553279211E+03 0.20731006226E+03 0.70703962531E+02 0.13788082892E+02
 0.70703962531E+02 0.20731006226E+03 0.34553279211E+03 0.41560385761E+03 0.39470348794E+03
 0.30858065514E+03 0.20558144686E+03 0.12514830862E+03 0.73290502874E+02 0.42371286171E+02
 0.24670126332E+02 0.14470149192E+02 0.84020236368E+01 0.48674812419E+01 0.29543696823E+01
 0.18541745073E+01 0.10888788319E+01 0.63873848222E+00 0.50681973451E+00 0.44925690301E+00
 0.30116232447E+00 0.20618130079E+00 0.28211865152E+00 0.26485777541E+00 0.20618130079E+00
 0.15648399008E+00 0.25685819153E+00 0.40640880904E+00 0.48373843454E+00 0.62930849109E+00
 0.10550483158E+01 0.17712717624E+01 0.28141060086E+01 0.46171415365E+01 0.79114163016E+01
 0.13536270201E+02 0.22931313987E+02 0.39068924367E+02 0.66984372855E+02 0.11356527125E+03
 0.18595097866E+03 0.28300401173E+03 0.37435453069E+03 0.41806440239E+03 0.38912695067E+03
 0.30142913952E+03 0.20731006226E+03 0.16707279423E+03 0.20731006226E+03 0.30142913952E+03
 0.38912695067E+03 0.41806440239E+03 0.37435453069E+03 0.28300401173E+03 0.18595097866E+03
 0.11356527125E+03 0.66984372855E+02 0.39068924367E+02 0.22931313987E+02 0.13536270201E+02
 0.79114163016E+01 0.46171415365E+01 0.28141060086E+01 0.17712717624E+01 0.10550483158E+01
 0.62930849109E+00 0.48373843454E+00 0.40640880904E+00 0.25685819153E+00 0.15648399008E+00
 0.20618130079E+00 0.34761748293E+00 0.30116232447E+00 0.25685819153E+00 0.32361807801E+00
 0.43290770188E+00 0.50104706988E+00 0.63901632513E+00 0.10143028070E+01 0.16508102263E+01
 0.26014436332E+01 0.42339343757E+01 0.71674330881E+01 0.12134375699E+02 0.20349055288E+02
 0.34227283622E+02 0.57838210986E+02 0.96837686249E+02 0.15741571707E+03 0.24224799217E+03
 0.33427008446E+03 0.40057193429E+03 0.41777342576E+03 0.38912695067E+03 0.34553279211E+03
 0.32526419965E+03 0.34553279211E+03 0.38912695067E+03 0.41777342576E+03 0.40057193429E+03
 0.33427008446E+03 0.24224799217E+03 0.15741571707E+03 0.96837686249E+02 0.57838210986E+02
 0.34227283622E+02 0.20349055288E+02 0.12134375699E+02 0.71674330881E+01 0.42339343757E+01
 0.26014436332E+01 0.16508102263E+01 0.10143028070E+01 0.63901632513E+00 0.50104706988E+00
 0.43290770188E+00 0.32361807801E+00 0.25685819153E+00 0.30116232447E+00 0.48475555563E+00
 0.44925690301E+00 0.40640880904E+00 0.43290770188E+00 0.49325179835E+00 0.54252235762E+00
 0.66229584064E+00 0.97407308131E+00 0.15128504465E+01 0.23444823538E+01 0.37630336625E+01
 0.62625276687E+01 0.10451213283E+02 0.17294222060E+02 0.28606957509E+02 0.47404008994E+02
 0.77930572117E+02 0.12506729818E+03 0.19222695865E+03 0.27469129671E+03 0.35099361427E+03
 0.40057193429E+03 0.41806440239E+03 0.41560385761E+03 0.41184563675E+03 0.41560385761E+03
 0.41806440239E+03 0.40057193429E+03 0.35099361427E+03 0.27469129671E+03 0.19222695865E+03
 0.12506729818E+03 0.77930572117E+02 0.47404008994E+02 0.28606957509E+02 0.17294222060E+02
 0.10451213283E+02 0.62625276687E+01 0.37630336625E+01 0.23444823538E+01 0.15128504465E+01
 0.97407308131E+00 0.66229584064E+00 0.54252235762E+00 0.49325179835E+00 0.43290770188E+00
 0.40640880904E+00 0.44925690301E+00 0.52636006876E+00 0.50681973451E+00 0.48373843454E+00
 0.50104706988E+00 0.54252235762E+00 0.58921444985E+00 0.69605267285E+00 0.94596672317E+00
 0.13819548975E+01 0.20774378589E+01 0.32576718037E+01 0.52973998720E+01 0.86790843487E+01
 0.14131668936E+02 0.22925734206E+02 0.37111416371E+02 0.59586273160E+02 0.93795586498E+02
 0.14251743953E+03 0.20553457439E+03 0.27469129671E+03 0.33427008446E+03 0.37435453069E+03
 0.39470348794E+03 0.40049459688E+03 0.39470348794E+03 0.37435453069E+03 0.33427008446E+03
 0.27469129671E+03 0.20553457439E+03 0.14251743953E+03 0.93795586498E+02 0.59586273160E+02
 0.37111416371E+02 0.22925734206E+02 0.14131668936E+02 0.86790843487E+01 0.52973998720E+01
 0.32576718037E+01 0.20774378589E+01 0.13819548975E+01 0.94596672317E+00 0.69605267285E+00
 0.58921444985E+00 0.54252235762E+00 0.50104706988E+00 0.48373843454E+00 0.50681973451E+00
 0.64722095277E+00 0.63873848222E+00 0.62930849109E+00 0.63901632513E+00 0.66229584064E+00
 0.69605267285E+00 0.77639641647E+00 0.95876744622E+00 0.12882865411E+01 0.18372391103E+01
 0.27720181112E+01 0.43648660733E+01 0.69819722349E+01 0.11151282416E+02 0.17711581434E+02
 0.27950468774E+02 0.43664269784E+02 0.67014450218E+02 0.99874553181E+02 0.14251743953E+03
 0.19222695865E+03 0.24224799217E+03 0.28300401173E+03 0.30858065514E+03 0.31715857437E+03
 0.30858065514E+03 0.28300401173E+03 0.24224799217E+03 0.19222695865E+03 0.14251743953E+03
 0.99874553181E+02 0.67014450218E+02 0.43664269784E+02 0.27950468774E+02 0.17711581434E+02
 0.11151282416E+02 0.69819722349E+01 0.43648660733E+01 0.27720181112E+01 0.18372391103E+01
 0.12882865411E+01 0.95876744622E+00 0.77639641647E+00 0.69605267285E+00 0.66229584064E+00
 0.63901632513E+00 0.62930849109E+00 0.63873848222E+00 0.11027350420E+01 0.10888788319E+01
 0.10550483158E+01 0.10143028070E+01 0.97407308131E+00 0.94596672317E+00 0.95876744622E+00
 0.10515023040E+01 0.12647334809E+01 0.16600554339E+01 0.23549791038E+01 0.35392026015E+01
 0.54782478735E+01 0.85412074352E+01 0.13259798073E+02 0.20390954104E+02 0.30950135069E+02
 0.46139611834E+02 0.67014450218E+02 0.93795586498E+02 0.12506729818E+03 0.15741571707E+03
 0.18595097866E+03 0.20558144686E+03 0.21254871939E+03 0.20558144686E+03 0.18595097866E+03
 0.15741571707E+03 0.12506729818E+03 0.93795586498E+02 0.67014450218E+02 0.46139611834E+02
 0.30950135069E+02 0.20390954104E+02 0.13259798073E+02 0.85412074352E+01 0.54782478735E+01
 0.35392026015E+01 0.23549791038E+01 0.16600554339E+01 0.12647334809E+01 0.10515023040E+01
 0.95876744622E+00 0.94596672317E+00 0.97407308131E+00 0.10143028070E+01 0.10550483158E+01
 0.10888788319E+01 0.18839187204E+01 0.18541745073E+01 0.17712717624E+01 0.16508102263E+01
 0.15128504465E+01 0.13819548975E+01 0.12882865411E+01 0.12647334809E+01 0.13462233948E+01
 0.15804735602E+01 0.20468436810E+01 0.28717852301E+01 0.42380694889E+01 0.63946582762E+01
 0.96709995248E+01 0.14492891806E+02 0.21389124694E+02 0.30950135069E+02 0.43664269784E+02
 0.59586273160E+02 0.77930572117E+02 0.96837686249E+02 0.11356527125E+03 0.12514830862E+03
 0.12929628608E+03 0.12514830862E+03 0.11356527125E+03 0.96837686249E+02 0.77930572117E+02
 0.59586273160E+02 0.43664269784E+02 0.30950135069E+02 0.21389124694E+02 0.14492891806E+02
 0.96709995248E+01 0.63946582762E+01 0.42380694889E+01 0.28717852301E+01 0.20468436810E+01
 0.15804735602E+01 0.13462233948E+01 0.12647334809E+01 0.12882865411E+01 0.13819548975E+01
 0.15128504465E+01 0.16508102263E+01 0.17712717624E+01 0.18541745073E+01 0.30033666931E+01
 0.29543696823E+01 0.28141060086E+01 0.26014436332E+01 0.23444823538E+01 0.20774378589E+01
 0.18372391103E+01 0.16600554339E+01 0.15804735602E+01 0.16365747661E+01 0.18808099528E+01
 0.23928797572E+01 0.32900954697E+01 0.47321218755E+01 0.69193353706E+01 0.10086696801E+02
 0.14492891806E+02 0.20390954104E+02 0.27950468774E+02 0.37111416371E+02 0.47404008994E+02
 0.57838210986E+02 0.66984372855E+02 0.73290502874E+02 0.75545393084E+02 0.73290502874E+02
 0.66984372855E+02 0.57838210986E+02 0.47404008994E+02 0.37111416371E+02 0.27950468774E+02
 0.20390954104E+02 0.14492891806E+02 0.10086696801E+02 0.69193353706E+01 0.47321218755E+01
 0.32900954697E+01 0.23928797572E+01 0.18808099528E+01 0.16365747661E+01 0.15804735602E+01