   4   4   0   0
  0.6644022E+02  0.6429300E-09  0.6429300E-09  0.6429300E-09  0.5000000E-15
  1.000000000000000E-004
  CAR 
 Kr                                      
     14.47286407    -22.07661448  301     -6.10144656      1.00000000
    -22.077  0.0000E+00  0.0000E+00
    -21.955  0.0000E+00  0.0000E+00
    -21.833  0.0000E+00  0.0000E+00
    -21.711  0.0000E+00  0.0000E+00
    -21.589  0.0000E+00  0.0000E+00
    -21.467  0.0000E+00  0.0000E+00
    -21.346  0.0000E+00  0.0000E+00
    -21.224  0.0000E+00  0.0000E+00
    -21.102  0.0000E+00  0.0000E+00
    -20.980  0.0000E+00  0.0000E+00
    -20.858  0.0000E+00  0.0000E+00
    -20.736  0.0000E+00  0.0000E+00
    -20.615  0.7837E-08  0.9548E-09
    -20.493  0.4942E-01  0.6021E-02
    -20.371  0.3222E+02  0.3932E+01
    -20.249  0.3336E+02  0.7996E+01
    -20.127  0.3355E-01  0.8000E+01
    -20.005  0.8769E-09  0.8000E+01
    -19.884  0.0000E+00  0.8000E+01
    -19.762  0.0000E+00  0.8000E+01
    -19.640  0.0000E+00  0.8000E+01
    -19.518  0.0000E+00  0.8000E+01
    -19.396  0.0000E+00  0.8000E+01
    -19.274  0.0000E+00  0.8000E+01
    -19.153  0.0000E+00  0.8000E+01
    -19.031  0.0000E+00  0.8000E+01
    -18.909  0.0000E+00  0.8000E+01
    -18.787  0.0000E+00  0.8000E+01
    -18.665  0.0000E+00  0.8000E+01
    -18.543  0.0000E+00  0.8000E+01
    -18.422  0.0000E+00  0.8000E+01
    -18.300  0.0000E+00  0.8000E+01
    -18.178  0.0000E+00  0.8000E+01
    -18.056  0.0000E+00  0.8000E+01
    -17.934  0.0000E+00  0.8000E+01
    -17.813  0.0000E+00  0.8000E+01
    -17.691  0.0000E+00  0.8000E+01
    -17.569  0.0000E+00  0.8000E+01
    -17.447  0.0000E+00  0.8000E+01
    -17.325  0.0000E+00  0.8000E+01
    -17.203  0.0000E+00  0.8000E+01
    -17.082  0.0000E+00  0.8000E+01
    -16.960  0.0000E+00  0.8000E+01
    -16.838  0.0000E+00  0.8000E+01
    -16.716  0.0000E+00  0.8000E+01
    -16.594  0.0000E+00  0.8000E+01
    -16.472  0.0000E+00  0.8000E+01
    -16.351  0.0000E+00  0.8000E+01
    -16.229  0.0000E+00  0.8000E+01
    -16.107  0.0000E+00  0.8000E+01
    -15.985  0.0000E+00  0.8000E+01
    -15.863  0.0000E+00  0.8000E+01
    -15.741  0.0000E+00  0.8000E+01
    -15.620  0.0000E+00  0.8000E+01
    -15.498  0.0000E+00  0.8000E+01
    -15.376  0.0000E+00  0.8000E+01
    -15.254  0.0000E+00  0.8000E+01
    -15.132  0.0000E+00  0.8000E+01
    -15.010  0.0000E+00  0.8000E+01
    -14.889  0.0000E+00  0.8000E+01
    -14.767  0.0000E+00  0.8000E+01
    -14.645  0.0000E+00  0.8000E+01
    -14.523  0.0000E+00  0.8000E+01
    -14.401  0.0000E+00  0.8000E+01
    -14.279  0.0000E+00  0.8000E+01
    -14.158  0.0000E+00  0.8000E+01
    -14.036  0.0000E+00  0.8000E+01
    -13.914  0.0000E+00  0.8000E+01
    -13.792  0.0000E+00  0.8000E+01
    -13.670  0.0000E+00  0.8000E+01
    -13.548  0.0000E+00  0.8000E+01
    -13.427  0.0000E+00  0.8000E+01
    -13.305  0.0000E+00  0.8000E+01
    -13.183  0.0000E+00  0.8000E+01
    -13.061  0.0000E+00  0.8000E+01
    -12.939  0.0000E+00  0.8000E+01
    -12.817  0.0000E+00  0.8000E+01
    -12.696  0.0000E+00  0.8000E+01
    -12.574  0.0000E+00  0.8000E+01
    -12.452  0.0000E+00  0.8000E+01
    -12.330  0.0000E+00  0.8000E+01
    -12.208  0.0000E+00  0.8000E+01
    -12.086  0.0000E+00  0.8000E+01
    -11.965  0.0000E+00  0.8000E+01
    -11.843  0.0000E+00  0.8000E+01
    -11.721  0.0000E+00  0.8000E+01
    -11.599  0.0000E+00  0.8000E+01
    -11.477  0.0000E+00  0.8000E+01
    -11.355  0.0000E+00  0.8000E+01
    -11.234  0.0000E+00  0.8000E+01
    -11.112  0.0000E+00  0.8000E+01
    -10.990  0.0000E+00  0.8000E+01
    -10.868  0.0000E+00  0.8000E+01
    -10.746  0.0000E+00  0.8000E+01
    -10.624  0.0000E+00  0.8000E+01
    -10.503  0.0000E+00  0.8000E+01
    -10.381  0.0000E+00  0.8000E+01
    -10.259  0.0000E+00  0.8000E+01
    -10.137  0.0000E+00  0.8000E+01
    -10.015  0.0000E+00  0.8000E+01
     -9.893  0.0000E+00  0.8000E+01
     -9.772  0.0000E+00  0.8000E+01
     -9.650  0.0000E+00  0.8000E+01
     -9.528  0.0000E+00  0.8000E+01
     -9.406  0.0000E+00  0.8000E+01
     -9.284  0.0000E+00  0.8000E+01
     -9.162  0.0000E+00  0.8000E+01
     -9.041  0.0000E+00  0.8000E+01
     -8.919  0.0000E+00  0.8000E+01
     -8.797  0.0000E+00  0.8000E+01
     -8.675  0.0000E+00  0.8000E+01
     -8.553  0.0000E+00  0.8000E+01
     -8.431  0.0000E+00  0.8000E+01
     -8.310  0.0000E+00  0.8000E+01
     -8.188  0.0000E+00  0.8000E+01
     -8.066  0.0000E+00  0.8000E+01
     -7.944  0.0000E+00  0.8000E+01
     -7.822  0.0000E+00  0.8000E+01
     -7.700  0.0000E+00  0.8000E+01
     -7.579  0.0000E+00  0.8000E+01
     -7.457  0.0000E+00  0.8000E+01
     -7.335  0.0000E+00  0.8000E+01
     -7.213  0.2531E-16  0.8000E+01
     -7.091  0.3853E-06  0.8000E+01
     -6.969  0.9929E-01  0.8012E+01
     -6.848  0.1112E+02  0.9366E+01
     -6.726  0.3894E+02  0.1411E+02
     -6.604  0.2362E+02  0.1699E+02
     -6.482  0.4512E+02  0.2249E+02
     -6.360  0.6464E+02  0.3036E+02
     -6.239  0.1343E+02  0.3200E+02
     -6.117  0.2464E-01  0.3200E+02
     -5.995  0.4623E-08  0.3200E+02
     -5.873  0.0000E+00  0.3200E+02
     -5.751  0.0000E+00  0.3200E+02
     -5.629  0.0000E+00  0.3200E+02
     -5.508  0.0000E+00  0.3200E+02
     -5.386  0.0000E+00  0.3200E+02
     -5.264  0.0000E+00  0.3200E+02
     -5.142  0.0000E+00  0.3200E+02
     -5.020  0.0000E+00  0.3200E+02
     -4.898  0.0000E+00  0.3200E+02
     -4.777  0.0000E+00  0.3200E+02
     -4.655  0.0000E+00  0.3200E+02
     -4.533  0.0000E+00  0.3200E+02
     -4.411  0.0000E+00  0.3200E+02
     -4.289  0.0000E+00  0.3200E+02
     -4.167  0.0000E+00  0.3200E+02
     -4.046  0.0000E+00  0.3200E+02
     -3.924  0.0000E+00  0.3200E+02
     -3.802  0.0000E+00  0.3200E+02
     -3.680  0.0000E+00  0.3200E+02
     -3.558  0.0000E+00  0.3200E+02
     -3.436  0.0000E+00  0.3200E+02
     -3.315  0.0000E+00  0.3200E+02
     -3.193  0.0000E+00  0.3200E+02
     -3.071  0.0000E+00  0.3200E+02
     -2.949  0.0000E+00  0.3200E+02
     -2.827  0.0000E+00  0.3200E+02
     -2.705  0.0000E+00  0.3200E+02
     -2.584  0.0000E+00  0.3200E+02
     -2.462  0.0000E+00  0.3200E+02
     -2.340  0.0000E+00  0.3200E+02
     -2.218  0.0000E+00  0.3200E+02
     -2.096  0.0000E+00  0.3200E+02
     -1.974  0.0000E+00  0.3200E+02
     -1.853  0.0000E+00  0.3200E+02
     -1.731  0.0000E+00  0.3200E+02
     -1.609  0.0000E+00  0.3200E+02
     -1.487  0.0000E+00  0.3200E+02
     -1.365  0.0000E+00  0.3200E+02
     -1.243  0.0000E+00  0.3200E+02
     -1.122  0.0000E+00  0.3200E+02
     -1.000  0.0000E+00  0.3200E+02
     -0.878  0.0000E+00  0.3200E+02
     -0.756  0.0000E+00  0.3200E+02
     -0.634  0.0000E+00  0.3200E+02
     -0.512  0.0000E+00  0.3200E+02
     -0.391  0.0000E+00  0.3200E+02
     -0.269  0.0000E+00  0.3200E+02
     -0.147  0.0000E+00  0.3200E+02
     -0.025  0.0000E+00  0.3200E+02
      0.097  0.0000E+00  0.3200E+02
      0.219  0.0000E+00  0.3200E+02
      0.340  0.0000E+00  0.3200E+02
      0.462  0.0000E+00  0.3200E+02
      0.584  0.3080E-15  0.3200E+02
      0.706  0.2450E-06  0.3200E+02
      0.828  0.4619E-02  0.3200E+02
      0.950  0.1511E+00  0.3202E+02
      1.071  0.3347E+00  0.3206E+02
      1.193  0.4074E+00  0.3211E+02
      1.315  0.6499E+00  0.3219E+02
      1.437  0.6956E+00  0.3227E+02
      1.559  0.7142E+00  0.3236E+02
      1.681  0.1016E+01  0.3248E+02
      1.802  0.7363E+00  0.3257E+02
      1.924  0.1337E+01  0.3274E+02
      2.046  0.1112E+01  0.3287E+02
      2.168  0.1414E+01  0.3304E+02
      2.290  0.1391E+01  0.3321E+02
      2.412  0.1799E+01  0.3343E+02
      2.533  0.1655E+01  0.3363E+02
      2.655  0.1871E+01  0.3386E+02
      2.777  0.2389E+01  0.3415E+02
      2.899  0.2096E+01  0.3441E+02
      3.021  0.3151E+01  0.3479E+02
      3.143  0.2707E+01  0.3512E+02
      3.264  0.4223E+01  0.3564E+02
      3.386  0.4155E+01  0.3614E+02
      3.508  0.4908E+01  0.3674E+02
      3.630  0.5035E+01  0.3735E+02
      3.752  0.4002E+01  0.3784E+02
      3.874  0.4661E+01  0.3841E+02
      3.995  0.3637E+01  0.3885E+02
      4.117  0.4093E+01  0.3935E+02
      4.239  0.3793E+01  0.3981E+02
      4.361  0.1961E+01  0.4005E+02
      4.483  0.2970E+01  0.4041E+02
      4.605  0.5542E+01  0.4109E+02
      4.726  0.9459E+01  0.4224E+02
      4.848  0.1119E+02  0.4361E+02
      4.970  0.8942E+01  0.4469E+02
      5.092  0.6745E+01  0.4552E+02
      5.214  0.6110E+01  0.4626E+02
      5.335  0.8591E+01  0.4731E+02
      5.457  0.1162E+02  0.4872E+02
      5.579  0.1187E+02  0.5017E+02
      5.701  0.1017E+02  0.5141E+02
      5.823  0.5766E+01  0.5211E+02
      5.945  0.5454E+01  0.5278E+02
      6.066  0.4141E+01  0.5328E+02
      6.188  0.3386E+01  0.5369E+02
      6.310  0.4149E+01  0.5420E+02
      6.432  0.2564E+01  0.5451E+02
      6.554  0.3142E+01  0.5489E+02
      6.676  0.4082E+01  0.5539E+02
      6.797  0.4206E+01  0.5590E+02
      6.919  0.6609E+01  0.5671E+02
      7.041  0.9816E+01  0.5790E+02
      7.163  0.1160E+02  0.5932E+02
      7.285  0.1203E+02  0.6078E+02
      7.407  0.8216E+01  0.6178E+02
      7.528  0.5819E+01  0.6249E+02
      7.650  0.5294E+01  0.6314E+02
      7.772  0.4157E+01  0.6364E+02
      7.894  0.4032E+01  0.6414E+02
      8.016  0.4197E+01  0.6465E+02
      8.138  0.4287E+01  0.6517E+02
      8.259  0.5306E+01  0.6582E+02
      8.381  0.5164E+01  0.6645E+02
      8.503  0.6019E+01  0.6718E+02
      8.625  0.6752E+01  0.6800E+02
      8.747  0.8205E+01  0.6900E+02
      8.869  0.8758E+01  0.7007E+02
      8.990  0.6659E+01  0.7088E+02
      9.112  0.6701E+01  0.7170E+02
      9.234  0.3932E+01  0.7217E+02
      9.356  0.5251E+01  0.7281E+02
      9.478  0.4468E+01  0.7336E+02
      9.600  0.6002E+01  0.7409E+02
      9.721  0.5703E+01  0.7478E+02
      9.843  0.6004E+01  0.7552E+02
      9.965  0.7470E+01  0.7643E+02
     10.087  0.9470E+01  0.7758E+02
     10.209  0.8896E+01  0.7866E+02
     10.331  0.1059E+02  0.7995E+02
     10.452  0.1053E+02  0.8124E+02
     10.574  0.1358E+02  0.8289E+02
     10.696  0.1296E+02  0.8447E+02
     10.818  0.1076E+02  0.8578E+02
     10.940  0.7437E+01  0.8669E+02
     11.062  0.9145E+01  0.8780E+02
     11.183  0.4957E+01  0.8841E+02
     11.305  0.6745E+01  0.8923E+02
     11.427  0.8514E+01  0.9026E+02
     11.549  0.4291E+01  0.9079E+02
     11.671  0.4336E+01  0.9132E+02
     11.793  0.7517E+01  0.9223E+02
     11.914  0.5908E+01  0.9295E+02
     12.036  0.5428E+01  0.9361E+02
     12.158  0.5193E+01  0.9425E+02
     12.280  0.6791E+01  0.9507E+02
     12.402  0.4104E+01  0.9557E+02
     12.524  0.1621E+01  0.9577E+02
     12.645  0.1194E+01  0.9592E+02
     12.767  0.4865E+00  0.9597E+02
     12.889  0.2023E+00  0.9600E+02
     13.011  0.3220E-02  0.9600E+02
     13.133  0.1941E-08  0.9600E+02
     13.255  0.0000E+00  0.9600E+02
     13.376  0.0000E+00  0.9600E+02
     13.498  0.0000E+00  0.9600E+02
     13.620  0.0000E+00  0.9600E+02
     13.742  0.0000E+00  0.9600E+02
     13.864  0.0000E+00  0.9600E+02
     13.986  0.0000E+00  0.9600E+02
     14.107  0.0000E+00  0.9600E+02
     14.229  0.0000E+00  0.9600E+02
     14.351  0.0000E+00  0.9600E+02
     14.473  0.0000E+00  0.9600E+02
