       N       E                     dE             d eps       ncg     rms          rms(c)
DAV:   1    -0.188773105004E+00   -0.18877E+00   -0.31339E-07  9744   0.207E-03    0.267E-04
DAV:   2    -0.188773184786E+00   -0.79782E-07   -0.75043E-09  7584   0.209E-04
   1 F= -.18877318E+00 E0= -.18877318E+00  d E =-.866341E-11
       N       E                     dE             ncg
DAV:   1    -0.192916457383E+05   -0.46975E+05     8064
DAV:   2    -0.268634054133E+05   -0.75718E+04    11856
DAV:   3    -0.269329950174E+05   -0.69590E+02     9024
DAV:   4    -0.269331757130E+05   -0.18070E+00    15024
DAV:   5    -0.269331757181E+05   -0.50866E-05     8976
       N       E                     dE             ncg
DAV:   1    -0.484713148266E+04   -0.35418E+05     6048
DAV:   2    -0.105227764937E+05   -0.56756E+04     9264
DAV:   3    -0.105696751899E+05   -0.46899E+02     6288
DAV:   4    -0.105698111249E+05   -0.13594E+00    11472
DAV:   5    -0.105698111286E+05   -0.36741E-05     6240
