Kr                                      
           1
     6.429300    0.000000    0.000000
     0.000000    6.429300    0.000000
     0.000000    0.000000    6.429300
   Kr
     4
Direct configuration=     1
   0.00000000  0.00000000  0.00000000
   0.00000000  0.50000000  0.50000000
   0.50000000  0.00000000  0.50000000
   0.50000000  0.50000000  0.00000000
