 DBCSR| CPU Multiplication driver                                           BLAS (U)
 DBCSR| Multrec recursion limit                                              512 (U)
 DBCSR| Multiplication stack size                                           1000 (D)
 DBCSR| Maximum elements for images                                    UNLIMITED (U)
 DBCSR| Multiplicative factor virtual images                                   1 (U)
 DBCSR| Use multiplication densification                                       T (D)
 DBCSR| Multiplication size stacks                                             3 (U)
 DBCSR| Use memory pool for CPU allocation                                     F (U)
 DBCSR| Number of 3D layers                                               SINGLE (U)
 DBCSR| Use MPI memory allocation                                              F (U)
 DBCSR| Use RMA algorithm                                                      F (U)
 DBCSR| Use Communication thread                                               T (U)
 DBCSR| Communication thread load                                             45 (D)
 DBCSR| MPI: My process id                                                     0
 DBCSR| MPI: Number of processes                                               8
 DBCSR| OMP: Current number of threads                                        12
 DBCSR| OMP: Max number of threads                                            12
 DBCSR| Split modifier for TAS multiplication algorithm                  1.0E+00 (U)


  **** **** ******  **  PROGRAM STARTED AT               2025-08-05 00:18:35.250
 ***** ** ***  *** **   PROGRAM STARTED ON                          i02r05c01s07
 **    ****   ******    PROGRAM STARTED BY                               di38fab
 ***** **    ** ** **   PROGRAM PROCESS ID                               1719637
  **** **  *******  **  PROGRAM STARTED IN /hppfs/scratch/04/di38fab/09_GTH/Delt
                                           a_Set/Cl/aug-DZVP-MOLOPT-GTH-tier-1-S
                                           R/8x8x8

 CP2K| version string:                 CP2K version 2025.1 (Development Version)
 CP2K| source code revision number:                                  git:3130539
 CP2K| cp2kflags: omp libint fftw3 libxc parallel scalapack max_contr=4         
 CP2K| is freely available from                            https://www.cp2k.org/
 CP2K| Program compiled at                         Tue Jun  3 16:14:32 CEST 2025
 CP2K| Program compiled on                                               login01
 CP2K| Program compiled for                                        Supermuc-foss
 CP2K| Data directory path                  /hppfs/work/pn36zo/di38fab/cp2k/data
 CP2K| Input file name                                                    GW.inp

 GLOBAL| Force Environment number                                              1
 GLOBAL| Basis set file name            /hppfs/scratch/04/di38fab/09_GTH/BASIS_A
 GLOBAL| Potential file name            /hppfs/work/pn36zo/di38fab/cp2k/data/GTH
 GLOBAL| MM Potential file name                                     MM_POTENTIAL
 GLOBAL| Coordinate file name                                             Cl.cif
 GLOBAL| Method name                                                        CP2K
 GLOBAL| Project name                                                       WSe2
 GLOBAL| Run type                                                         ENERGY
 GLOBAL| FFT library                                                       FFTW3
 GLOBAL| Diagonalization library                                       ScaLAPACK
 GLOBAL| Cholesky decomposition library                                ScaLAPACK
 GLOBAL| DGEMM library                                                      BLAS
 GLOBAL| Orthonormality check for eigenvectors                          DISABLED
 GLOBAL| Matrix multiplication library                                 ScaLAPACK
 GLOBAL| All-to-all communication in single precision                          F
 GLOBAL| FFTs using library dependent lengths                                  F
 GLOBAL| Grid backend                                                       AUTO
 GLOBAL| Global print level                                               MEDIUM
 GLOBAL| MPI I/O enabled                                                       T
 GLOBAL| Total number of message passing processes                             8
 GLOBAL| Number of threads for this process                                   12
 GLOBAL| This output is from process                                           0
 GLOBAL| OpenMP stack size per thread (OMP_STACKSIZE)                    default
 GLOBAL| CPU model name             Intel(R) Xeon(R) Platinum 8174 CPU @ 3.10GHz

 MEMORY| system memory details [Kb]
 MEMORY|                        rank 0           min           max       average
 MEMORY| MemTotal             98436664      98436664      98436664      98436664
 MEMORY| MemFree              84692356      84670324      84692356      84681340
 MEMORY| Buffers                     0             0             0             0
 MEMORY| Cached                2403376       2403376       2409404       2406390
 MEMORY| Slab                  1284628       1280940       1284628       1282784
 MEMORY| SReclaimable           282096        273252        282096        277674
 MEMORY| MemLikelyFree        87377828      87352980      87377828      87365404


 *** Fundamental physical constants (SI units) ***

 *** Literature: B. J. Mohr and B. N. Taylor,
 ***             CODATA recommended values of the fundamental physical
 ***             constants: 2006, Web Version 5.1
 ***             http://physics.nist.gov/constants

 Speed of light in vacuum [m/s]                             2.99792458000000E+08
 Magnetic constant or permeability of vacuum [N/A**2]       1.25663706143592E-06
 Electric constant or permittivity of vacuum [F/m]          8.85418781762039E-12
 Planck constant (h) [J*s]                                  6.62606896000000E-34
 Planck constant (h-bar) [J*s]                              1.05457162825177E-34
 Elementary charge [C]                                      1.60217648700000E-19
 Electron mass [kg]                                         9.10938215000000E-31
 Electron g factor [ ]                                     -2.00231930436220E+00
 Proton mass [kg]                                           1.67262163700000E-27
 Fine-structure constant                                    7.29735253760000E-03
 Rydberg constant [1/m]                                     1.09737315685270E+07
 Avogadro constant [1/mol]                                  6.02214179000000E+23
 Boltzmann constant [J/K]                                   1.38065040000000E-23
 Atomic mass unit [kg]                                      1.66053878200000E-27
 Bohr radius [m]                                            5.29177208590000E-11

 *** Conversion factors ***

 [u] -> [a.u.]                                              1.82288848426455E+03
 [Angstrom] -> [Bohr] = [a.u.]                              1.88972613288564E+00
 [a.u.] = [Bohr] -> [Angstrom]                              5.29177208590000E-01
 [a.u.] -> [s]                                              2.41888432650478E-17
 [a.u.] -> [fs]                                             2.41888432650478E-02
 [a.u.] -> [J]                                              4.35974393937059E-18
 [a.u.] -> [N]                                              8.23872205491840E-08
 [a.u.] -> [K]                                              3.15774647902944E+05
 [a.u.] -> [kJ/mol]                                         2.62549961709828E+03
 [a.u.] -> [kcal/mol]                                       6.27509468713739E+02
 [a.u.] -> [Pa]                                             2.94210107994716E+13
 [a.u.] -> [bar]                                            2.94210107994716E+08
 [a.u.] -> [atm]                                            2.90362800883016E+08
 [a.u.] -> [eV]                                             2.72113838565563E+01
 [a.u.] -> [Hz]                                             6.57968392072181E+15
 [a.u.] -> [1/cm] (wave numbers)                            2.19474631370540E+05
 [a.u./Bohr**2] -> [1/cm]                                   5.14048714338585E+03
 

 CELL_TOP| Volume [angstrom^3]:                                       305.428517
 CELL_TOP| Vector a [angstrom     7.779     0.000     0.000   |a| =     7.778750
 CELL_TOP| Vector b [angstrom     0.000     4.349     0.000   |b| =     4.349410
 CELL_TOP| Vector c [angstrom     0.000     0.000     9.028   |c| =     9.027540
 CELL_TOP| Angle (b,c), alpha [degree]:                                90.000000
 CELL_TOP| Angle (a,c), beta  [degree]:                                90.000000
 CELL_TOP| Angle (a,b), gamma [degree]:                                90.000000
 CELL_TOP| Numerically orthorhombic:                                         YES
 CELL_TOP| Periodicity                                                       XYZ

 CELL_CIF| Volume [angstrom^3]:                                       305.428517
 CELL_CIF| Vector a [angstrom     7.779     0.000     0.000   |a| =     7.778750
 CELL_CIF| Vector b [angstrom     0.000     4.349     0.000   |b| =     4.349410
 CELL_CIF| Vector c [angstrom     0.000     0.000     9.028   |c| =     9.027540
 CELL_CIF| Angle (b,c), alpha [degree]:                                90.000000
 CELL_CIF| Angle (a,c), beta  [degree]:                                90.000000
 CELL_CIF| Angle (a,b), gamma [degree]:                                90.000000
 CELL_CIF| Numerically orthorhombic:                                         YES
 CELL_CIF| Periodicity                                                       XYZ

 GENERATE|  Preliminary Number of Bonds generated:                             0
 GENERATE|  Achieved consistency in connectivity generation.

 CELL| Volume [angstrom^3]:                                           305.428517
 CELL| Vector a [angstrom]:       7.779     0.000     0.000   |a| =     7.778750
 CELL| Vector b [angstrom]:       0.000     4.349     0.000   |b| =     4.349410
 CELL| Vector c [angstrom]:       0.000     0.000     9.028   |c| =     9.027540
 CELL| Angle (b,c), alpha [degree]:                                    90.000000
 CELL| Angle (a,c), beta  [degree]:                                    90.000000
 CELL| Angle (a,b), gamma [degree]:                                    90.000000
 CELL| Numerically orthorhombic:                                             YES
 CELL| Periodicity                                                           XYZ

 CELL_REF| Volume [angstrom^3]:                                       305.428517
 CELL_REF| Vector a [angstrom     7.779     0.000     0.000   |a| =     7.778750
 CELL_REF| Vector b [angstrom     0.000     4.349     0.000   |b| =     4.349410
 CELL_REF| Vector c [angstrom     0.000     0.000     9.028   |c| =     9.027540
 CELL_REF| Angle (b,c), alpha [degree]:                                90.000000
 CELL_REF| Angle (a,c), beta  [degree]:                                90.000000
 CELL_REF| Angle (a,b), gamma [degree]:                                90.000000
 CELL_REF| Numerically orthorhombic:                                         YES
 CELL_REF| Periodicity                                                       XYZ

 *** WARNING in cryssym.F:180 :: Symmetry library SPGLIB not available ***


 *******************************************************************************
                                    Kpoints
 *******************************************************************************
 BRILLOUIN| K-point scheme                                        Monkhorst-Pack
 BRILLOUIN| K-Point grid                                             8    8    8
 BRILLOUIN| Accuracy in Symmetry determination                      0.100000E-05
 BRILLOUIN| K-Point point group symmetrization                               OFF
 BRILLOUIN| Wavefunction type                                            COMPLEX
 BRILLOUIN| List of Kpoints [2 Pi/Bohr]                                      256
 BRILLOUIN| Number           Weight            X              Y              Z
 BRILLOUIN|     1           0.00391       -0.43750       -0.43750       -0.43750
 BRILLOUIN|     2           0.00391       -0.43750       -0.43750       -0.31250
 BRILLOUIN|     3           0.00391       -0.43750       -0.43750       -0.18750
 BRILLOUIN|     4           0.00391       -0.43750       -0.43750       -0.06250
 BRILLOUIN|     5           0.00391       -0.43750       -0.43750        0.06250
 BRILLOUIN|     6           0.00391       -0.43750       -0.43750        0.18750
 BRILLOUIN|     7           0.00391       -0.43750       -0.43750        0.31250
 BRILLOUIN|     8           0.00391       -0.43750       -0.43750        0.43750
 BRILLOUIN|     9           0.00391       -0.43750       -0.31250       -0.43750
 BRILLOUIN|    10           0.00391       -0.43750       -0.31250       -0.31250
 BRILLOUIN|    11           0.00391       -0.43750       -0.31250       -0.18750
 BRILLOUIN|    12           0.00391       -0.43750       -0.31250       -0.06250
 BRILLOUIN|    13           0.00391       -0.43750       -0.31250        0.06250
 BRILLOUIN|    14           0.00391       -0.43750       -0.31250        0.18750
 BRILLOUIN|    15           0.00391       -0.43750       -0.31250        0.31250
 BRILLOUIN|    16           0.00391       -0.43750       -0.31250        0.43750
 BRILLOUIN|    17           0.00391       -0.43750       -0.18750       -0.43750
 BRILLOUIN|    18           0.00391       -0.43750       -0.18750       -0.31250
 BRILLOUIN|    19           0.00391       -0.43750       -0.18750       -0.18750
 BRILLOUIN|    20           0.00391       -0.43750       -0.18750       -0.06250
 BRILLOUIN|    21           0.00391       -0.43750       -0.18750        0.06250
 BRILLOUIN|    22           0.00391       -0.43750       -0.18750        0.18750
 BRILLOUIN|    23           0.00391       -0.43750       -0.18750        0.31250
 BRILLOUIN|    24           0.00391       -0.43750       -0.18750        0.43750
 BRILLOUIN|    25           0.00391       -0.43750       -0.06250       -0.43750
 BRILLOUIN|    26           0.00391       -0.43750       -0.06250       -0.31250
 BRILLOUIN|    27           0.00391       -0.43750       -0.06250       -0.18750
 BRILLOUIN|    28           0.00391       -0.43750       -0.06250       -0.06250
 BRILLOUIN|    29           0.00391       -0.43750       -0.06250        0.06250
 BRILLOUIN|    30           0.00391       -0.43750       -0.06250        0.18750
 BRILLOUIN|    31           0.00391       -0.43750       -0.06250        0.31250
 BRILLOUIN|    32           0.00391       -0.43750       -0.06250        0.43750
 BRILLOUIN|    33           0.00391       -0.43750        0.06250       -0.43750
 BRILLOUIN|    34           0.00391       -0.43750        0.06250       -0.31250
 BRILLOUIN|    35           0.00391       -0.43750        0.06250       -0.18750
 BRILLOUIN|    36           0.00391       -0.43750        0.06250       -0.06250
 BRILLOUIN|    37           0.00391       -0.43750        0.06250        0.06250
 BRILLOUIN|    38           0.00391       -0.43750        0.06250        0.18750
 BRILLOUIN|    39           0.00391       -0.43750        0.06250        0.31250
 BRILLOUIN|    40           0.00391       -0.43750        0.06250        0.43750
 BRILLOUIN|    41           0.00391       -0.43750        0.18750       -0.43750
 BRILLOUIN|    42           0.00391       -0.43750        0.18750       -0.31250
 BRILLOUIN|    43           0.00391       -0.43750        0.18750       -0.18750
 BRILLOUIN|    44           0.00391       -0.43750        0.18750       -0.06250
 BRILLOUIN|    45           0.00391       -0.43750        0.18750        0.06250
 BRILLOUIN|    46           0.00391       -0.43750        0.18750        0.18750
 BRILLOUIN|    47           0.00391       -0.43750        0.18750        0.31250
 BRILLOUIN|    48           0.00391       -0.43750        0.18750        0.43750
 BRILLOUIN|    49           0.00391       -0.43750        0.31250       -0.43750
 BRILLOUIN|    50           0.00391       -0.43750        0.31250       -0.31250
 BRILLOUIN|    51           0.00391       -0.43750        0.31250       -0.18750
 BRILLOUIN|    52           0.00391       -0.43750        0.31250       -0.06250
 BRILLOUIN|    53           0.00391       -0.43750        0.31250        0.06250
 BRILLOUIN|    54           0.00391       -0.43750        0.31250        0.18750
 BRILLOUIN|    55           0.00391       -0.43750        0.31250        0.31250
 BRILLOUIN|    56           0.00391       -0.43750        0.31250        0.43750
 BRILLOUIN|    57           0.00391       -0.43750        0.43750       -0.43750
 BRILLOUIN|    58           0.00391       -0.43750        0.43750       -0.31250
 BRILLOUIN|    59           0.00391       -0.43750        0.43750       -0.18750
 BRILLOUIN|    60           0.00391       -0.43750        0.43750       -0.06250
 BRILLOUIN|    61           0.00391       -0.43750        0.43750        0.06250
 BRILLOUIN|    62           0.00391       -0.43750        0.43750        0.18750
 BRILLOUIN|    63           0.00391       -0.43750        0.43750        0.31250
 BRILLOUIN|    64           0.00391       -0.43750        0.43750        0.43750
 BRILLOUIN|    65           0.00391       -0.31250       -0.43750       -0.43750
 BRILLOUIN|    66           0.00391       -0.31250       -0.43750       -0.31250
 BRILLOUIN|    67           0.00391       -0.31250       -0.43750       -0.18750
 BRILLOUIN|    68           0.00391       -0.31250       -0.43750       -0.06250
 BRILLOUIN|    69           0.00391       -0.31250       -0.43750        0.06250
 BRILLOUIN|    70           0.00391       -0.31250       -0.43750        0.18750
 BRILLOUIN|    71           0.00391       -0.31250       -0.43750        0.31250
 BRILLOUIN|    72           0.00391       -0.31250       -0.43750        0.43750
 BRILLOUIN|    73           0.00391       -0.31250       -0.31250       -0.43750
 BRILLOUIN|    74           0.00391       -0.31250       -0.31250       -0.31250
 BRILLOUIN|    75           0.00391       -0.31250       -0.31250       -0.18750
 BRILLOUIN|    76           0.00391       -0.31250       -0.31250       -0.06250
 BRILLOUIN|    77           0.00391       -0.31250       -0.31250        0.06250
 BRILLOUIN|    78           0.00391       -0.31250       -0.31250        0.18750
 BRILLOUIN|    79           0.00391       -0.31250       -0.31250        0.31250
 BRILLOUIN|    80           0.00391       -0.31250       -0.31250        0.43750
 BRILLOUIN|    81           0.00391       -0.31250       -0.18750       -0.43750
 BRILLOUIN|    82           0.00391       -0.31250       -0.18750       -0.31250
 BRILLOUIN|    83           0.00391       -0.31250       -0.18750       -0.18750
 BRILLOUIN|    84           0.00391       -0.31250       -0.18750       -0.06250
 BRILLOUIN|    85           0.00391       -0.31250       -0.18750        0.06250
 BRILLOUIN|    86           0.00391       -0.31250       -0.18750        0.18750
 BRILLOUIN|    87           0.00391       -0.31250       -0.18750        0.31250
 BRILLOUIN|    88           0.00391       -0.31250       -0.18750        0.43750
 BRILLOUIN|    89           0.00391       -0.31250       -0.06250       -0.43750
 BRILLOUIN|    90           0.00391       -0.31250       -0.06250       -0.31250
 BRILLOUIN|    91           0.00391       -0.31250       -0.06250       -0.18750
 BRILLOUIN|    92           0.00391       -0.31250       -0.06250       -0.06250
 BRILLOUIN|    93           0.00391       -0.31250       -0.06250        0.06250
 BRILLOUIN|    94           0.00391       -0.31250       -0.06250        0.18750
 BRILLOUIN|    95           0.00391       -0.31250       -0.06250        0.31250
 BRILLOUIN|    96           0.00391       -0.31250       -0.06250        0.43750
 BRILLOUIN|    97           0.00391       -0.31250        0.06250       -0.43750
 BRILLOUIN|    98           0.00391       -0.31250        0.06250       -0.31250
 BRILLOUIN|    99           0.00391       -0.31250        0.06250       -0.18750
 BRILLOUIN|   100           0.00391       -0.31250        0.06250       -0.06250
 BRILLOUIN|   101           0.00391       -0.31250        0.06250        0.06250
 BRILLOUIN|   102           0.00391       -0.31250        0.06250        0.18750
 BRILLOUIN|   103           0.00391       -0.31250        0.06250        0.31250
 BRILLOUIN|   104           0.00391       -0.31250        0.06250        0.43750
 BRILLOUIN|   105           0.00391       -0.31250        0.18750       -0.43750
 BRILLOUIN|   106           0.00391       -0.31250        0.18750       -0.31250
 BRILLOUIN|   107           0.00391       -0.31250        0.18750       -0.18750
 BRILLOUIN|   108           0.00391       -0.31250        0.18750       -0.06250
 BRILLOUIN|   109           0.00391       -0.31250        0.18750        0.06250
 BRILLOUIN|   110           0.00391       -0.31250        0.18750        0.18750
 BRILLOUIN|   111           0.00391       -0.31250        0.18750        0.31250
 BRILLOUIN|   112           0.00391       -0.31250        0.18750        0.43750
 BRILLOUIN|   113           0.00391       -0.31250        0.31250       -0.43750
 BRILLOUIN|   114           0.00391       -0.31250        0.31250       -0.31250
 BRILLOUIN|   115           0.00391       -0.31250        0.31250       -0.18750
 BRILLOUIN|   116           0.00391       -0.31250        0.31250       -0.06250
 BRILLOUIN|   117           0.00391       -0.31250        0.31250        0.06250
 BRILLOUIN|   118           0.00391       -0.31250        0.31250        0.18750
 BRILLOUIN|   119           0.00391       -0.31250        0.31250        0.31250
 BRILLOUIN|   120           0.00391       -0.31250        0.31250        0.43750
 BRILLOUIN|   121           0.00391       -0.31250        0.43750       -0.43750
 BRILLOUIN|   122           0.00391       -0.31250        0.43750       -0.31250
 BRILLOUIN|   123           0.00391       -0.31250        0.43750       -0.18750
 BRILLOUIN|   124           0.00391       -0.31250        0.43750       -0.06250
 BRILLOUIN|   125           0.00391       -0.31250        0.43750        0.06250
 BRILLOUIN|   126           0.00391       -0.31250        0.43750        0.18750
 BRILLOUIN|   127           0.00391       -0.31250        0.43750        0.31250
 BRILLOUIN|   128           0.00391       -0.31250        0.43750        0.43750
 BRILLOUIN|   129           0.00391       -0.18750       -0.43750       -0.43750
 BRILLOUIN|   130           0.00391       -0.18750       -0.43750       -0.31250
 BRILLOUIN|   131           0.00391       -0.18750       -0.43750       -0.18750
 BRILLOUIN|   132           0.00391       -0.18750       -0.43750       -0.06250
 BRILLOUIN|   133           0.00391       -0.18750       -0.43750        0.06250
 BRILLOUIN|   134           0.00391       -0.18750       -0.43750        0.18750
 BRILLOUIN|   135           0.00391       -0.18750       -0.43750        0.31250
 BRILLOUIN|   136           0.00391       -0.18750       -0.43750        0.43750
 BRILLOUIN|   137           0.00391       -0.18750       -0.31250       -0.43750
 BRILLOUIN|   138           0.00391       -0.18750       -0.31250       -0.31250
 BRILLOUIN|   139           0.00391       -0.18750       -0.31250       -0.18750
 BRILLOUIN|   140           0.00391       -0.18750       -0.31250       -0.06250
 BRILLOUIN|   141           0.00391       -0.18750       -0.31250        0.06250
 BRILLOUIN|   142           0.00391       -0.18750       -0.31250        0.18750
 BRILLOUIN|   143           0.00391       -0.18750       -0.31250        0.31250
 BRILLOUIN|   144           0.00391       -0.18750       -0.31250        0.43750
 BRILLOUIN|   145           0.00391       -0.18750       -0.18750       -0.43750
 BRILLOUIN|   146           0.00391       -0.18750       -0.18750       -0.31250
 BRILLOUIN|   147           0.00391       -0.18750       -0.18750       -0.18750
 BRILLOUIN|   148           0.00391       -0.18750       -0.18750       -0.06250
 BRILLOUIN|   149           0.00391       -0.18750       -0.18750        0.06250
 BRILLOUIN|   150           0.00391       -0.18750       -0.18750        0.18750
 BRILLOUIN|   151           0.00391       -0.18750       -0.18750        0.31250
 BRILLOUIN|   152           0.00391       -0.18750       -0.18750        0.43750
 BRILLOUIN|   153           0.00391       -0.18750       -0.06250       -0.43750
 BRILLOUIN|   154           0.00391       -0.18750       -0.06250       -0.31250
 BRILLOUIN|   155           0.00391       -0.18750       -0.06250       -0.18750
 BRILLOUIN|   156           0.00391       -0.18750       -0.06250       -0.06250
 BRILLOUIN|   157           0.00391       -0.18750       -0.06250        0.06250
 BRILLOUIN|   158           0.00391       -0.18750       -0.06250        0.18750
 BRILLOUIN|   159           0.00391       -0.18750       -0.06250        0.31250
 BRILLOUIN|   160           0.00391       -0.18750       -0.06250        0.43750
 BRILLOUIN|   161           0.00391       -0.18750        0.06250       -0.43750
 BRILLOUIN|   162           0.00391       -0.18750        0.06250       -0.31250
 BRILLOUIN|   163           0.00391       -0.18750        0.06250       -0.18750
 BRILLOUIN|   164           0.00391       -0.18750        0.06250       -0.06250
 BRILLOUIN|   165           0.00391       -0.18750        0.06250        0.06250
 BRILLOUIN|   166           0.00391       -0.18750        0.06250        0.18750
 BRILLOUIN|   167           0.00391       -0.18750        0.06250        0.31250
 BRILLOUIN|   168           0.00391       -0.18750        0.06250        0.43750
 BRILLOUIN|   169           0.00391       -0.18750        0.18750       -0.43750
 BRILLOUIN|   170           0.00391       -0.18750        0.18750       -0.31250
 BRILLOUIN|   171           0.00391       -0.18750        0.18750       -0.18750
 BRILLOUIN|   172           0.00391       -0.18750        0.18750       -0.06250
 BRILLOUIN|   173           0.00391       -0.18750        0.18750        0.06250
 BRILLOUIN|   174           0.00391       -0.18750        0.18750        0.18750
 BRILLOUIN|   175           0.00391       -0.18750        0.18750        0.31250
 BRILLOUIN|   176           0.00391       -0.18750        0.18750        0.43750
 BRILLOUIN|   177           0.00391       -0.18750        0.31250       -0.43750
 BRILLOUIN|   178           0.00391       -0.18750        0.31250       -0.31250
 BRILLOUIN|   179           0.00391       -0.18750        0.31250       -0.18750
 BRILLOUIN|   180           0.00391       -0.18750        0.31250       -0.06250
 BRILLOUIN|   181           0.00391       -0.18750        0.31250        0.06250
 BRILLOUIN|   182           0.00391       -0.18750        0.31250        0.18750
 BRILLOUIN|   183           0.00391       -0.18750        0.31250        0.31250
 BRILLOUIN|   184           0.00391       -0.18750        0.31250        0.43750
 BRILLOUIN|   185           0.00391       -0.18750        0.43750       -0.43750
 BRILLOUIN|   186           0.00391       -0.18750        0.43750       -0.31250
 BRILLOUIN|   187           0.00391       -0.18750        0.43750       -0.18750
 BRILLOUIN|   188           0.00391       -0.18750        0.43750       -0.06250
 BRILLOUIN|   189           0.00391       -0.18750        0.43750        0.06250
 BRILLOUIN|   190           0.00391       -0.18750        0.43750        0.18750
 BRILLOUIN|   191           0.00391       -0.18750        0.43750        0.31250
 BRILLOUIN|   192           0.00391       -0.18750        0.43750        0.43750
 BRILLOUIN|   193           0.00391       -0.06250       -0.43750       -0.43750
 BRILLOUIN|   194           0.00391       -0.06250       -0.43750       -0.31250
 BRILLOUIN|   195           0.00391       -0.06250       -0.43750       -0.18750
 BRILLOUIN|   196           0.00391       -0.06250       -0.43750       -0.06250
 BRILLOUIN|   197           0.00391       -0.06250       -0.43750        0.06250
 BRILLOUIN|   198           0.00391       -0.06250       -0.43750        0.18750
 BRILLOUIN|   199           0.00391       -0.06250       -0.43750        0.31250
 BRILLOUIN|   200           0.00391       -0.06250       -0.43750        0.43750
 BRILLOUIN|   201           0.00391       -0.06250       -0.31250       -0.43750
 BRILLOUIN|   202           0.00391       -0.06250       -0.31250       -0.31250
 BRILLOUIN|   203           0.00391       -0.06250       -0.31250       -0.18750
 BRILLOUIN|   204           0.00391       -0.06250       -0.31250       -0.06250
 BRILLOUIN|   205           0.00391       -0.06250       -0.31250        0.06250
 BRILLOUIN|   206           0.00391       -0.06250       -0.31250        0.18750
 BRILLOUIN|   207           0.00391       -0.06250       -0.31250        0.31250
 BRILLOUIN|   208           0.00391       -0.06250       -0.31250        0.43750
 BRILLOUIN|   209           0.00391       -0.06250       -0.18750       -0.43750
 BRILLOUIN|   210           0.00391       -0.06250       -0.18750       -0.31250
 BRILLOUIN|   211           0.00391       -0.06250       -0.18750       -0.18750
 BRILLOUIN|   212           0.00391       -0.06250       -0.18750       -0.06250
 BRILLOUIN|   213           0.00391       -0.06250       -0.18750        0.06250
 BRILLOUIN|   214           0.00391       -0.06250       -0.18750        0.18750
 BRILLOUIN|   215           0.00391       -0.06250       -0.18750        0.31250
 BRILLOUIN|   216           0.00391       -0.06250       -0.18750        0.43750
 BRILLOUIN|   217           0.00391       -0.06250       -0.06250       -0.43750
 BRILLOUIN|   218           0.00391       -0.06250       -0.06250       -0.31250
 BRILLOUIN|   219           0.00391       -0.06250       -0.06250       -0.18750
 BRILLOUIN|   220           0.00391       -0.06250       -0.06250       -0.06250
 BRILLOUIN|   221           0.00391       -0.06250       -0.06250        0.06250
 BRILLOUIN|   222           0.00391       -0.06250       -0.06250        0.18750
 BRILLOUIN|   223           0.00391       -0.06250       -0.06250        0.31250
 BRILLOUIN|   224           0.00391       -0.06250       -0.06250        0.43750
 BRILLOUIN|   225           0.00391       -0.06250        0.06250       -0.43750
 BRILLOUIN|   226           0.00391       -0.06250        0.06250       -0.31250
 BRILLOUIN|   227           0.00391       -0.06250        0.06250       -0.18750
 BRILLOUIN|   228           0.00391       -0.06250        0.06250       -0.06250
 BRILLOUIN|   229           0.00391       -0.06250        0.06250        0.06250
 BRILLOUIN|   230           0.00391       -0.06250        0.06250        0.18750
 BRILLOUIN|   231           0.00391       -0.06250        0.06250        0.31250
 BRILLOUIN|   232           0.00391       -0.06250        0.06250        0.43750
 BRILLOUIN|   233           0.00391       -0.06250        0.18750       -0.43750
 BRILLOUIN|   234           0.00391       -0.06250        0.18750       -0.31250
 BRILLOUIN|   235           0.00391       -0.06250        0.18750       -0.18750
 BRILLOUIN|   236           0.00391       -0.06250        0.18750       -0.06250
 BRILLOUIN|   237           0.00391       -0.06250        0.18750        0.06250
 BRILLOUIN|   238           0.00391       -0.06250        0.18750        0.18750
 BRILLOUIN|   239           0.00391       -0.06250        0.18750        0.31250
 BRILLOUIN|   240           0.00391       -0.06250        0.18750        0.43750
 BRILLOUIN|   241           0.00391       -0.06250        0.31250       -0.43750
 BRILLOUIN|   242           0.00391       -0.06250        0.31250       -0.31250
 BRILLOUIN|   243           0.00391       -0.06250        0.31250       -0.18750
 BRILLOUIN|   244           0.00391       -0.06250        0.31250       -0.06250
 BRILLOUIN|   245           0.00391       -0.06250        0.31250        0.06250
 BRILLOUIN|   246           0.00391       -0.06250        0.31250        0.18750
 BRILLOUIN|   247           0.00391       -0.06250        0.31250        0.31250
 BRILLOUIN|   248           0.00391       -0.06250        0.31250        0.43750
 BRILLOUIN|   249           0.00391       -0.06250        0.43750       -0.43750
 BRILLOUIN|   250           0.00391       -0.06250        0.43750       -0.31250
 BRILLOUIN|   251           0.00391       -0.06250        0.43750       -0.18750
 BRILLOUIN|   252           0.00391       -0.06250        0.43750       -0.06250
 BRILLOUIN|   253           0.00391       -0.06250        0.43750        0.06250
 BRILLOUIN|   254           0.00391       -0.06250        0.43750        0.18750
 BRILLOUIN|   255           0.00391       -0.06250        0.43750        0.31250
 BRILLOUIN|   256           0.00391       -0.06250        0.43750        0.43750
 *******************************************************************************

 *******************************************************************************
 *******************************************************************************
 **                                                                           **
 **     #####                         ##              ##                      **
 **    ##   ##            ##          ##              ##                      **
 **   ##     ##                       ##            ######                    **
 **   ##     ##  ##   ##  ##   #####  ##  ##   ####   ##    #####    #####    **
 **   ##     ##  ##   ##  ##  ##      ## ##   ##      ##   ##   ##  ##   ##   **
 **   ##  ## ##  ##   ##  ##  ##      ####     ###    ##   ######   ######    **
 **    ##  ###   ##   ##  ##  ##      ## ##      ##   ##   ##       ##        **
 **     #######   #####   ##   #####  ##  ##  ####    ##    #####   ##        **
 **           ##                                                    ##        **
 **                                                                           **
 **                                                ... make the atoms dance   **
 **                                                                           **
 **            Copyright (C) by CP2K developers group (2000-2025)             **
 **                      J. Chem. Phys. 152, 194103 (2020)                    **
 **                                                                           **
 *******************************************************************************

 DFT| Spin restricted Kohn-Sham (RKS) calculation                            RKS
 DFT| Multiplicity                                                             1
 DFT| Number of spin states                                                    1
 DFT| Charge                                                                   0
 DFT| Self-interaction correction (SIC)                                       NO
 DFT| Cutoffs: density                                              1.000000E-10
 DFT|          gradient                                             1.000000E-10
 DFT|          tau                                                  1.000000E-10
 DFT|          cutoff_smoothing_range                               0.000000E+00
 DFT| XC density smoothing                                                  NONE
 DFT| XC derivatives                                                          PW

 FUNCTIONAL| PBE:
 FUNCTIONAL| J.P.Perdew, K.Burke, M.Ernzerhof, Phys. Rev. Letter, vol. 77, n 18,
 FUNCTIONAL|  pp. 3865-3868, (1996) {spin unpolarized}                          


 QS| Method:                                                                 GPW
 QS| Density plane wave grid type                        NON-SPHERICAL FULLSPACE
 QS| Number of grid levels:                                                    4
 QS| Density cutoff [a.u.]:                                                500.0
 QS| Multi grid cutoff [a.u.]: 1) grid level                               500.0
 QS|                           2) grid level                               166.7
 QS|                           3) grid level                                55.6
 QS|                           4) grid level                                18.5
 QS| Grid level progression factor:                                          3.0
 QS| Relative density cutoff [a.u.]:                                        50.0
 QS| Interaction thresholds: eps_pgf_orb:                                1.0E-16
 QS|                         eps_filter_matrix:                          0.0E+00
 QS|                         eps_core_charge:                            1.0E-18
 QS|                         eps_rho_gspace:                             1.0E-16
 QS|                         eps_rho_rspace:                             1.0E-16
 QS|                         eps_gvg_rspace:                             1.0E-08
 QS|                         eps_ppl:                                    1.0E-02
 QS|                         eps_ppnl:                                   1.0E-10


 ATOMIC KIND INFORMATION

  1. Atomic kind: Cl                                    Number of atoms:       8

     Orbital Basis Set                             aug-DZVP-MOLOPT-GTH-tier-1-SR

       Number of orbital shell sets:                                           1
       Number of orbital shells:                                               8
       Number of primitive Cartesian functions:                                5
       Number of Cartesian basis functions:                                   24
       Number of spherical basis functions:                                   22
       Norm type:                                                              2

       Normalised Cartesian orbitals:

                        Set   Shell   Orbital            Exponent    Coefficient

                          1       1    2s                0.150015      -0.058490
                                                         0.200000       0.000000
                                                         0.461213      -0.342539
                                                         1.470718       0.018727
                                                         2.379078       0.403013

                          1       2    3s                0.150015       0.311454
                                                         0.200000       0.000000
                                                         0.461213      -0.745503
                                                         1.470718       0.430622
                                                         2.379078       0.556233

                          1       3    4s                0.150015      -0.260053
                                                         0.200000       0.628120
                                                         0.461213      -0.322540
                                                         1.470718       0.415195
                                                         2.379078       0.000000

                          1       4    3px               0.150015      -0.051764
                                                         0.200000       0.000000
                                                         0.461213      -0.325785
                                                         1.470718      -0.580854
                                                         2.379078       0.636314
                          1       4    3py               0.150015      -0.051764
                                                         0.200000       0.000000
                                                         0.461213      -0.325785
                                                         1.470718      -0.580854
                                                         2.379078       0.636314
                          1       4    3pz               0.150015      -0.051764
                                                         0.200000       0.000000
                                                         0.461213      -0.325785
                                                         1.470718      -0.580854
                                                         2.379078       0.636314

                          1       5    4px               0.150015       0.171493
                                                         0.200000       0.000000
                                                         0.461213      -0.295676
                                                         1.470718      -0.610657
                                                         2.379078       0.838046
                          1       5    4py               0.150015       0.171493
                                                         0.200000       0.000000
                                                         0.461213      -0.295676
                                                         1.470718      -0.610657
                                                         2.379078       0.838046
                          1       5    4pz               0.150015       0.171493
                                                         0.200000       0.000000
                                                         0.461213      -0.295676
                                                         1.470718      -0.610657
                                                         2.379078       0.838046

                          1       6    5px               0.150015      -0.030950
                                                         0.200000       0.221861
                                                         0.461213       0.018982
                                                         1.470718       0.182831
                                                         2.379078       0.000000
                          1       6    5py               0.150015      -0.030950
                                                         0.200000       0.221861
                                                         0.461213       0.018982
                                                         1.470718       0.182831
                                                         2.379078       0.000000
                          1       6    5pz               0.150015      -0.030950
                                                         0.200000       0.221861
                                                         0.461213       0.018982
                                                         1.470718       0.182831
                                                         2.379078       0.000000

                          1       7    4dx2              0.150015       0.008371
                                                         0.200000       0.000000
                                                         0.461213       0.295732
                                                         1.470718       0.891640
                                                         2.379078       0.509952
                          1       7    4dxy              0.150015       0.014499
                                                         0.200000       0.000000
                                                         0.461213       0.512222
                                                         1.470718       1.544366
                                                         2.379078       0.883263
                          1       7    4dxz              0.150015       0.014499
                                                         0.200000       0.000000
                                                         0.461213       0.512222
                                                         1.470718       1.544366
                                                         2.379078       0.883263
                          1       7    4dy2              0.150015       0.008371
                                                         0.200000       0.000000
                                                         0.461213       0.295732
                                                         1.470718       0.891640
                                                         2.379078       0.509952
                          1       7    4dyz              0.150015       0.014499
                                                         0.200000       0.000000
                                                         0.461213       0.512222
                                                         1.470718       1.544366
                                                         2.379078       0.883263
                          1       7    4dz2              0.150015       0.008371
                                                         0.200000       0.000000
                                                         0.461213       0.295732
                                                         1.470718       0.891640
                                                         2.379078       0.509952

                          1       8    5dx2              0.150015       0.096514
                                                         0.200000      -0.064688
                                                         0.461213      -0.001363
                                                         1.470718      -0.052649
                                                         2.379078       0.000000
                          1       8    5dxy              0.150015       0.167167
                                                         0.200000      -0.112043
                                                         0.461213      -0.002361
                                                         1.470718      -0.091190
                                                         2.379078       0.000000
                          1       8    5dxz              0.150015       0.167167
                                                         0.200000      -0.112043
                                                         0.461213      -0.002361
                                                         1.470718      -0.091190
                                                         2.379078       0.000000
                          1       8    5dy2              0.150015       0.096514
                                                         0.200000      -0.064688
                                                         0.461213      -0.001363
                                                         1.470718      -0.052649
                                                         2.379078       0.000000
                          1       8    5dyz              0.150015       0.167167
                                                         0.200000      -0.112043
                                                         0.461213      -0.002361
                                                         1.470718      -0.091190
                                                         2.379078       0.000000
                          1       8    5dz2              0.150015       0.096514
                                                         0.200000      -0.064688
                                                         0.461213      -0.001363
                                                         1.470718      -0.052649
                                                         2.379078       0.000000

       Atomic covalent radius [Angstrom]:                                  0.990

       Atomic van der Waals radius [Angstrom]:                             1.750

     GTH Potential information for                                       GTH-PBE

       Description:                       Goedecker-Teter-Hutter pseudopotential
                                           Goedecker et al., PRB 54, 1703 (1996)
                                          Hartwigsen et al., PRB 58, 3641 (1998)
                                                      Krack, TCA 114, 145 (2005)

       Gaussian exponent of the core charge distribution:               2.974420
       Electronic configuration (s p d ...):                               2   5

       Parameters of the local part of the GTH pseudopotential:

                          rloc        C1          C2          C3          C4
                        0.410000   -6.392082

       Parameters of the non-local part of the GTH (SOC) pseudopotential:

                   l      r(l)      h(i,j,l)
                                    k(i,j,l)
                   0    0.339539   15.218990   -4.934523
                                   -4.934523    6.370442
                   1    0.378474    4.338775    0.000000
                                    0.000000    0.000000
                                    0.045289   -0.032578
                                   -0.032578    0.038547


 MOLECULE KIND INFORMATION


 All atoms are their own molecule, skipping detailed information


 TOTAL NUMBERS AND MAXIMUM NUMBERS

  Total number of            - Atomic kinds:                                   1
                             - Atoms:                                          8
                             - Shell sets:                                     8
                             - Shells:                                        64
                             - Primitive Cartesian functions:                 40
                             - Cartesian basis functions:                    192
                             - Spherical basis functions:                    176

  Maximum angular momentum of- Orbital basis functions:                        2
                             - Local part of the GTH pseudopotential:          0
                             - Non-local part of the GTH pseudopotential:      3


 MODULE QUICKSTEP: ATOMIC COORDINATES IN ANGSTROM

   Atom Kind Element         X             Y             Z       Z(eff)     Mass
      1    1 Cl   17      0.000000      1.778126      8.111064   7.0000  35.4530
      2    1 Cl   17      0.000000      0.396579      3.597294   7.0000  35.4530
      3    1 Cl   17      0.000000      3.952831      5.430246   7.0000  35.4530
      4    1 Cl   17      0.000000      2.571284      0.916476   7.0000  35.4530
      5    1 Cl   17      3.889375      3.952831      8.111064   7.0000  35.4530
      6    1 Cl   17      3.889375      2.571284      3.597294   7.0000  35.4530
      7    1 Cl   17      3.889375      1.778126      5.430246   7.0000  35.4530
      8    1 Cl   17      3.889375      0.396579      0.916476   7.0000  35.4530



 SCF PARAMETERS         Density guess:                                    ATOMIC
                        --------------------------------------------------------
                        max_scf:                                             500
                        max_scf_history:                                       0
                        max_diis:                                              4
                        --------------------------------------------------------
                        eps_scf:                                        1.00E-09
                        eps_scf_history:                                0.00E+00
                        eps_diis:                                       1.00E-01
                        eps_eigval:                                     1.00E-05
                        --------------------------------------------------------
                        level_shift [a.u.]:                             0.000000
                        added MOs                                       148    0
                        --------------------------------------------------------
                        Mixing method:                            BROYDEN_MIXING
                                                charge density mixing in g-space
                        --------------------------------------------------------
                        No outer SCF

 PW_GRID| Information for grid number                                          1
 PW_GRID| Grid distributed over                                     8 processors
 PW_GRID| Real space group dimensions                                     8    1
 PW_GRID| the grid is blocked:                                                NO
 PW_GRID| Cutoff [a.u.]                                                    500.0
 PW_GRID| spherical cutoff:                                                   NO
 PW_GRID|   Bounds   1            -75      74                Points:         150
 PW_GRID|   Bounds   2            -45      44                Points:          90
 PW_GRID|   Bounds   3            -90      89                Points:         180
 PW_GRID| Volume element (a.u.^3)  0.8482E-03     Volume (a.u.^3)      2061.1338
 PW_GRID| Grid span                                                    FULLSPACE
 PW_GRID|   Distribution                         Average         Max         Min
 PW_GRID|   G-Vectors                           303750.0      303750      303750
 PW_GRID|   G-Rays                                2025.0        2025        2025
 PW_GRID|   Real Space Points                   303750.0      307800      291600

 PW_GRID| Information for grid number                                          2
 PW_GRID| Number of the reference grid                                         1
 PW_GRID| Grid distributed over                                     8 processors
 PW_GRID| Real space group dimensions                                     8    1
 PW_GRID| the grid is blocked:                                                NO
 PW_GRID| Cutoff [a.u.]                                                    166.7
 PW_GRID| spherical cutoff:                                                   NO
 PW_GRID|   Bounds   1            -45      44                Points:          90
 PW_GRID|   Bounds   2            -24      23                Points:          48
 PW_GRID|   Bounds   3            -50      49                Points:         100
 PW_GRID| Volume element (a.u.^3)  0.4771E-02     Volume (a.u.^3)      2061.1338
 PW_GRID| Grid span                                                    FULLSPACE
 PW_GRID|   Distribution                         Average         Max         Min
 PW_GRID|   G-Vectors                            54000.0       54090       53910
 PW_GRID|   G-Rays                                 600.0         601         599
 PW_GRID|   Real Space Points                    54000.0       57600       52800

 PW_GRID| Information for grid number                                          3
 PW_GRID| Number of the reference grid                                         1
 PW_GRID| Grid distributed over                                     8 processors
 PW_GRID| Real space group dimensions                                     8    1
 PW_GRID| the grid is blocked:                                                NO
 PW_GRID| Cutoff [a.u.]                                                     55.6
 PW_GRID| spherical cutoff:                                                   NO
 PW_GRID|   Bounds   1            -27      26                Points:          54
 PW_GRID|   Bounds   2            -13      13                Points:          27
 PW_GRID|   Bounds   3            -30      29                Points:          60
 PW_GRID| Volume element (a.u.^3)  0.2356E-01     Volume (a.u.^3)      2061.1338
 PW_GRID| Grid span                                                    FULLSPACE
 PW_GRID|   Distribution                         Average         Max         Min
 PW_GRID|   G-Vectors                            10935.0       11070       10854
 PW_GRID|   G-Rays                                 202.5         205         201
 PW_GRID|   Real Space Points                    10935.0       11340        9720

 PW_GRID| Information for grid number                                          4
 PW_GRID| Number of the reference grid                                         1
 PW_GRID| Grid distributed over                                     8 processors
 PW_GRID| Real space group dimensions                                     8    1
 PW_GRID| the grid is blocked:                                                NO
 PW_GRID| Cutoff [a.u.]                                                     18.5
 PW_GRID| spherical cutoff:                                                   NO
 PW_GRID|   Bounds   1            -15      14                Points:          30
 PW_GRID|   Bounds   2             -7       7                Points:          15
 PW_GRID|   Bounds   3            -18      17                Points:          36
 PW_GRID| Volume element (a.u.^3)  0.1272         Volume (a.u.^3)      2061.1338
 PW_GRID| Grid span                                                    FULLSPACE
 PW_GRID|   Distribution                         Average         Max         Min
 PW_GRID|   G-Vectors                             2025.0        2070        1980
 PW_GRID|   G-Rays                                  67.5          69          66
 PW_GRID|   Real Space Points                     2025.0        2160        1620

 POISSON| Solver                                                        PERIODIC
 POISSON| Periodicity                                                        XYZ

 RS_GRID| Information for grid number                                          1
 RS_GRID|   Bounds   1            -75      74                Points:         150
 RS_GRID|   Bounds   2            -45      44                Points:          90
 RS_GRID|   Bounds   3            -90      89                Points:         180
 RS_GRID| Real space fully replicated
 RS_GRID| Group size                                                           1

 RS_GRID| Information for grid number                                          2
 RS_GRID|   Bounds   1            -45      44                Points:          90
 RS_GRID|   Bounds   2            -24      23                Points:          48
 RS_GRID|   Bounds   3            -50      49                Points:         100
 RS_GRID| Real space fully replicated
 RS_GRID| Group size                                                           1

 RS_GRID| Information for grid number                                          3
 RS_GRID|   Bounds   1            -27      26                Points:          54
 RS_GRID|   Bounds   2            -13      13                Points:          27
 RS_GRID|   Bounds   3            -30      29                Points:          60
 RS_GRID| Real space fully replicated
 RS_GRID| Group size                                                           1

 RS_GRID| Information for grid number                                          4
 RS_GRID|   Bounds   1            -15      14                Points:          30
 RS_GRID|   Bounds   2             -7       7                Points:          15
 RS_GRID|   Bounds   3            -18      17                Points:          36
 RS_GRID| Real space fully replicated
 RS_GRID| Group size                                                           1

 Number of electrons:                                                         56
 Number of occupied orbitals:                                                 28
 Number of molecular orbitals:                                               176

 Number of orbital functions:                                                176
 Number of independent orbital functions:                                    176

 Extrapolation method: initial_guess

 Atomic guess: The first density matrix is obtained in terms of atomic orbitals
               and electronic configurations assigned to each atomic kind

 Guess for atomic kind: Cl

 Electronic structure
    Total number of core electrons                                         10.00
    Total number of valence electrons                                       7.00
    Total number of electrons                                              17.00
    Multiplicity                                                   not specified
    S   [  2.00  2.00] 2.00
    P   [  6.00] 5.00


 *******************************************************************************
                  Iteration          Convergence                     Energy [au]
 *******************************************************************************
                          1        0.313945E-01                 -14.773633700919
                          2        0.195488E-01                 -14.773805856731
                          3        0.389081E-02                 -14.773877845256
                          4        0.777201E-06                 -14.773880769947

 Energy components [Hartree]           Total Energy ::          -14.773880769947
                                        Band Energy ::           -2.957510283718
                                     Kinetic Energy ::            5.561969155978
                                   Potential Energy ::          -20.335849925925
                                      Virial (-V/T) ::            3.656232056603
                                        Core Energy ::          -24.688743873917
                                          XC Energy ::           -2.746658225868
                                     Coulomb Energy ::           12.661521329838
                       Total Pseudopotential Energy ::          -30.309360399165
                       Local Pseudopotential Energy ::          -33.429756254926
                    Nonlocal Pseudopotential Energy ::            3.120395855760
                                        Confinement ::            0.586473692704

 Orbital energies  State     L     Occupation   Energy[a.u.]          Energy[eV]

                       1     0          2.000      -0.738874          -20.105793

                       1     1          5.000      -0.295952           -8.053272


 Total Electron Density at R=0:                                         0.000326
 Re-scaling the density matrix to get the right number of electrons
                  # Electrons              Trace(P)               Scaling factor
                           56                56.000                        1.000


 SCF WAVEFUNCTION OPTIMIZATION

  Step     Update method      Time    Convergence         Total energy    Change
  ------------------------------------------------------------------------------
     1 NoMix/Diag. 0.50E-01    2.7     0.71499013      -120.0688532462 -1.20E+02
     2 Broy./Diag. 0.50E-01    2.6     0.00159653      -119.7321304925  3.37E-01
     3 Broy./Diag. 0.50E-01    2.6     0.03907588      -119.8356291052 -1.03E-01
     4 Broy./Diag. 0.50E-01    2.6     0.00052384      -119.9164847163 -8.09E-02
     5 Broy./Diag. 0.50E-01    2.6     0.01147167      -119.8811852602  3.53E-02
     6 Broy./Diag. 0.50E-01    2.7     0.00024450      -119.8170947109  6.41E-02
     7 Broy./Diag. 0.50E-01    2.6     0.00347236      -119.7951680638  2.19E-02
     8 Broy./Diag. 0.50E-01    2.6     0.00018843      -119.7518158656  4.34E-02
     9 Broy./Diag. 0.50E-01    2.7     0.00398811      -119.7505147236  1.30E-03
    10 Broy./Diag. 0.50E-01    2.7     0.00006758      -119.7402527224  1.03E-02
    11 Broy./Diag. 0.50E-01    2.7     0.00156573      -119.7419584702 -1.71E-03
    12 Broy./Diag. 0.50E-01    2.7     0.00004937      -119.7398391659  2.12E-03
    13 Broy./Diag. 0.50E-01    2.7     0.00066344      -119.7397120331  1.27E-04
    14 Broy./Diag. 0.50E-01    2.7     0.00003642      -119.7404072131 -6.95E-04
    15 Broy./Diag. 0.50E-01    2.7     0.00002042      -119.7404019468  5.27E-06
    16 Broy./Diag. 0.50E-01    2.7     0.00002399      -119.7404138911 -1.19E-05
    17 Broy./Diag. 0.50E-01    2.7     0.00003373      -119.7404409904 -2.71E-05
    18 Broy./Diag. 0.50E-01    2.7     0.00001649      -119.7404716501 -3.07E-05
    19 Broy./Diag. 0.50E-01    2.7     0.00000367      -119.7404094011  6.22E-05
    20 Broy./Diag. 0.50E-01    2.7     0.00000804      -119.7403940146  1.54E-05
    21 Broy./Diag. 0.50E-01    2.7     0.00001401      -119.7404420462 -4.80E-05
    22 Broy./Diag. 0.50E-01    2.7     0.00000363      -119.7405298712 -8.78E-05
    23 Broy./Diag. 0.50E-01    2.7     0.00000832      -119.7405773876 -4.75E-05
    24 Broy./Diag. 0.50E-01    2.7     0.00000808      -119.7406470138 -6.96E-05
    25 Broy./Diag. 0.50E-01    2.7     0.00000069      -119.7406958459 -4.88E-05
    26 Broy./Diag. 0.50E-01    2.7     0.00000131      -119.7406991561 -3.31E-06
    27 Broy./Diag. 0.50E-01    2.7     0.00000231      -119.7406983649  7.91E-07
    28 Broy./Diag. 0.50E-01    2.7     0.00000050      -119.7407060532 -7.69E-06
    29 Broy./Diag. 0.50E-01    2.7     0.00000051      -119.7407110022 -4.95E-06
    30 Broy./Diag. 0.50E-01    2.7     0.00000176      -119.7407097900  1.21E-06
    31 Broy./Diag. 0.50E-01    2.7     0.00000033      -119.7407154914 -5.70E-06
    32 Broy./Diag. 0.50E-01    2.7     0.00000063      -119.7407075676  7.92E-06
    33 Broy./Diag. 0.50E-01    2.7     0.00000009      -119.7407014331  6.13E-06
    34 Broy./Diag. 0.50E-01    2.7     0.00000105      -119.7406991527  2.28E-06
    35 Broy./Diag. 0.50E-01    2.7     0.00000023      -119.7406991794 -2.67E-08
    36 Broy./Diag. 0.50E-01    2.7     0.00000056      -119.7407020493 -2.87E-06
    37 Broy./Diag. 0.50E-01    2.7     0.00000020      -119.7407048085 -2.76E-06
    38 Broy./Diag. 0.50E-01    2.7     0.00000018      -119.7407062239 -1.42E-06
    39 Broy./Diag. 0.50E-01    2.7     0.00000026      -119.7407075574 -1.33E-06
    40 Broy./Diag. 0.50E-01    2.7     0.00000009      -119.7407084953 -9.38E-07
    41 Broy./Diag. 0.50E-01    2.7     0.00000013      -119.7407097335 -1.24E-06
    42 Broy./Diag. 0.50E-01    2.7     0.00000014      -119.7407115377 -1.80E-06
    43 Broy./Diag. 0.50E-01    2.7     0.00000006      -119.7407132135 -1.68E-06
    44 Broy./Diag. 0.50E-01    2.7     0.00000013      -119.7407132713 -5.77E-08
    45 Broy./Diag. 0.50E-01    2.7     0.00000004      -119.7407129790  2.92E-07
    46 Broy./Diag. 0.50E-01    2.7     0.00000016      -119.7407114163  1.56E-06
    47 Broy./Diag. 0.50E-01    2.7     0.00000005      -119.7407110113  4.05E-07
    48 Broy./Diag. 0.50E-01    2.7     0.00000006      -119.7407109771  3.42E-08
    49 Broy./Diag. 0.50E-01    2.7     0.00000002      -119.7407110940 -1.17E-07
    50 Broy./Diag. 0.50E-01    2.7     9.2167E-09      -119.7407111863 -9.23E-08
    51 Broy./Diag. 0.50E-01    2.7     0.00000003      -119.7407113636 -1.77E-07
    52 Broy./Diag. 0.50E-01    2.7     7.4586E-09      -119.7407114421 -7.85E-08
    53 Broy./Diag. 0.50E-01    2.7     8.0122E-09      -119.7407114519 -9.80E-09
    54 Broy./Diag. 0.50E-01    2.7     7.5793E-09      -119.7407114800 -2.81E-08
    55 Broy./Diag. 0.50E-01    2.7     5.9594E-09      -119.7407115572 -7.72E-08
    56 Broy./Diag. 0.50E-01    2.7     0.00000001      -119.7407116952 -1.38E-07
    57 Broy./Diag. 0.50E-01    2.7     1.3521E-09      -119.7407117248 -2.97E-08
    58 Broy./Diag. 0.50E-01    2.7     3.9785E-09      -119.7407117012  2.36E-08
    59 Broy./Diag. 0.50E-01    2.7     1.1096E-09      -119.7407116738  2.74E-08
    60 Broy./Diag. 0.50E-01    2.7     3.1178E-09      -119.7407116420  3.18E-08
    61 Broy./Diag. 0.50E-01    2.7     4.3565E-09      -119.7407115970  4.49E-08
    62 Broy./Diag. 0.50E-01    2.7     8.2146E-10      -119.7407115757  2.14E-08

  *** SCF run converged in    62 steps ***


  Electronic density on regular grids:        -56.0000000000       -0.0000000000
  Core density on regular grids:               56.0000000000        0.0000000000
  Total charge density on r-space grids:       -0.0000000000
  Total charge density g-space grids:          -0.0000000000

  Overlap energy of the core charge distribution:               0.00000000392585
  Self energy of the core charge distribution:               -269.71014237892746
  Core Hamiltonian energy:                                     61.70078587375794
  Hartree energy:                                             111.37669257561920
  Exchange-correlation energy:                                -23.10804765004004

  Total energy:                                              -119.74071157566451

 !-----------------------------------------------------------------------------!
                     Mulliken Population Analysis

 #  Atom  Element  Kind  Atomic population                           Net charge
       1     Cl       1          7.000000                             -0.000000
       2     Cl       1          7.000000                              0.000000
       3     Cl       1          7.000000                              0.000000
       4     Cl       1          7.000000                             -0.000000
       5     Cl       1          7.000000                              0.000000
       6     Cl       1          7.000000                             -0.000000
       7     Cl       1          7.000000                             -0.000000
       8     Cl       1          7.000000                              0.000000
 # Total charge                             56.000000                  0.000000

 !-----------------------------------------------------------------------------!

 !-----------------------------------------------------------------------------!
                           Hirshfeld Charges

  #Atom  Element  Kind  Ref Charge     Population                    Net charge
      1       Cl     1       7.000          7.000                         0.000
      2       Cl     1       7.000          7.000                        -0.000
      3       Cl     1       7.000          7.000                        -0.000
      4       Cl     1       7.000          7.000                         0.000
      5       Cl     1       7.000          7.000                        -0.000
      6       Cl     1       7.000          7.000                         0.000
      7       Cl     1       7.000          7.000                         0.000
      8       Cl     1       7.000          7.000                        -0.000

  Total Charge                                                           -0.000
 !-----------------------------------------------------------------------------!

 KPOINTS| Band Structure Calculation
 KPOINTS| Number of k-point sets                                               1
 KPOINTS| Number of added MOs/bands                                           -1
 KPOINTS| Number of k-points in set    1                                     148
 KPOINTS| In units of b-vector [2pi/Bohr]
 KPOINTS| Special point     1 not specifi     0.000000     0.000000     0.000000
 KPOINTS| Special point     2 not specifi     0.500000     0.500000     0.000000
 KPOINTS| Special point     3 not specifi     0.328159     0.671841     0.000000
 KPOINTS| Special point     4 not specifi     0.000000     0.000000     0.000000
 KPOINTS| Time for k-point line                                            1.596

 ENERGY| Total FORCE_EVAL ( QS ) energy [hartree]           -119.740711575664506

 -------------------------------------------------------------------------------
 -                                                                             -
 -                                DBCSR STATISTICS                             -
 -                                                                             -
 -------------------------------------------------------------------------------
 COUNTER                                    TOTAL       BLAS       SMM       ACC
 flops inhomo. stacks                           0       0.0%      0.0%      0.0%
 flops total                         0.000000E+00       0.0%      0.0%      0.0%
 flops max/rank                      0.000000E+00       0.0%      0.0%      0.0%
 matmuls inhomo. stacks                         0       0.0%      0.0%      0.0%
 matmuls total                                  0       0.0%      0.0%      0.0%
 number of processed stacks                     0       0.0%      0.0%      0.0%
 average stack size                                     0.0       0.0       0.0
 marketing flops                     0.000000E+00
 -------------------------------------------------------------------------------
 -                                                                             -
 -                      DBCSR MESSAGE PASSING PERFORMANCE                      -
 -                                                                             -
 -------------------------------------------------------------------------------
 ROUTINE             CALLS      AVE VOLUME [Bytes]
 MP_Bcast                1                     12.
 MP_Allreduce           19                     21.
 MP_Alltoall       1318912                  15913.
 -------------------------------------------------------------------------------

 -------------------------------------------------------------------------------
 -                                                                             -
 -                                DBM STATISTICS                               -
 -                                                                             -
 -------------------------------------------------------------------------------
    M  x    N  x    K                                          COUNT     PERCENT
 -------------------------------------------------------------------------------

 -------------------------------------------------------------------------------
 -                                                                             -
 -                                GRID STATISTICS                              -
 -                                                                             -
 -------------------------------------------------------------------------------
 LP    KERNEL             BACKEND                              COUNT     PERCENT
 4     collocate ortho    CPU                                 574812      50.40%
 4     integrate ortho    CPU                                 565688      49.60%
 0     collocate general  CPU                                     16       0.00%
 0     integrate general  CPU                                      8       0.00%
 -------------------------------------------------------------------------------

 MEMORY| Estimated peak process memory [MiB]                                 774

 -------------------------------------------------------------------------------
 ----                             MULTIGRID INFO                            ----
 -------------------------------------------------------------------------------
 count for grid        1:           6328          cutoff [a.u.]          500.00
 count for grid        2:          32564          cutoff [a.u.]          166.67
 count for grid        3:          19048          cutoff [a.u.]           55.56
 count for grid        4:          13280          cutoff [a.u.]           18.52
 total gridlevel count  :          71220

 -------------------------------------------------------------------------------
 -                                                                             -
 -                         MESSAGE PASSING PERFORMANCE                         -
 -                                                                             -
 -------------------------------------------------------------------------------

 ROUTINE             CALLS      AVE VOLUME [Bytes]
 MP_Group                6
 MP_Bcast           575167                    645.
 MP_Allreduce        29921                    779.
 MP_Sync                 4
 MP_Alltoall          1121               13499484.
 MP_SendRecv          1778                 771222.
 MP_ISendRecv         1743                 764646.
 MP_Wait            397091
 MP_comm_split           4
 MP_ISend           420044                   7078.
 MP_IRecv           671360                   4438.
 -------------------------------------------------------------------------------


 -------------------------------------------------------------------------------
 -                                                                             -
 -                           R E F E R E N C E S                               -
 -                                                                             -
 -------------------------------------------------------------------------------
 
 CP2K version 2025.1 (Development Version), the CP2K developers group (2025).
 CP2K is freely available from https://www.cp2k.org/ .
 
 T. D. Kuehne, M. Iannuzzi, M. Del Ben, V. V. Rybkin, P. Seewald, F. Stein, T. 
 Laino, R. Z. Khaliullin, O. Schuett, F. Schiffmann, D. Golze, J. Wilhelm, S. 
 Chulkov, M. H. Bani-Hashemian, V. Weber, U. Borstnik, M. Taillefumier, A. S. 
 Jakobovits, A. Lazzaro, H. Pabst, T. Mueller, R. Schade, M. Guidon, S. 
 Andermatt, N. Holmberg, G. K. Schenter, A. Hehn, A. Bussy, F. Belleflamme, G. 
 Tabacchi, A. Gloess, M. Lass, I. Bethune, C. J. Mundy, C. Plessl, M. Watkins, 
 J. VandeVondele, M. Krack, J. Hutter.
 J. Chem. Phys. 152, 194103 (2020).
 CP2K: An electronic structure and molecular dynamics software package - 
 Quickstep: Efficient and accurate electronic structure calculations.
 https://doi.org/10.1063/5.0007045

 O. Schuett, P. Messmer, J. Hutter, J. VandeVondele.
 Electronic Structure Calculations on Graphics Processing Units, 173-190 (2016).
 GPU-Accelerated Sparse Matrix-Matrix Multiplication for Linear Scaling Density 
 Functional Theory.
 https://doi.org/10.1002/9781118670712.ch8

 J. Hutter, M. Iannuzzi, F. Schiffmann, J. VandeVondele.
 WIREs Comput Mol Sci. 4, 15-25 (2014).
 CP2K: atomistic simulations of condensed matter systems.
 https://doi.org/10.1002/wcms.1159

 U. Borstnik, J. VandeVondele, V. Weber, J. Hutter.
 Parallel Comput. 40, 47-58 (2014).
 Sparse matrix multiplication: The distributed block-compressed sparse row 
 library.
 https://doi.org/10.1016/j.parco.2014.03.012

 J. VandeVondele, J. Hutter.
 J. Chem. Phys. 127, 114105 (2007).
 Gaussian basis sets for accurate calculations on molecular systems in gas and 
 condensed phases.
 https://doi.org/10.1063/1.2770708

 J. VandeVondele, M. Krack, F. Mohamed, M. Parrinello, T. Chassaing, J. Hutter.
 Comput. Phys. Commun. 167, 103-128 (2005).
 QUICKSTEP: Fast and accurate density functional calculations using a mixed 
 Gaussian and plane waves approach.
 https://doi.org/10.1016/j.cpc.2004.12.014

 M. Krack.
 Theor. Chem. Acc. 114, 145-152 (2005).
 Pseudopotentials for H to Kr optimized for gradient-corrected 
 exchange-correlation functionals.
 https://doi.org/10.1007/s00214-005-0655-y

 M. Frigo, S. G. Johnson.
 Proc. IEEE 93, 216-231 (2005).
 The design and implementation of FFTW3.
 https://doi.org/10.1109/JPROC.2004.840301

 C. Hartwigsen, S. Goedecker, J. Hutter.
 Phys. Rev. B 58, 3641-3662 (1998).
 Relativistic separable dual-space Gaussian pseudopotentials from H to Rn.
 https://doi.org/10.1103/PhysRevB.58.3641

 G. Lippert, J. Hutter, M. Parrinello.
 Mol. Phys. 92, 477-487 (1997).
 A hybrid Gaussian and plane wave density functional scheme.
 https://doi.org/10.1080/002689797170220

 S. Goedecker, M. Teter, J. Hutter.
 Phys. Rev. B 54, 1703-1710 (1996).
 Separable dual-space Gaussian pseudopotentials.
 https://doi.org/10.1103/PhysRevB.54.1703

 J. P. Perdew, K. Burke, M. Ernzerhof.
 Phys. Rev. Lett. 77, 3865-3868 (1996).
 Generalized gradient approximation made simple.
 https://doi.org/10.1103/PhysRevLett.77.3865


 -------------------------------------------------------------------------------
 -                                                                             -
 -                                T I M I N G                                  -
 -                                                                             -
 -------------------------------------------------------------------------------
 SUBROUTINE                       CALLS  ASD         SELF TIME        TOTAL TIME
                                MAXIMUM       AVERAGE  MAXIMUM  AVERAGE  MAXIMUM
 CP2K                                 1  1.0    0.009    0.013  168.154  168.155
 qs_energies                          1  2.0    0.024    0.182  167.802  167.892
 scf_env_do_scf                       1  3.0    0.000    0.000  165.974  165.975
 scf_env_do_scf_inner_loop           62  4.0    0.011    0.014  165.974  165.975
 do_general_diag_kp                  63  6.0    0.390    0.414  149.953  150.476
 qs_scf_new_mos_kp                   62  5.0    0.001    0.001  148.566  149.111
 dbcsr_complete_redistribute      96436  8.3    4.894    5.174   34.688   38.561
 kpoint_density_transform            62  7.0    0.129    0.139   36.035   36.294
 copy_dbcsr_to_fm                 64692  7.0    0.717    0.755   35.819   36.147
 dbcsr_desymmetrize_deep         128772  7.5    2.753    2.888   20.064   27.655
 cp_cfm_geeig                      2021  6.9    0.023    0.026   25.801   26.070
 rskp_transform                   32040  7.0   20.538   23.866   20.538   23.866
 cp_fm_start_copy_general         95824  7.3    4.185    4.871   22.835   23.091
 mp_alltoall_i22                 225208  8.8    8.862   20.224    8.862   20.224
 cp_cfm_heevd                      2021  7.9    0.004    0.004   19.136   19.311
 cp_cfm_heevd_base                 2021  8.9   19.132   19.307   19.132   19.307
 copy_fm_to_dbcsr                 31744  8.0    0.202    0.213   12.698   16.176
 mp_allgather_i                  191648  8.3   14.826   15.115   14.826   15.115
 mp_alltoall_d11v                675624  9.4   10.858   11.973   10.858   11.973
 transform_dmat                   15872  8.0   10.080   11.792   10.080   11.792
 dbcsr_finalize                  228404  8.8    1.174    1.266    8.733    9.071
 qs_ks_update_qs_env                 62  5.0    0.000    0.000    7.970    8.235
 rebuild_ks_matrix                   62  6.0    0.000    0.000    7.618    7.883
 qs_ks_build_kohn_sham_matrix        62  7.0    0.021    0.022    7.618    7.883
 hybrid_alltoall_any             128772  8.5    0.552    0.588    6.333    7.061
 mp_cart_sub                     129386  9.0    5.392    5.422    5.392    5.422
 dbcsr_merge_all                  96436 10.3    2.634    2.846    4.976    5.221
 fft_wrap_pw1pw2                   1121 10.0    0.015    0.019    5.039    5.076
 qs_rho_update_rho_low               63  5.0    0.000    0.000    4.821    4.823
 calculate_rho_elec                  63  6.0    0.141    0.143    4.821    4.823
 fft_wrap_pw1pw2_500                746 11.3    0.375    0.386    4.759    4.806
 mp_alltoall_i11v                418080  9.0    4.386    4.701    4.386    4.701
 cp_cfm_triangular_multiply        6063  7.9    4.359    4.437    4.359    4.437
 fft3d_ps                          1121 12.0    1.815    1.863    3.958    4.020
 cp_fm_finish_copy_general        39828  7.8    3.771    3.844    3.850    3.936
 qs_vxc_create                       62  8.0    0.001    0.001    3.667    3.679
 xc_vxc_pw_create                    62  9.0    0.143    0.146    3.666    3.678
 kpoint_density_matrices             62  7.0    0.077    0.079    3.490    3.595
 gspace_mixing                       61  5.0    0.131    0.133    3.493    3.493
 parallel_gemm_fm                  7936  8.0    0.009    0.009    3.322    3.424
 parallel_gemm_fm_gemm             7936  9.0    0.009    0.010    3.313    3.415
 cp_fm_gemm                        7936 10.0    3.304    3.406    3.304    3.406
 sum_up_and_integrate                62  8.0    0.001    0.001    3.123    3.389
 integrate_v_rspace                  62  9.0    0.021    0.031    3.115    3.381
 mp_cart_create                   64699  9.0    3.285    3.368    3.285    3.368
 broyden_mixing                      61  6.0    2.892    2.936    2.942    2.950
 density_rs2pw                       63  7.0    0.003    0.003    2.469    2.810
 mp_bcast_iv                     383320  8.3    2.348    2.675    2.348    2.675
 xc_pw_derive                       372 11.0    0.002    0.002    2.361    2.400
 grid_collocate_task_list            63  7.0    2.198    2.381    2.198    2.381
 dbcsr_work_create               225208  8.8    1.384    1.420    2.137    2.197
 dbcsr_create_new                342125  8.4    1.679    1.747    2.021    2.144
 mp_alltoall_z22v                  1121 14.0    1.873    2.027    1.873    2.027
 xc_rho_set_and_dset_create          62 10.0    0.078    0.081    1.977    1.993
 dbcsr_work_destroy_all          225208  9.8    1.064    1.082    1.736    1.760
 grid_integrate_task_list            62 10.0    1.477    1.732    1.477    1.732
 transfer_rs2pw                     254  8.0    0.003    0.003    1.375    1.725
 copy_fm_to_dbcsr_bc              31744  9.0    0.479    0.504    1.614    1.703
 copy_dbcsr_to_fm_bc              64692  8.0    0.848    0.867    1.617    1.634
 potential_pw2rs                     62 10.0    0.007    0.008    1.617    1.619
 xc_pw_divergence                    62 10.0    0.001    0.001    1.525    1.558
 dbcsr_iterator_start            639260  9.1    1.302    1.322    1.525    1.558
 tree_to_linear_d                 96436 11.3    1.459    1.508    1.459    1.508
 transfer_rs2pw_500                  65  9.0    0.463    0.497    1.125    1.492
 dbcsr_copy                       50869  8.1    0.154    0.161    1.303    1.434
 dbcsr_data_new                 2412676  9.8    1.355    1.415    1.355    1.415
 dbcsr_data_release             3309480 10.2    1.380    1.411    1.380    1.411
 x_to_yz                            620 13.2    0.163    0.180    1.232    1.291
 dbcsr_copy_into_existing         31897 10.0    0.928    1.054    1.116    1.244
 mp_waitall_1                    397091  8.3    0.785    1.173    0.785    1.173
 transfer_pw2rs                     249 11.0    0.002    0.002    1.144    1.145
 mp_sendrecv_dv                    1778 10.0    0.808    1.129    0.808    1.129
 cp_cfm_cholesky_decompose         2021  7.9    1.082    1.096    1.082    1.096
 cp_cfm_triangular_invert          2021  7.9    1.078    1.093    1.078    1.093
 dbcsr_destroy                   323153  8.4    0.543    0.559    1.038    1.090
 yz_to_x                            501 12.9    0.096    0.109    0.900    0.974
 dbcsr_iterator_stop             639260  9.1    0.794    0.806    0.936    0.947
 kpoint_set_mo_occupation            62  7.0    0.150    0.153    0.564    0.910
 transfer_pw2rs_500                  63 11.9    0.414    0.424    0.870    0.901
 write_kpoints_restart               62  5.0    0.003    0.007    0.899    0.900
 mp_bcast_im                     191648  8.3    0.713    0.816    0.713    0.816
 quick_finalize                  128772  9.5    0.429    0.449    0.749    0.764
 mp_sum_dm3                          62  8.0    0.414    0.761    0.414    0.761
 xc_functional_eval                  62 11.0    0.001    0.001    0.638    0.650
 pbe_lda_eval                        62 12.0    0.637    0.650    0.637    0.650
 mp_isend_dv                      96416  8.3    0.488    0.584    0.488    0.584
 mp_comm_free                    194119  9.0    0.527    0.575    0.527    0.575
 cp_fm_write_unformatted            612  6.0    0.183    0.496    0.249    0.537
 dbcsr_data_copy_aa2              96436 11.3    0.435    0.456    0.435    0.456
 pw_scatter_p                       620 12.2    0.411    0.429    0.411    0.429
 dbcsr_sort_indices              258397 11.0    0.376    0.395    0.376    0.395
 dbcsr_set                       180655  8.2    0.186    0.194    0.355    0.379
 cp_cfm_scale_and_add_fm           8084  6.9    0.363    0.373    0.363    0.373
 mp_send_dv                         612  7.0    0.062    0.361    0.062    0.361
 evaluate_core_matrix_traces         62  6.0    0.000    0.000    0.352    0.353
 calculate_ptrace_kp                124  7.0    0.015    0.015    0.351    0.353
 dbcsr_reserve_all_blocks         31744 10.0    0.055    0.061    0.327    0.350
 dbcsr_dot                        18973  8.0    0.163    0.177    0.338    0.341
 mp_isendrecv_dv                   1743 13.0    0.100    0.320    0.100    0.320
 dbcsr_reserve_blocks             33189 10.8    0.256    0.271    0.292    0.310
 pw_poisson_solve                    62  8.0    0.001    0.001    0.291    0.291
 dbcsr_make_index_exist          342125  9.4    0.213    0.257    0.213    0.257
 dbcsr_iterator_seek             639260 10.1    0.223    0.239    0.223    0.239
 transfer_pw2rs_170                  62 12.0    0.085    0.090    0.206    0.238
 mp_sum_d                         19891  8.8    0.177    0.236    0.177    0.236
 self_consistency_check              62  5.0    0.014    0.015    0.221    0.234
 mp_sum_dv                          357  3.7    0.098    0.232    0.098    0.232
 merge_index                      96436 11.3    0.199    0.215    0.199    0.215
 fft_wrap_pw1pw2_170                125 10.5    0.014    0.016    0.193    0.208
 transfer_rs2pw_170                  63  9.0    0.083    0.087    0.189    0.207
 cp_sm_mix                         9486  6.0    0.074    0.081    0.174    0.195
 pw_integral_ab_c1d_c1d_gs           62  9.0    0.187    0.189    0.191    0.193
 mp_irecv_iv                     383296  8.3    0.024    0.192    0.024    0.192
 dbcsr_zero                      180655  9.2    0.169    0.190    0.169    0.190
 restraint_control                    1  2.0    0.000    0.000    0.090    0.179
 mp_sum_i                             4  2.8    0.089    0.179    0.089    0.179
 pw_gather_p                        501 11.9    0.164    0.169    0.164    0.169
 cp_cfm_to_fm                      2021  6.9    0.156    0.162    0.156    0.162
 cp_fm_cleanup_copy_general       68048  7.0    0.104    0.106    0.156    0.160
 dbcsr_switch_data_area          128772 10.5    0.114    0.116    0.150    0.152
 init_scf_run                         1  3.0    0.000    0.000    0.140    0.142
 scf_env_initial_rho_setup            1  4.0    0.000    0.000    0.140    0.142
 mp_isend_iv                     215752  8.3    0.037    0.136    0.037    0.136
 pw_derive                          558 11.3    0.124    0.135    0.124    0.135
 cp_cfm_to_cfm_columns             2021  7.9    0.122    0.126    0.122    0.126
 pw_copy                            930 10.5    0.114    0.118    0.114    0.118
 mp_max_d                          9488  7.0    0.077    0.115    0.077    0.115
 dbcsr_get_data_size_used        225208  9.8    0.099    0.103    0.099    0.103
 qs_init_subsys                       1  2.0    0.001    0.001    0.101    0.101
 qs_env_setup                         1  3.0    0.000    0.000    0.098    0.099
 qs_env_rebuild_pw_env                2  3.5    0.000    0.000    0.097    0.098
 pw_env_rebuild                       1  5.0    0.000    0.000    0.097    0.098
 dbcsr_distribution_new           96438  8.6    0.087    0.097    0.087    0.097
 qs_energies_init_hamiltonians        1  3.0    0.000    0.000    0.094    0.094
 pw_grid_setup                        4  6.0    0.000    0.000    0.092    0.092
 pw_grid_setup_internal               4  7.0    0.002    0.003    0.092    0.092
 mp_irecv_im2                    191648  8.3    0.011    0.091    0.011    0.091
 cp_fm_to_fm_matrix                3968  8.0    0.087    0.088    0.087    0.088
 parser_read_line                  4959  4.1    0.002    0.002    0.083    0.085
 parser_read_line_low                23  6.2    0.008    0.031    0.082    0.084
 dbcsr_make_dbcsr_index          258397 11.0    0.079    0.081    0.079    0.081
 broadcast_input_information         23  7.2    0.026    0.029    0.074    0.079
 pw_copy_from_array                 620 12.2    0.056    0.073    0.056    0.073
 pw_poisson_set                      63  9.0    0.001    0.001    0.071    0.072
 pw_grid_sort                         4  8.0    0.042    0.043    0.065    0.066
 topology_control                     1  2.0    0.000    0.000    0.063    0.064
 mp_isend_im2                    107876  8.3    0.016    0.063    0.016    0.063
 mp_irecv_dv                      96416  8.3    0.057    0.062    0.057    0.062
 transfer_pw2rs_60                   62 12.0    0.017    0.018    0.052    0.058
 mp_sum_dm                           61  7.0    0.033    0.058    0.033    0.058
 fft_wrap_pw1pw2_60                 125 10.5    0.003    0.003    0.052    0.055
 scf_post_calculation_gpw             1  3.0    0.000    0.000    0.052    0.052
 write_available_results              1  4.0    0.000    0.000    0.052    0.052
 write_mo_free_results                1  5.0    0.003    0.003    0.052    0.052
 create_qs_kind_set                   1  2.0    0.000    0.000    0.051    0.051
 read_qs_kind                         1  3.0    0.025    0.026    0.051    0.051
 transfer_rs2pw_60                   63  9.0    0.013    0.014    0.045    0.051
 qs_env_update_s_mstruct              1  4.0    0.000    0.000    0.048    0.050
 cp_dbcsr_alloc_block_from_nbl     1445  5.7    0.023    0.027    0.044    0.050
 pw_axpy                            624  9.3    0.044    0.047    0.044    0.047
 pw_copy_to_array                   501 11.9    0.042    0.047    0.042    0.047
 build_core_hamiltonian_matrix        1  4.0    0.001    0.001    0.042    0.045
 read_cell_cif                        2  4.5    0.002    0.005    0.043    0.044
 cp_fm_create                       485  4.2    0.041    0.043    0.041    0.043
 calculate_rho_core                   1  5.0    0.003    0.004    0.039    0.043
 mixing_init                          1  5.0    0.040    0.043    0.042    0.043
 mp_recv_dv                        1836  7.0    0.005    0.041    0.005    0.041
 coordinate_control                   1  3.0    0.001    0.001    0.038    0.038
 coordinate_control_READ_COORDI       1  4.0    0.000    0.000    0.038    0.038
 read_coordinate_cif                  1  5.0    0.002    0.002    0.038    0.038
 mp_bcast_i_src                      92  8.2    0.029    0.034    0.029    0.034
 pw_zero                            311 10.4    0.024    0.029    0.024    0.029
 kpoint_initialize_mos                2  2.5    0.000    0.000    0.027    0.029
 calculate_hirshfeld_normalizat       1  6.0    0.007    0.008    0.025    0.026
 sort_shells                          4  9.0    0.023    0.023    0.023    0.023
 hirshfeld_integration                1  6.0    0.008    0.008    0.021    0.021
 fft_wrap_pw1pw2_20                 125 10.5    0.001    0.001    0.019    0.020
 mp_bcast_am_src                     23  8.2    0.014    0.014    0.018    0.020
 -------------------------------------------------------------------------------

 The number of warnings for this run is : 1
 
 -------------------------------------------------------------------------------
  **** **** ******  **  PROGRAM ENDED AT                 2025-08-05 00:21:23.711
 ***** ** ***  *** **   PROGRAM RAN ON                              i02r05c01s07
 **    ****   ******    PROGRAM RAN BY                                   di38fab
 ***** **    ** ** **   PROGRAM PROCESS ID                               1719637
  **** **  *******  **  PROGRAM STOPPED IN /hppfs/scratch/04/di38fab/09_GTH/Delt
                                           a_Set/Cl/aug-DZVP-MOLOPT-GTH-tier-1-S
                                           R/8x8x8
