 DBCSR| CPU Multiplication driver                                           BLAS (U)
 DBCSR| Multrec recursion limit                                              512 (U)
 DBCSR| Multiplication stack size                                           1000 (D)
 DBCSR| Maximum elements for images                                    UNLIMITED (U)
 DBCSR| Multiplicative factor virtual images                                   1 (U)
 DBCSR| Use multiplication densification                                       T (D)
 DBCSR| Multiplication size stacks                                             3 (U)
 DBCSR| Use memory pool for CPU allocation                                     F (U)
 DBCSR| Number of 3D layers                                               SINGLE (U)
 DBCSR| Use MPI memory allocation                                              F (U)
 DBCSR| Use RMA algorithm                                                      F (U)
 DBCSR| Use Communication thread                                               T (U)
 DBCSR| Communication thread load                                             45 (D)
 DBCSR| MPI: My process id                                                     0
 DBCSR| MPI: Number of processes                                              16
 DBCSR| OMP: Current number of threads                                        12
 DBCSR| OMP: Max number of threads                                            12
 DBCSR| Split modifier for TAS multiplication algorithm                  1.0E+00 (U)


  **** **** ******  **  PROGRAM STARTED AT               2025-08-05 19:44:33.319
 ***** ** ***  *** **   PROGRAM STARTED ON                          i06r03c03s05
 **    ****   ******    PROGRAM STARTED BY                               di38fab
 ***** **    ** ** **   PROGRAM PROCESS ID                                310471
  **** **  *******  **  PROGRAM STARTED IN /hppfs/scratch/04/di38fab/09_GTH/Delt
                                           a_Set/Br/aug-TZVP-MOLOPT-GTH-tier-2/1
                                           2x12x12

 CP2K| version string:                 CP2K version 2025.1 (Development Version)
 CP2K| source code revision number:                                  git:3130539
 CP2K| cp2kflags: omp libint fftw3 libxc parallel scalapack max_contr=4         
 CP2K| is freely available from                            https://www.cp2k.org/
 CP2K| Program compiled at                         Tue Jun  3 16:14:32 CEST 2025
 CP2K| Program compiled on                                               login01
 CP2K| Program compiled for                                        Supermuc-foss
 CP2K| Data directory path                  /hppfs/work/pn36zo/di38fab/cp2k/data
 CP2K| Input file name                                                    GW.inp

 GLOBAL| Force Environment number                                              1
 GLOBAL| Basis set file name            /hppfs/scratch/04/di38fab/09_GTH/BASIS_A
 GLOBAL| Potential file name            /hppfs/work/pn36zo/di38fab/cp2k/data/GTH
 GLOBAL| MM Potential file name                                     MM_POTENTIAL
 GLOBAL| Coordinate file name                                             Br.cif
 GLOBAL| Method name                                                        CP2K
 GLOBAL| Project name                                                       WSe2
 GLOBAL| Run type                                                         ENERGY
 GLOBAL| FFT library                                                       FFTW3
 GLOBAL| Diagonalization library                                       ScaLAPACK
 GLOBAL| Cholesky decomposition library                                ScaLAPACK
 GLOBAL| DGEMM library                                                      BLAS
 GLOBAL| Orthonormality check for eigenvectors                          DISABLED
 GLOBAL| Matrix multiplication library                                 ScaLAPACK
 GLOBAL| All-to-all communication in single precision                          F
 GLOBAL| FFTs using library dependent lengths                                  F
 GLOBAL| Grid backend                                                       AUTO
 GLOBAL| Global print level                                               MEDIUM
 GLOBAL| MPI I/O enabled                                                       T
 GLOBAL| Total number of message passing processes                            16
 GLOBAL| Number of threads for this process                                   12
 GLOBAL| This output is from process                                           0
 GLOBAL| OpenMP stack size per thread (OMP_STACKSIZE)                    default
 GLOBAL| CPU model name             Intel(R) Xeon(R) Platinum 8174 CPU @ 3.10GHz

 MEMORY| system memory details [Kb]
 MEMORY|                        rank 0           min           max       average
 MEMORY| MemTotal             98436660      98436660      98436664      98436663
 MEMORY| MemFree              84561852      84524560      84594404      84552722
 MEMORY| Buffers                     0             0             0             0
 MEMORY| Cached                2394572       2370344       2406612       2390476
 MEMORY| Slab                  1272812       1262632       1272812       1267973
 MEMORY| SReclaimable           282400        274496        282400        279208
 MEMORY| MemLikelyFree        87238824      87189432      87246232      87222406


 *** Fundamental physical constants (SI units) ***

 *** Literature: B. J. Mohr and B. N. Taylor,
 ***             CODATA recommended values of the fundamental physical
 ***             constants: 2006, Web Version 5.1
 ***             http://physics.nist.gov/constants

 Speed of light in vacuum [m/s]                             2.99792458000000E+08
 Magnetic constant or permeability of vacuum [N/A**2]       1.25663706143592E-06
 Electric constant or permittivity of vacuum [F/m]          8.85418781762039E-12
 Planck constant (h) [J*s]                                  6.62606896000000E-34
 Planck constant (h-bar) [J*s]                              1.05457162825177E-34
 Elementary charge [C]                                      1.60217648700000E-19
 Electron mass [kg]                                         9.10938215000000E-31
 Electron g factor [ ]                                     -2.00231930436220E+00
 Proton mass [kg]                                           1.67262163700000E-27
 Fine-structure constant                                    7.29735253760000E-03
 Rydberg constant [1/m]                                     1.09737315685270E+07
 Avogadro constant [1/mol]                                  6.02214179000000E+23
 Boltzmann constant [J/K]                                   1.38065040000000E-23
 Atomic mass unit [kg]                                      1.66053878200000E-27
 Bohr radius [m]                                            5.29177208590000E-11

 *** Conversion factors ***

 [u] -> [a.u.]                                              1.82288848426455E+03
 [Angstrom] -> [Bohr] = [a.u.]                              1.88972613288564E+00
 [a.u.] = [Bohr] -> [Angstrom]                              5.29177208590000E-01
 [a.u.] -> [s]                                              2.41888432650478E-17
 [a.u.] -> [fs]                                             2.41888432650478E-02
 [a.u.] -> [J]                                              4.35974393937059E-18
 [a.u.] -> [N]                                              8.23872205491840E-08
 [a.u.] -> [K]                                              3.15774647902944E+05
 [a.u.] -> [kJ/mol]                                         2.62549961709828E+03
 [a.u.] -> [kcal/mol]                                       6.27509468713739E+02
 [a.u.] -> [Pa]                                             2.94210107994716E+13
 [a.u.] -> [bar]                                            2.94210107994716E+08
 [a.u.] -> [atm]                                            2.90362800883016E+08
 [a.u.] -> [eV]                                             2.72113838565563E+01
 [a.u.] -> [Hz]                                             6.57968392072181E+15
 [a.u.] -> [1/cm] (wave numbers)                            2.19474631370540E+05
 [a.u./Bohr**2] -> [1/cm]                                   5.14048714338585E+03
 

 CELL_TOP| Volume [angstrom^3]:                                       314.219488
 CELL_TOP| Vector a [angstrom     8.229     0.000     0.000   |a| =     8.228600
 CELL_TOP| Vector b [angstrom     0.000     4.227     0.000   |b| =     4.227310
 CELL_TOP| Vector c [angstrom     0.000     0.000     9.033   |c| =     9.033230
 CELL_TOP| Angle (b,c), alpha [degree]:                                90.000000
 CELL_TOP| Angle (a,c), beta  [degree]:                                90.000000
 CELL_TOP| Angle (a,b), gamma [degree]:                                90.000000
 CELL_TOP| Numerically orthorhombic:                                         YES
 CELL_TOP| Periodicity                                                       XYZ

 CELL_CIF| Volume [angstrom^3]:                                       314.219488
 CELL_CIF| Vector a [angstrom     8.229     0.000     0.000   |a| =     8.228600
 CELL_CIF| Vector b [angstrom     0.000     4.227     0.000   |b| =     4.227310
 CELL_CIF| Vector c [angstrom     0.000     0.000     9.033   |c| =     9.033230
 CELL_CIF| Angle (b,c), alpha [degree]:                                90.000000
 CELL_CIF| Angle (a,c), beta  [degree]:                                90.000000
 CELL_CIF| Angle (a,b), gamma [degree]:                                90.000000
 CELL_CIF| Numerically orthorhombic:                                         YES
 CELL_CIF| Periodicity                                                       XYZ

 GENERATE|  Preliminary Number of Bonds generated:                             0
 GENERATE|  Achieved consistency in connectivity generation.

 CELL| Volume [angstrom^3]:                                           314.219488
 CELL| Vector a [angstrom]:       8.229     0.000     0.000   |a| =     8.228600
 CELL| Vector b [angstrom]:       0.000     4.227     0.000   |b| =     4.227310
 CELL| Vector c [angstrom]:       0.000     0.000     9.033   |c| =     9.033230
 CELL| Angle (b,c), alpha [degree]:                                    90.000000
 CELL| Angle (a,c), beta  [degree]:                                    90.000000
 CELL| Angle (a,b), gamma [degree]:                                    90.000000
 CELL| Numerically orthorhombic:                                             YES
 CELL| Periodicity                                                           XYZ

 CELL_REF| Volume [angstrom^3]:                                       314.219488
 CELL_REF| Vector a [angstrom     8.229     0.000     0.000   |a| =     8.228600
 CELL_REF| Vector b [angstrom     0.000     4.227     0.000   |b| =     4.227310
 CELL_REF| Vector c [angstrom     0.000     0.000     9.033   |c| =     9.033230
 CELL_REF| Angle (b,c), alpha [degree]:                                90.000000
 CELL_REF| Angle (a,c), beta  [degree]:                                90.000000
 CELL_REF| Angle (a,b), gamma [degree]:                                90.000000
 CELL_REF| Numerically orthorhombic:                                         YES
 CELL_REF| Periodicity                                                       XYZ

 *** WARNING in cryssym.F:180 :: Symmetry library SPGLIB not available ***


 *******************************************************************************
                                    Kpoints
 *******************************************************************************
 BRILLOUIN| K-point scheme                                        Monkhorst-Pack
 BRILLOUIN| K-Point grid                                            12   12   12
 BRILLOUIN| Accuracy in Symmetry determination                      0.100000E-05
 BRILLOUIN| K-Point point group symmetrization                               OFF
 BRILLOUIN| Wavefunction type                                            COMPLEX
 BRILLOUIN| List of Kpoints [2 Pi/Bohr]                                      864
 BRILLOUIN| Number           Weight            X              Y              Z
 BRILLOUIN|     1           0.00116       -0.45833       -0.45833       -0.45833
 BRILLOUIN|     2           0.00116       -0.45833       -0.45833       -0.37500
 BRILLOUIN|     3           0.00116       -0.45833       -0.45833       -0.29167
 BRILLOUIN|     4           0.00116       -0.45833       -0.45833       -0.20833
 BRILLOUIN|     5           0.00116       -0.45833       -0.45833       -0.12500
 BRILLOUIN|     6           0.00116       -0.45833       -0.45833       -0.04167
 BRILLOUIN|     7           0.00116       -0.45833       -0.45833        0.04167
 BRILLOUIN|     8           0.00116       -0.45833       -0.45833        0.12500
 BRILLOUIN|     9           0.00116       -0.45833       -0.45833        0.20833
 BRILLOUIN|    10           0.00116       -0.45833       -0.45833        0.29167
 BRILLOUIN|    11           0.00116       -0.45833       -0.45833        0.37500
 BRILLOUIN|    12           0.00116       -0.45833       -0.45833        0.45833
 BRILLOUIN|    13           0.00116       -0.45833       -0.37500       -0.45833
 BRILLOUIN|    14           0.00116       -0.45833       -0.37500       -0.37500
 BRILLOUIN|    15           0.00116       -0.45833       -0.37500       -0.29167
 BRILLOUIN|    16           0.00116       -0.45833       -0.37500       -0.20833
 BRILLOUIN|    17           0.00116       -0.45833       -0.37500       -0.12500
 BRILLOUIN|    18           0.00116       -0.45833       -0.37500       -0.04167
 BRILLOUIN|    19           0.00116       -0.45833       -0.37500        0.04167
 BRILLOUIN|    20           0.00116       -0.45833       -0.37500        0.12500
 BRILLOUIN|    21           0.00116       -0.45833       -0.37500        0.20833
 BRILLOUIN|    22           0.00116       -0.45833       -0.37500        0.29167
 BRILLOUIN|    23           0.00116       -0.45833       -0.37500        0.37500
 BRILLOUIN|    24           0.00116       -0.45833       -0.37500        0.45833
 BRILLOUIN|    25           0.00116       -0.45833       -0.29167       -0.45833
 BRILLOUIN|    26           0.00116       -0.45833       -0.29167       -0.37500
 BRILLOUIN|    27           0.00116       -0.45833       -0.29167       -0.29167
 BRILLOUIN|    28           0.00116       -0.45833       -0.29167       -0.20833
 BRILLOUIN|    29           0.00116       -0.45833       -0.29167       -0.12500
 BRILLOUIN|    30           0.00116       -0.45833       -0.29167       -0.04167
 BRILLOUIN|    31           0.00116       -0.45833       -0.29167        0.04167
 BRILLOUIN|    32           0.00116       -0.45833       -0.29167        0.12500
 BRILLOUIN|    33           0.00116       -0.45833       -0.29167        0.20833
 BRILLOUIN|    34           0.00116       -0.45833       -0.29167        0.29167
 BRILLOUIN|    35           0.00116       -0.45833       -0.29167        0.37500
 BRILLOUIN|    36           0.00116       -0.45833       -0.29167        0.45833
 BRILLOUIN|    37           0.00116       -0.45833       -0.20833       -0.45833
 BRILLOUIN|    38           0.00116       -0.45833       -0.20833       -0.37500
 BRILLOUIN|    39           0.00116       -0.45833       -0.20833       -0.29167
 BRILLOUIN|    40           0.00116       -0.45833       -0.20833       -0.20833
 BRILLOUIN|    41           0.00116       -0.45833       -0.20833       -0.12500
 BRILLOUIN|    42           0.00116       -0.45833       -0.20833       -0.04167
 BRILLOUIN|    43           0.00116       -0.45833       -0.20833        0.04167
 BRILLOUIN|    44           0.00116       -0.45833       -0.20833        0.12500
 BRILLOUIN|    45           0.00116       -0.45833       -0.20833        0.20833
 BRILLOUIN|    46           0.00116       -0.45833       -0.20833        0.29167
 BRILLOUIN|    47           0.00116       -0.45833       -0.20833        0.37500
 BRILLOUIN|    48           0.00116       -0.45833       -0.20833        0.45833
 BRILLOUIN|    49           0.00116       -0.45833       -0.12500       -0.45833
 BRILLOUIN|    50           0.00116       -0.45833       -0.12500       -0.37500
 BRILLOUIN|    51           0.00116       -0.45833       -0.12500       -0.29167
 BRILLOUIN|    52           0.00116       -0.45833       -0.12500       -0.20833
 BRILLOUIN|    53           0.00116       -0.45833       -0.12500       -0.12500
 BRILLOUIN|    54           0.00116       -0.45833       -0.12500       -0.04167
 BRILLOUIN|    55           0.00116       -0.45833       -0.12500        0.04167
 BRILLOUIN|    56           0.00116       -0.45833       -0.12500        0.12500
 BRILLOUIN|    57           0.00116       -0.45833       -0.12500        0.20833
 BRILLOUIN|    58           0.00116       -0.45833       -0.12500        0.29167
 BRILLOUIN|    59           0.00116       -0.45833       -0.12500        0.37500
 BRILLOUIN|    60           0.00116       -0.45833       -0.12500        0.45833
 BRILLOUIN|    61           0.00116       -0.45833       -0.04167       -0.45833
 BRILLOUIN|    62           0.00116       -0.45833       -0.04167       -0.37500
 BRILLOUIN|    63           0.00116       -0.45833       -0.04167       -0.29167
 BRILLOUIN|    64           0.00116       -0.45833       -0.04167       -0.20833
 BRILLOUIN|    65           0.00116       -0.45833       -0.04167       -0.12500
 BRILLOUIN|    66           0.00116       -0.45833       -0.04167       -0.04167
 BRILLOUIN|    67           0.00116       -0.45833       -0.04167        0.04167
 BRILLOUIN|    68           0.00116       -0.45833       -0.04167        0.12500
 BRILLOUIN|    69           0.00116       -0.45833       -0.04167        0.20833
 BRILLOUIN|    70           0.00116       -0.45833       -0.04167        0.29167
 BRILLOUIN|    71           0.00116       -0.45833       -0.04167        0.37500
 BRILLOUIN|    72           0.00116       -0.45833       -0.04167        0.45833
 BRILLOUIN|    73           0.00116       -0.45833        0.04167       -0.45833
 BRILLOUIN|    74           0.00116       -0.45833        0.04167       -0.37500
 BRILLOUIN|    75           0.00116       -0.45833        0.04167       -0.29167
 BRILLOUIN|    76           0.00116       -0.45833        0.04167       -0.20833
 BRILLOUIN|    77           0.00116       -0.45833        0.04167       -0.12500
 BRILLOUIN|    78           0.00116       -0.45833        0.04167       -0.04167
 BRILLOUIN|    79           0.00116       -0.45833        0.04167        0.04167
 BRILLOUIN|    80           0.00116       -0.45833        0.04167        0.12500
 BRILLOUIN|    81           0.00116       -0.45833        0.04167        0.20833
 BRILLOUIN|    82           0.00116       -0.45833        0.04167        0.29167
 BRILLOUIN|    83           0.00116       -0.45833        0.04167        0.37500
 BRILLOUIN|    84           0.00116       -0.45833        0.04167        0.45833
 BRILLOUIN|    85           0.00116       -0.45833        0.12500       -0.45833
 BRILLOUIN|    86           0.00116       -0.45833        0.12500       -0.37500
 BRILLOUIN|    87           0.00116       -0.45833        0.12500       -0.29167
 BRILLOUIN|    88           0.00116       -0.45833        0.12500       -0.20833
 BRILLOUIN|    89           0.00116       -0.45833        0.12500       -0.12500
 BRILLOUIN|    90           0.00116       -0.45833        0.12500       -0.04167
 BRILLOUIN|    91           0.00116       -0.45833        0.12500        0.04167
 BRILLOUIN|    92           0.00116       -0.45833        0.12500        0.12500
 BRILLOUIN|    93           0.00116       -0.45833        0.12500        0.20833
 BRILLOUIN|    94           0.00116       -0.45833        0.12500        0.29167
 BRILLOUIN|    95           0.00116       -0.45833        0.12500        0.37500
 BRILLOUIN|    96           0.00116       -0.45833        0.12500        0.45833
 BRILLOUIN|    97           0.00116       -0.45833        0.20833       -0.45833
 BRILLOUIN|    98           0.00116       -0.45833        0.20833       -0.37500
 BRILLOUIN|    99           0.00116       -0.45833        0.20833       -0.29167
 BRILLOUIN|   100           0.00116       -0.45833        0.20833       -0.20833
 BRILLOUIN|   101           0.00116       -0.45833        0.20833       -0.12500
 BRILLOUIN|   102           0.00116       -0.45833        0.20833       -0.04167
 BRILLOUIN|   103           0.00116       -0.45833        0.20833        0.04167
 BRILLOUIN|   104           0.00116       -0.45833        0.20833        0.12500
 BRILLOUIN|   105           0.00116       -0.45833        0.20833        0.20833
 BRILLOUIN|   106           0.00116       -0.45833        0.20833        0.29167
 BRILLOUIN|   107           0.00116       -0.45833        0.20833        0.37500
 BRILLOUIN|   108           0.00116       -0.45833        0.20833        0.45833
 BRILLOUIN|   109           0.00116       -0.45833        0.29167       -0.45833
 BRILLOUIN|   110           0.00116       -0.45833        0.29167       -0.37500
 BRILLOUIN|   111           0.00116       -0.45833        0.29167       -0.29167
 BRILLOUIN|   112           0.00116       -0.45833        0.29167       -0.20833
 BRILLOUIN|   113           0.00116       -0.45833        0.29167       -0.12500
 BRILLOUIN|   114           0.00116       -0.45833        0.29167       -0.04167
 BRILLOUIN|   115           0.00116       -0.45833        0.29167        0.04167
 BRILLOUIN|   116           0.00116       -0.45833        0.29167        0.12500
 BRILLOUIN|   117           0.00116       -0.45833        0.29167        0.20833
 BRILLOUIN|   118           0.00116       -0.45833        0.29167        0.29167
 BRILLOUIN|   119           0.00116       -0.45833        0.29167        0.37500
 BRILLOUIN|   120           0.00116       -0.45833        0.29167        0.45833
 BRILLOUIN|   121           0.00116       -0.45833        0.37500       -0.45833
 BRILLOUIN|   122           0.00116       -0.45833        0.37500       -0.37500
 BRILLOUIN|   123           0.00116       -0.45833        0.37500       -0.29167
 BRILLOUIN|   124           0.00116       -0.45833        0.37500       -0.20833
 BRILLOUIN|   125           0.00116       -0.45833        0.37500       -0.12500
 BRILLOUIN|   126           0.00116       -0.45833        0.37500       -0.04167
 BRILLOUIN|   127           0.00116       -0.45833        0.37500        0.04167
 BRILLOUIN|   128           0.00116       -0.45833        0.37500        0.12500
 BRILLOUIN|   129           0.00116       -0.45833        0.37500        0.20833
 BRILLOUIN|   130           0.00116       -0.45833        0.37500        0.29167
 BRILLOUIN|   131           0.00116       -0.45833        0.37500        0.37500
 BRILLOUIN|   132           0.00116       -0.45833        0.37500        0.45833
 BRILLOUIN|   133           0.00116       -0.45833        0.45833       -0.45833
 BRILLOUIN|   134           0.00116       -0.45833        0.45833       -0.37500
 BRILLOUIN|   135           0.00116       -0.45833        0.45833       -0.29167
 BRILLOUIN|   136           0.00116       -0.45833        0.45833       -0.20833
 BRILLOUIN|   137           0.00116       -0.45833        0.45833       -0.12500
 BRILLOUIN|   138           0.00116       -0.45833        0.45833       -0.04167
 BRILLOUIN|   139           0.00116       -0.45833        0.45833        0.04167
 BRILLOUIN|   140           0.00116       -0.45833        0.45833        0.12500
 BRILLOUIN|   141           0.00116       -0.45833        0.45833        0.20833
 BRILLOUIN|   142           0.00116       -0.45833        0.45833        0.29167
 BRILLOUIN|   143           0.00116       -0.45833        0.45833        0.37500
 BRILLOUIN|   144           0.00116       -0.45833        0.45833        0.45833
 BRILLOUIN|   145           0.00116       -0.37500       -0.45833       -0.45833
 BRILLOUIN|   146           0.00116       -0.37500       -0.45833       -0.37500
 BRILLOUIN|   147           0.00116       -0.37500       -0.45833       -0.29167
 BRILLOUIN|   148           0.00116       -0.37500       -0.45833       -0.20833
 BRILLOUIN|   149           0.00116       -0.37500       -0.45833       -0.12500
 BRILLOUIN|   150           0.00116       -0.37500       -0.45833       -0.04167
 BRILLOUIN|   151           0.00116       -0.37500       -0.45833        0.04167
 BRILLOUIN|   152           0.00116       -0.37500       -0.45833        0.12500
 BRILLOUIN|   153           0.00116       -0.37500       -0.45833        0.20833
 BRILLOUIN|   154           0.00116       -0.37500       -0.45833        0.29167
 BRILLOUIN|   155           0.00116       -0.37500       -0.45833        0.37500
 BRILLOUIN|   156           0.00116       -0.37500       -0.45833        0.45833
 BRILLOUIN|   157           0.00116       -0.37500       -0.37500       -0.45833
 BRILLOUIN|   158           0.00116       -0.37500       -0.37500       -0.37500
 BRILLOUIN|   159           0.00116       -0.37500       -0.37500       -0.29167
 BRILLOUIN|   160           0.00116       -0.37500       -0.37500       -0.20833
 BRILLOUIN|   161           0.00116       -0.37500       -0.37500       -0.12500
 BRILLOUIN|   162           0.00116       -0.37500       -0.37500       -0.04167
 BRILLOUIN|   163           0.00116       -0.37500       -0.37500        0.04167
 BRILLOUIN|   164           0.00116       -0.37500       -0.37500        0.12500
 BRILLOUIN|   165           0.00116       -0.37500       -0.37500        0.20833
 BRILLOUIN|   166           0.00116       -0.37500       -0.37500        0.29167
 BRILLOUIN|   167           0.00116       -0.37500       -0.37500        0.37500
 BRILLOUIN|   168           0.00116       -0.37500       -0.37500        0.45833
 BRILLOUIN|   169           0.00116       -0.37500       -0.29167       -0.45833
 BRILLOUIN|   170           0.00116       -0.37500       -0.29167       -0.37500
 BRILLOUIN|   171           0.00116       -0.37500       -0.29167       -0.29167
 BRILLOUIN|   172           0.00116       -0.37500       -0.29167       -0.20833
 BRILLOUIN|   173           0.00116       -0.37500       -0.29167       -0.12500
 BRILLOUIN|   174           0.00116       -0.37500       -0.29167       -0.04167
 BRILLOUIN|   175           0.00116       -0.37500       -0.29167        0.04167
 BRILLOUIN|   176           0.00116       -0.37500       -0.29167        0.12500
 BRILLOUIN|   177           0.00116       -0.37500       -0.29167        0.20833
 BRILLOUIN|   178           0.00116       -0.37500       -0.29167        0.29167
 BRILLOUIN|   179           0.00116       -0.37500       -0.29167        0.37500
 BRILLOUIN|   180           0.00116       -0.37500       -0.29167        0.45833
 BRILLOUIN|   181           0.00116       -0.37500       -0.20833       -0.45833
 BRILLOUIN|   182           0.00116       -0.37500       -0.20833       -0.37500
 BRILLOUIN|   183           0.00116       -0.37500       -0.20833       -0.29167
 BRILLOUIN|   184           0.00116       -0.37500       -0.20833       -0.20833
 BRILLOUIN|   185           0.00116       -0.37500       -0.20833       -0.12500
 BRILLOUIN|   186           0.00116       -0.37500       -0.20833       -0.04167
 BRILLOUIN|   187           0.00116       -0.37500       -0.20833        0.04167
 BRILLOUIN|   188           0.00116       -0.37500       -0.20833        0.12500
 BRILLOUIN|   189           0.00116       -0.37500       -0.20833        0.20833
 BRILLOUIN|   190           0.00116       -0.37500       -0.20833        0.29167
 BRILLOUIN|   191           0.00116       -0.37500       -0.20833        0.37500
 BRILLOUIN|   192           0.00116       -0.37500       -0.20833        0.45833
 BRILLOUIN|   193           0.00116       -0.37500       -0.12500       -0.45833
 BRILLOUIN|   194           0.00116       -0.37500       -0.12500       -0.37500
 BRILLOUIN|   195           0.00116       -0.37500       -0.12500       -0.29167
 BRILLOUIN|   196           0.00116       -0.37500       -0.12500       -0.20833
 BRILLOUIN|   197           0.00116       -0.37500       -0.12500       -0.12500
 BRILLOUIN|   198           0.00116       -0.37500       -0.12500       -0.04167
 BRILLOUIN|   199           0.00116       -0.37500       -0.12500        0.04167
 BRILLOUIN|   200           0.00116       -0.37500       -0.12500        0.12500
 BRILLOUIN|   201           0.00116       -0.37500       -0.12500        0.20833
 BRILLOUIN|   202           0.00116       -0.37500       -0.12500        0.29167
 BRILLOUIN|   203           0.00116       -0.37500       -0.12500        0.37500
 BRILLOUIN|   204           0.00116       -0.37500       -0.12500        0.45833
 BRILLOUIN|   205           0.00116       -0.37500       -0.04167       -0.45833
 BRILLOUIN|   206           0.00116       -0.37500       -0.04167       -0.37500
 BRILLOUIN|   207           0.00116       -0.37500       -0.04167       -0.29167
 BRILLOUIN|   208           0.00116       -0.37500       -0.04167       -0.20833
 BRILLOUIN|   209           0.00116       -0.37500       -0.04167       -0.12500
 BRILLOUIN|   210           0.00116       -0.37500       -0.04167       -0.04167
 BRILLOUIN|   211           0.00116       -0.37500       -0.04167        0.04167
 BRILLOUIN|   212           0.00116       -0.37500       -0.04167        0.12500
 BRILLOUIN|   213           0.00116       -0.37500       -0.04167        0.20833
 BRILLOUIN|   214           0.00116       -0.37500       -0.04167        0.29167
 BRILLOUIN|   215           0.00116       -0.37500       -0.04167        0.37500
 BRILLOUIN|   216           0.00116       -0.37500       -0.04167        0.45833
 BRILLOUIN|   217           0.00116       -0.37500        0.04167       -0.45833
 BRILLOUIN|   218           0.00116       -0.37500        0.04167       -0.37500
 BRILLOUIN|   219           0.00116       -0.37500        0.04167       -0.29167
 BRILLOUIN|   220           0.00116       -0.37500        0.04167       -0.20833
 BRILLOUIN|   221           0.00116       -0.37500        0.04167       -0.12500
 BRILLOUIN|   222           0.00116       -0.37500        0.04167       -0.04167
 BRILLOUIN|   223           0.00116       -0.37500        0.04167        0.04167
 BRILLOUIN|   224           0.00116       -0.37500        0.04167        0.12500
 BRILLOUIN|   225           0.00116       -0.37500        0.04167        0.20833
 BRILLOUIN|   226           0.00116       -0.37500        0.04167        0.29167
 BRILLOUIN|   227           0.00116       -0.37500        0.04167        0.37500
 BRILLOUIN|   228           0.00116       -0.37500        0.04167        0.45833
 BRILLOUIN|   229           0.00116       -0.37500        0.12500       -0.45833
 BRILLOUIN|   230           0.00116       -0.37500        0.12500       -0.37500
 BRILLOUIN|   231           0.00116       -0.37500        0.12500       -0.29167
 BRILLOUIN|   232           0.00116       -0.37500        0.12500       -0.20833
 BRILLOUIN|   233           0.00116       -0.37500        0.12500       -0.12500
 BRILLOUIN|   234           0.00116       -0.37500        0.12500       -0.04167
 BRILLOUIN|   235           0.00116       -0.37500        0.12500        0.04167
 BRILLOUIN|   236           0.00116       -0.37500        0.12500        0.12500
 BRILLOUIN|   237           0.00116       -0.37500        0.12500        0.20833
 BRILLOUIN|   238           0.00116       -0.37500        0.12500        0.29167
 BRILLOUIN|   239           0.00116       -0.37500        0.12500        0.37500
 BRILLOUIN|   240           0.00116       -0.37500        0.12500        0.45833
 BRILLOUIN|   241           0.00116       -0.37500        0.20833       -0.45833
 BRILLOUIN|   242           0.00116       -0.37500        0.20833       -0.37500
 BRILLOUIN|   243           0.00116       -0.37500        0.20833       -0.29167
 BRILLOUIN|   244           0.00116       -0.37500        0.20833       -0.20833
 BRILLOUIN|   245           0.00116       -0.37500        0.20833       -0.12500
 BRILLOUIN|   246           0.00116       -0.37500        0.20833       -0.04167
 BRILLOUIN|   247           0.00116       -0.37500        0.20833        0.04167
 BRILLOUIN|   248           0.00116       -0.37500        0.20833        0.12500
 BRILLOUIN|   249           0.00116       -0.37500        0.20833        0.20833
 BRILLOUIN|   250           0.00116       -0.37500        0.20833        0.29167
 BRILLOUIN|   251           0.00116       -0.37500        0.20833        0.37500
 BRILLOUIN|   252           0.00116       -0.37500        0.20833        0.45833
 BRILLOUIN|   253           0.00116       -0.37500        0.29167       -0.45833
 BRILLOUIN|   254           0.00116       -0.37500        0.29167       -0.37500
 BRILLOUIN|   255           0.00116       -0.37500        0.29167       -0.29167
 BRILLOUIN|   256           0.00116       -0.37500        0.29167       -0.20833
 BRILLOUIN|   257           0.00116       -0.37500        0.29167       -0.12500
 BRILLOUIN|   258           0.00116       -0.37500        0.29167       -0.04167
 BRILLOUIN|   259           0.00116       -0.37500        0.29167        0.04167
 BRILLOUIN|   260           0.00116       -0.37500        0.29167        0.12500
 BRILLOUIN|   261           0.00116       -0.37500        0.29167        0.20833
 BRILLOUIN|   262           0.00116       -0.37500        0.29167        0.29167
 BRILLOUIN|   263           0.00116       -0.37500        0.29167        0.37500
 BRILLOUIN|   264           0.00116       -0.37500        0.29167        0.45833
 BRILLOUIN|   265           0.00116       -0.37500        0.37500       -0.45833
 BRILLOUIN|   266           0.00116       -0.37500        0.37500       -0.37500
 BRILLOUIN|   267           0.00116       -0.37500        0.37500       -0.29167
 BRILLOUIN|   268           0.00116       -0.37500        0.37500       -0.20833
 BRILLOUIN|   269           0.00116       -0.37500        0.37500       -0.12500
 BRILLOUIN|   270           0.00116       -0.37500        0.37500       -0.04167
 BRILLOUIN|   271           0.00116       -0.37500        0.37500        0.04167
 BRILLOUIN|   272           0.00116       -0.37500        0.37500        0.12500
 BRILLOUIN|   273           0.00116       -0.37500        0.37500        0.20833
 BRILLOUIN|   274           0.00116       -0.37500        0.37500        0.29167
 BRILLOUIN|   275           0.00116       -0.37500        0.37500        0.37500
 BRILLOUIN|   276           0.00116       -0.37500        0.37500        0.45833
 BRILLOUIN|   277           0.00116       -0.37500        0.45833       -0.45833
 BRILLOUIN|   278           0.00116       -0.37500        0.45833       -0.37500
 BRILLOUIN|   279           0.00116       -0.37500        0.45833       -0.29167
 BRILLOUIN|   280           0.00116       -0.37500        0.45833       -0.20833
 BRILLOUIN|   281           0.00116       -0.37500        0.45833       -0.12500
 BRILLOUIN|   282           0.00116       -0.37500        0.45833       -0.04167
 BRILLOUIN|   283           0.00116       -0.37500        0.45833        0.04167
 BRILLOUIN|   284           0.00116       -0.37500        0.45833        0.12500
 BRILLOUIN|   285           0.00116       -0.37500        0.45833        0.20833
 BRILLOUIN|   286           0.00116       -0.37500        0.45833        0.29167
 BRILLOUIN|   287           0.00116       -0.37500        0.45833        0.37500
 BRILLOUIN|   288           0.00116       -0.37500        0.45833        0.45833
 BRILLOUIN|   289           0.00116       -0.29167       -0.45833       -0.45833
 BRILLOUIN|   290           0.00116       -0.29167       -0.45833       -0.37500
 BRILLOUIN|   291           0.00116       -0.29167       -0.45833       -0.29167
 BRILLOUIN|   292           0.00116       -0.29167       -0.45833       -0.20833
 BRILLOUIN|   293           0.00116       -0.29167       -0.45833       -0.12500
 BRILLOUIN|   294           0.00116       -0.29167       -0.45833       -0.04167
 BRILLOUIN|   295           0.00116       -0.29167       -0.45833        0.04167
 BRILLOUIN|   296           0.00116       -0.29167       -0.45833        0.12500
 BRILLOUIN|   297           0.00116       -0.29167       -0.45833        0.20833
 BRILLOUIN|   298           0.00116       -0.29167       -0.45833        0.29167
 BRILLOUIN|   299           0.00116       -0.29167       -0.45833        0.37500
 BRILLOUIN|   300           0.00116       -0.29167       -0.45833        0.45833
 BRILLOUIN|   301           0.00116       -0.29167       -0.37500       -0.45833
 BRILLOUIN|   302           0.00116       -0.29167       -0.37500       -0.37500
 BRILLOUIN|   303           0.00116       -0.29167       -0.37500       -0.29167
 BRILLOUIN|   304           0.00116       -0.29167       -0.37500       -0.20833
 BRILLOUIN|   305           0.00116       -0.29167       -0.37500       -0.12500
 BRILLOUIN|   306           0.00116       -0.29167       -0.37500       -0.04167
 BRILLOUIN|   307           0.00116       -0.29167       -0.37500        0.04167
 BRILLOUIN|   308           0.00116       -0.29167       -0.37500        0.12500
 BRILLOUIN|   309           0.00116       -0.29167       -0.37500        0.20833
 BRILLOUIN|   310           0.00116       -0.29167       -0.37500        0.29167
 BRILLOUIN|   311           0.00116       -0.29167       -0.37500        0.37500
 BRILLOUIN|   312           0.00116       -0.29167       -0.37500        0.45833
 BRILLOUIN|   313           0.00116       -0.29167       -0.29167       -0.45833
 BRILLOUIN|   314           0.00116       -0.29167       -0.29167       -0.37500
 BRILLOUIN|   315           0.00116       -0.29167       -0.29167       -0.29167
 BRILLOUIN|   316           0.00116       -0.29167       -0.29167       -0.20833
 BRILLOUIN|   317           0.00116       -0.29167       -0.29167       -0.12500
 BRILLOUIN|   318           0.00116       -0.29167       -0.29167       -0.04167
 BRILLOUIN|   319           0.00116       -0.29167       -0.29167        0.04167
 BRILLOUIN|   320           0.00116       -0.29167       -0.29167        0.12500
 BRILLOUIN|   321           0.00116       -0.29167       -0.29167        0.20833
 BRILLOUIN|   322           0.00116       -0.29167       -0.29167        0.29167
 BRILLOUIN|   323           0.00116       -0.29167       -0.29167        0.37500
 BRILLOUIN|   324           0.00116       -0.29167       -0.29167        0.45833
 BRILLOUIN|   325           0.00116       -0.29167       -0.20833       -0.45833
 BRILLOUIN|   326           0.00116       -0.29167       -0.20833       -0.37500
 BRILLOUIN|   327           0.00116       -0.29167       -0.20833       -0.29167
 BRILLOUIN|   328           0.00116       -0.29167       -0.20833       -0.20833
 BRILLOUIN|   329           0.00116       -0.29167       -0.20833       -0.12500
 BRILLOUIN|   330           0.00116       -0.29167       -0.20833       -0.04167
 BRILLOUIN|   331           0.00116       -0.29167       -0.20833        0.04167
 BRILLOUIN|   332           0.00116       -0.29167       -0.20833        0.12500
 BRILLOUIN|   333           0.00116       -0.29167       -0.20833        0.20833
 BRILLOUIN|   334           0.00116       -0.29167       -0.20833        0.29167
 BRILLOUIN|   335           0.00116       -0.29167       -0.20833        0.37500
 BRILLOUIN|   336           0.00116       -0.29167       -0.20833        0.45833
 BRILLOUIN|   337           0.00116       -0.29167       -0.12500       -0.45833
 BRILLOUIN|   338           0.00116       -0.29167       -0.12500       -0.37500
 BRILLOUIN|   339           0.00116       -0.29167       -0.12500       -0.29167
 BRILLOUIN|   340           0.00116       -0.29167       -0.12500       -0.20833
 BRILLOUIN|   341           0.00116       -0.29167       -0.12500       -0.12500
 BRILLOUIN|   342           0.00116       -0.29167       -0.12500       -0.04167
 BRILLOUIN|   343           0.00116       -0.29167       -0.12500        0.04167
 BRILLOUIN|   344           0.00116       -0.29167       -0.12500        0.12500
 BRILLOUIN|   345           0.00116       -0.29167       -0.12500        0.20833
 BRILLOUIN|   346           0.00116       -0.29167       -0.12500        0.29167
 BRILLOUIN|   347           0.00116       -0.29167       -0.12500        0.37500
 BRILLOUIN|   348           0.00116       -0.29167       -0.12500        0.45833
 BRILLOUIN|   349           0.00116       -0.29167       -0.04167       -0.45833
 BRILLOUIN|   350           0.00116       -0.29167       -0.04167       -0.37500
 BRILLOUIN|   351           0.00116       -0.29167       -0.04167       -0.29167
 BRILLOUIN|   352           0.00116       -0.29167       -0.04167       -0.20833
 BRILLOUIN|   353           0.00116       -0.29167       -0.04167       -0.12500
 BRILLOUIN|   354           0.00116       -0.29167       -0.04167       -0.04167
 BRILLOUIN|   355           0.00116       -0.29167       -0.04167        0.04167
 BRILLOUIN|   356           0.00116       -0.29167       -0.04167        0.12500
 BRILLOUIN|   357           0.00116       -0.29167       -0.04167        0.20833
 BRILLOUIN|   358           0.00116       -0.29167       -0.04167        0.29167
 BRILLOUIN|   359           0.00116       -0.29167       -0.04167        0.37500
 BRILLOUIN|   360           0.00116       -0.29167       -0.04167        0.45833
 BRILLOUIN|   361           0.00116       -0.29167        0.04167       -0.45833
 BRILLOUIN|   362           0.00116       -0.29167        0.04167       -0.37500
 BRILLOUIN|   363           0.00116       -0.29167        0.04167       -0.29167
 BRILLOUIN|   364           0.00116       -0.29167        0.04167       -0.20833
 BRILLOUIN|   365           0.00116       -0.29167        0.04167       -0.12500
 BRILLOUIN|   366           0.00116       -0.29167        0.04167       -0.04167
 BRILLOUIN|   367           0.00116       -0.29167        0.04167        0.04167
 BRILLOUIN|   368           0.00116       -0.29167        0.04167        0.12500
 BRILLOUIN|   369           0.00116       -0.29167        0.04167        0.20833
 BRILLOUIN|   370           0.00116       -0.29167        0.04167        0.29167
 BRILLOUIN|   371           0.00116       -0.29167        0.04167        0.37500
 BRILLOUIN|   372           0.00116       -0.29167        0.04167        0.45833
 BRILLOUIN|   373           0.00116       -0.29167        0.12500       -0.45833
 BRILLOUIN|   374           0.00116       -0.29167        0.12500       -0.37500
 BRILLOUIN|   375           0.00116       -0.29167        0.12500       -0.29167
 BRILLOUIN|   376           0.00116       -0.29167        0.12500       -0.20833
 BRILLOUIN|   377           0.00116       -0.29167        0.12500       -0.12500
 BRILLOUIN|   378           0.00116       -0.29167        0.12500       -0.04167
 BRILLOUIN|   379           0.00116       -0.29167        0.12500        0.04167
 BRILLOUIN|   380           0.00116       -0.29167        0.12500        0.12500
 BRILLOUIN|   381           0.00116       -0.29167        0.12500        0.20833
 BRILLOUIN|   382           0.00116       -0.29167        0.12500        0.29167
 BRILLOUIN|   383           0.00116       -0.29167        0.12500        0.37500
 BRILLOUIN|   384           0.00116       -0.29167        0.12500        0.45833
 BRILLOUIN|   385           0.00116       -0.29167        0.20833       -0.45833
 BRILLOUIN|   386           0.00116       -0.29167        0.20833       -0.37500
 BRILLOUIN|   387           0.00116       -0.29167        0.20833       -0.29167
 BRILLOUIN|   388           0.00116       -0.29167        0.20833       -0.20833
 BRILLOUIN|   389           0.00116       -0.29167        0.20833       -0.12500
 BRILLOUIN|   390           0.00116       -0.29167        0.20833       -0.04167
 BRILLOUIN|   391           0.00116       -0.29167        0.20833        0.04167
 BRILLOUIN|   392           0.00116       -0.29167        0.20833        0.12500
 BRILLOUIN|   393           0.00116       -0.29167        0.20833        0.20833
 BRILLOUIN|   394           0.00116       -0.29167        0.20833        0.29167
 BRILLOUIN|   395           0.00116       -0.29167        0.20833        0.37500
 BRILLOUIN|   396           0.00116       -0.29167        0.20833        0.45833
 BRILLOUIN|   397           0.00116       -0.29167        0.29167       -0.45833
 BRILLOUIN|   398           0.00116       -0.29167        0.29167       -0.37500
 BRILLOUIN|   399           0.00116       -0.29167        0.29167       -0.29167
 BRILLOUIN|   400           0.00116       -0.29167        0.29167       -0.20833
 BRILLOUIN|   401           0.00116       -0.29167        0.29167       -0.12500
 BRILLOUIN|   402           0.00116       -0.29167        0.29167       -0.04167
 BRILLOUIN|   403           0.00116       -0.29167        0.29167        0.04167
 BRILLOUIN|   404           0.00116       -0.29167        0.29167        0.12500
 BRILLOUIN|   405           0.00116       -0.29167        0.29167        0.20833
 BRILLOUIN|   406           0.00116       -0.29167        0.29167        0.29167
 BRILLOUIN|   407           0.00116       -0.29167        0.29167        0.37500
 BRILLOUIN|   408           0.00116       -0.29167        0.29167        0.45833
 BRILLOUIN|   409           0.00116       -0.29167        0.37500       -0.45833
 BRILLOUIN|   410           0.00116       -0.29167        0.37500       -0.37500
 BRILLOUIN|   411           0.00116       -0.29167        0.37500       -0.29167
 BRILLOUIN|   412           0.00116       -0.29167        0.37500       -0.20833
 BRILLOUIN|   413           0.00116       -0.29167        0.37500       -0.12500
 BRILLOUIN|   414           0.00116       -0.29167        0.37500       -0.04167
 BRILLOUIN|   415           0.00116       -0.29167        0.37500        0.04167
 BRILLOUIN|   416           0.00116       -0.29167        0.37500        0.12500
 BRILLOUIN|   417           0.00116       -0.29167        0.37500        0.20833
 BRILLOUIN|   418           0.00116       -0.29167        0.37500        0.29167
 BRILLOUIN|   419           0.00116       -0.29167        0.37500        0.37500
 BRILLOUIN|   420           0.00116       -0.29167        0.37500        0.45833
 BRILLOUIN|   421           0.00116       -0.29167        0.45833       -0.45833
 BRILLOUIN|   422           0.00116       -0.29167        0.45833       -0.37500
 BRILLOUIN|   423           0.00116       -0.29167        0.45833       -0.29167
 BRILLOUIN|   424           0.00116       -0.29167        0.45833       -0.20833
 BRILLOUIN|   425           0.00116       -0.29167        0.45833       -0.12500
 BRILLOUIN|   426           0.00116       -0.29167        0.45833       -0.04167
 BRILLOUIN|   427           0.00116       -0.29167        0.45833        0.04167
 BRILLOUIN|   428           0.00116       -0.29167        0.45833        0.12500
 BRILLOUIN|   429           0.00116       -0.29167        0.45833        0.20833
 BRILLOUIN|   430           0.00116       -0.29167        0.45833        0.29167
 BRILLOUIN|   431           0.00116       -0.29167        0.45833        0.37500
 BRILLOUIN|   432           0.00116       -0.29167        0.45833        0.45833
 BRILLOUIN|   433           0.00116       -0.20833       -0.45833       -0.45833
 BRILLOUIN|   434           0.00116       -0.20833       -0.45833       -0.37500
 BRILLOUIN|   435           0.00116       -0.20833       -0.45833       -0.29167
 BRILLOUIN|   436           0.00116       -0.20833       -0.45833       -0.20833
 BRILLOUIN|   437           0.00116       -0.20833       -0.45833       -0.12500
 BRILLOUIN|   438           0.00116       -0.20833       -0.45833       -0.04167
 BRILLOUIN|   439           0.00116       -0.20833       -0.45833        0.04167
 BRILLOUIN|   440           0.00116       -0.20833       -0.45833        0.12500
 BRILLOUIN|   441           0.00116       -0.20833       -0.45833        0.20833
 BRILLOUIN|   442           0.00116       -0.20833       -0.45833        0.29167
 BRILLOUIN|   443           0.00116       -0.20833       -0.45833        0.37500
 BRILLOUIN|   444           0.00116       -0.20833       -0.45833        0.45833
 BRILLOUIN|   445           0.00116       -0.20833       -0.37500       -0.45833
 BRILLOUIN|   446           0.00116       -0.20833       -0.37500       -0.37500
 BRILLOUIN|   447           0.00116       -0.20833       -0.37500       -0.29167
 BRILLOUIN|   448           0.00116       -0.20833       -0.37500       -0.20833
 BRILLOUIN|   449           0.00116       -0.20833       -0.37500       -0.12500
 BRILLOUIN|   450           0.00116       -0.20833       -0.37500       -0.04167
 BRILLOUIN|   451           0.00116       -0.20833       -0.37500        0.04167
 BRILLOUIN|   452           0.00116       -0.20833       -0.37500        0.12500
 BRILLOUIN|   453           0.00116       -0.20833       -0.37500        0.20833
 BRILLOUIN|   454           0.00116       -0.20833       -0.37500        0.29167
 BRILLOUIN|   455           0.00116       -0.20833       -0.37500        0.37500
 BRILLOUIN|   456           0.00116       -0.20833       -0.37500        0.45833
 BRILLOUIN|   457           0.00116       -0.20833       -0.29167       -0.45833
 BRILLOUIN|   458           0.00116       -0.20833       -0.29167       -0.37500
 BRILLOUIN|   459           0.00116       -0.20833       -0.29167       -0.29167
 BRILLOUIN|   460           0.00116       -0.20833       -0.29167       -0.20833
 BRILLOUIN|   461           0.00116       -0.20833       -0.29167       -0.12500
 BRILLOUIN|   462           0.00116       -0.20833       -0.29167       -0.04167
 BRILLOUIN|   463           0.00116       -0.20833       -0.29167        0.04167
 BRILLOUIN|   464           0.00116       -0.20833       -0.29167        0.12500
 BRILLOUIN|   465           0.00116       -0.20833       -0.29167        0.20833
 BRILLOUIN|   466           0.00116       -0.20833       -0.29167        0.29167
 BRILLOUIN|   467           0.00116       -0.20833       -0.29167        0.37500
 BRILLOUIN|   468           0.00116       -0.20833       -0.29167        0.45833
 BRILLOUIN|   469           0.00116       -0.20833       -0.20833       -0.45833
 BRILLOUIN|   470           0.00116       -0.20833       -0.20833       -0.37500
 BRILLOUIN|   471           0.00116       -0.20833       -0.20833       -0.29167
 BRILLOUIN|   472           0.00116       -0.20833       -0.20833       -0.20833
 BRILLOUIN|   473           0.00116       -0.20833       -0.20833       -0.12500
 BRILLOUIN|   474           0.00116       -0.20833       -0.20833       -0.04167
 BRILLOUIN|   475           0.00116       -0.20833       -0.20833        0.04167
 BRILLOUIN|   476           0.00116       -0.20833       -0.20833        0.12500
 BRILLOUIN|   477           0.00116       -0.20833       -0.20833        0.20833
 BRILLOUIN|   478           0.00116       -0.20833       -0.20833        0.29167
 BRILLOUIN|   479           0.00116       -0.20833       -0.20833        0.37500
 BRILLOUIN|   480           0.00116       -0.20833       -0.20833        0.45833
 BRILLOUIN|   481           0.00116       -0.20833       -0.12500       -0.45833
 BRILLOUIN|   482           0.00116       -0.20833       -0.12500       -0.37500
 BRILLOUIN|   483           0.00116       -0.20833       -0.12500       -0.29167
 BRILLOUIN|   484           0.00116       -0.20833       -0.12500       -0.20833
 BRILLOUIN|   485           0.00116       -0.20833       -0.12500       -0.12500
 BRILLOUIN|   486           0.00116       -0.20833       -0.12500       -0.04167
 BRILLOUIN|   487           0.00116       -0.20833       -0.12500        0.04167
 BRILLOUIN|   488           0.00116       -0.20833       -0.12500        0.12500
 BRILLOUIN|   489           0.00116       -0.20833       -0.12500        0.20833
 BRILLOUIN|   490           0.00116       -0.20833       -0.12500        0.29167
 BRILLOUIN|   491           0.00116       -0.20833       -0.12500        0.37500
 BRILLOUIN|   492           0.00116       -0.20833       -0.12500        0.45833
 BRILLOUIN|   493           0.00116       -0.20833       -0.04167       -0.45833
 BRILLOUIN|   494           0.00116       -0.20833       -0.04167       -0.37500
 BRILLOUIN|   495           0.00116       -0.20833       -0.04167       -0.29167
 BRILLOUIN|   496           0.00116       -0.20833       -0.04167       -0.20833
 BRILLOUIN|   497           0.00116       -0.20833       -0.04167       -0.12500
 BRILLOUIN|   498           0.00116       -0.20833       -0.04167       -0.04167
 BRILLOUIN|   499           0.00116       -0.20833       -0.04167        0.04167
 BRILLOUIN|   500           0.00116       -0.20833       -0.04167        0.12500
 BRILLOUIN|   501           0.00116       -0.20833       -0.04167        0.20833
 BRILLOUIN|   502           0.00116       -0.20833       -0.04167        0.29167
 BRILLOUIN|   503           0.00116       -0.20833       -0.04167        0.37500
 BRILLOUIN|   504           0.00116       -0.20833       -0.04167        0.45833
 BRILLOUIN|   505           0.00116       -0.20833        0.04167       -0.45833
 BRILLOUIN|   506           0.00116       -0.20833        0.04167       -0.37500
 BRILLOUIN|   507           0.00116       -0.20833        0.04167       -0.29167
 BRILLOUIN|   508           0.00116       -0.20833        0.04167       -0.20833
 BRILLOUIN|   509           0.00116       -0.20833        0.04167       -0.12500
 BRILLOUIN|   510           0.00116       -0.20833        0.04167       -0.04167
 BRILLOUIN|   511           0.00116       -0.20833        0.04167        0.04167
 BRILLOUIN|   512           0.00116       -0.20833        0.04167        0.12500
 BRILLOUIN|   513           0.00116       -0.20833        0.04167        0.20833
 BRILLOUIN|   514           0.00116       -0.20833        0.04167        0.29167
 BRILLOUIN|   515           0.00116       -0.20833        0.04167        0.37500
 BRILLOUIN|   516           0.00116       -0.20833        0.04167        0.45833
 BRILLOUIN|   517           0.00116       -0.20833        0.12500       -0.45833
 BRILLOUIN|   518           0.00116       -0.20833        0.12500       -0.37500
 BRILLOUIN|   519           0.00116       -0.20833        0.12500       -0.29167
 BRILLOUIN|   520           0.00116       -0.20833        0.12500       -0.20833
 BRILLOUIN|   521           0.00116       -0.20833        0.12500       -0.12500
 BRILLOUIN|   522           0.00116       -0.20833        0.12500       -0.04167
 BRILLOUIN|   523           0.00116       -0.20833        0.12500        0.04167
 BRILLOUIN|   524           0.00116       -0.20833        0.12500        0.12500
 BRILLOUIN|   525           0.00116       -0.20833        0.12500        0.20833
 BRILLOUIN|   526           0.00116       -0.20833        0.12500        0.29167
 BRILLOUIN|   527           0.00116       -0.20833        0.12500        0.37500
 BRILLOUIN|   528           0.00116       -0.20833        0.12500        0.45833
 BRILLOUIN|   529           0.00116       -0.20833        0.20833       -0.45833
 BRILLOUIN|   530           0.00116       -0.20833        0.20833       -0.37500
 BRILLOUIN|   531           0.00116       -0.20833        0.20833       -0.29167
 BRILLOUIN|   532           0.00116       -0.20833        0.20833       -0.20833
 BRILLOUIN|   533           0.00116       -0.20833        0.20833       -0.12500
 BRILLOUIN|   534           0.00116       -0.20833        0.20833       -0.04167
 BRILLOUIN|   535           0.00116       -0.20833        0.20833        0.04167
 BRILLOUIN|   536           0.00116       -0.20833        0.20833        0.12500
 BRILLOUIN|   537           0.00116       -0.20833        0.20833        0.20833
 BRILLOUIN|   538           0.00116       -0.20833        0.20833        0.29167
 BRILLOUIN|   539           0.00116       -0.20833        0.20833        0.37500
 BRILLOUIN|   540           0.00116       -0.20833        0.20833        0.45833
 BRILLOUIN|   541           0.00116       -0.20833        0.29167       -0.45833
 BRILLOUIN|   542           0.00116       -0.20833        0.29167       -0.37500
 BRILLOUIN|   543           0.00116       -0.20833        0.29167       -0.29167
 BRILLOUIN|   544           0.00116       -0.20833        0.29167       -0.20833
 BRILLOUIN|   545           0.00116       -0.20833        0.29167       -0.12500
 BRILLOUIN|   546           0.00116       -0.20833        0.29167       -0.04167
 BRILLOUIN|   547           0.00116       -0.20833        0.29167        0.04167
 BRILLOUIN|   548           0.00116       -0.20833        0.29167        0.12500
 BRILLOUIN|   549           0.00116       -0.20833        0.29167        0.20833
 BRILLOUIN|   550           0.00116       -0.20833        0.29167        0.29167
 BRILLOUIN|   551           0.00116       -0.20833        0.29167        0.37500
 BRILLOUIN|   552           0.00116       -0.20833        0.29167        0.45833
 BRILLOUIN|   553           0.00116       -0.20833        0.37500       -0.45833
 BRILLOUIN|   554           0.00116       -0.20833        0.37500       -0.37500
 BRILLOUIN|   555           0.00116       -0.20833        0.37500       -0.29167
 BRILLOUIN|   556           0.00116       -0.20833        0.37500       -0.20833
 BRILLOUIN|   557           0.00116       -0.20833        0.37500       -0.12500
 BRILLOUIN|   558           0.00116       -0.20833        0.37500       -0.04167
 BRILLOUIN|   559           0.00116       -0.20833        0.37500        0.04167
 BRILLOUIN|   560           0.00116       -0.20833        0.37500        0.12500
 BRILLOUIN|   561           0.00116       -0.20833        0.37500        0.20833
 BRILLOUIN|   562           0.00116       -0.20833        0.37500        0.29167
 BRILLOUIN|   563           0.00116       -0.20833        0.37500        0.37500
 BRILLOUIN|   564           0.00116       -0.20833        0.37500        0.45833
 BRILLOUIN|   565           0.00116       -0.20833        0.45833       -0.45833
 BRILLOUIN|   566           0.00116       -0.20833        0.45833       -0.37500
 BRILLOUIN|   567           0.00116       -0.20833        0.45833       -0.29167
 BRILLOUIN|   568           0.00116       -0.20833        0.45833       -0.20833
 BRILLOUIN|   569           0.00116       -0.20833        0.45833       -0.12500
 BRILLOUIN|   570           0.00116       -0.20833        0.45833       -0.04167
 BRILLOUIN|   571           0.00116       -0.20833        0.45833        0.04167
 BRILLOUIN|   572           0.00116       -0.20833        0.45833        0.12500
 BRILLOUIN|   573           0.00116       -0.20833        0.45833        0.20833
 BRILLOUIN|   574           0.00116       -0.20833        0.45833        0.29167
 BRILLOUIN|   575           0.00116       -0.20833        0.45833        0.37500
 BRILLOUIN|   576           0.00116       -0.20833        0.45833        0.45833
 BRILLOUIN|   577           0.00116       -0.12500       -0.45833       -0.45833
 BRILLOUIN|   578           0.00116       -0.12500       -0.45833       -0.37500
 BRILLOUIN|   579           0.00116       -0.12500       -0.45833       -0.29167
 BRILLOUIN|   580           0.00116       -0.12500       -0.45833       -0.20833
 BRILLOUIN|   581           0.00116       -0.12500       -0.45833       -0.12500
 BRILLOUIN|   582           0.00116       -0.12500       -0.45833       -0.04167
 BRILLOUIN|   583           0.00116       -0.12500       -0.45833        0.04167
 BRILLOUIN|   584           0.00116       -0.12500       -0.45833        0.12500
 BRILLOUIN|   585           0.00116       -0.12500       -0.45833        0.20833
 BRILLOUIN|   586           0.00116       -0.12500       -0.45833        0.29167
 BRILLOUIN|   587           0.00116       -0.12500       -0.45833        0.37500
 BRILLOUIN|   588           0.00116       -0.12500       -0.45833        0.45833
 BRILLOUIN|   589           0.00116       -0.12500       -0.37500       -0.45833
 BRILLOUIN|   590           0.00116       -0.12500       -0.37500       -0.37500
 BRILLOUIN|   591           0.00116       -0.12500       -0.37500       -0.29167
 BRILLOUIN|   592           0.00116       -0.12500       -0.37500       -0.20833
 BRILLOUIN|   593           0.00116       -0.12500       -0.37500       -0.12500
 BRILLOUIN|   594           0.00116       -0.12500       -0.37500       -0.04167
 BRILLOUIN|   595           0.00116       -0.12500       -0.37500        0.04167
 BRILLOUIN|   596           0.00116       -0.12500       -0.37500        0.12500
 BRILLOUIN|   597           0.00116       -0.12500       -0.37500        0.20833
 BRILLOUIN|   598           0.00116       -0.12500       -0.37500        0.29167
 BRILLOUIN|   599           0.00116       -0.12500       -0.37500        0.37500
 BRILLOUIN|   600           0.00116       -0.12500       -0.37500        0.45833
 BRILLOUIN|   601           0.00116       -0.12500       -0.29167       -0.45833
 BRILLOUIN|   602           0.00116       -0.12500       -0.29167       -0.37500
 BRILLOUIN|   603           0.00116       -0.12500       -0.29167       -0.29167
 BRILLOUIN|   604           0.00116       -0.12500       -0.29167       -0.20833
 BRILLOUIN|   605           0.00116       -0.12500       -0.29167       -0.12500
 BRILLOUIN|   606           0.00116       -0.12500       -0.29167       -0.04167
 BRILLOUIN|   607           0.00116       -0.12500       -0.29167        0.04167
 BRILLOUIN|   608           0.00116       -0.12500       -0.29167        0.12500
 BRILLOUIN|   609           0.00116       -0.12500       -0.29167        0.20833
 BRILLOUIN|   610           0.00116       -0.12500       -0.29167        0.29167
 BRILLOUIN|   611           0.00116       -0.12500       -0.29167        0.37500
 BRILLOUIN|   612           0.00116       -0.12500       -0.29167        0.45833
 BRILLOUIN|   613           0.00116       -0.12500       -0.20833       -0.45833
 BRILLOUIN|   614           0.00116       -0.12500       -0.20833       -0.37500
 BRILLOUIN|   615           0.00116       -0.12500       -0.20833       -0.29167
 BRILLOUIN|   616           0.00116       -0.12500       -0.20833       -0.20833
 BRILLOUIN|   617           0.00116       -0.12500       -0.20833       -0.12500
 BRILLOUIN|   618           0.00116       -0.12500       -0.20833       -0.04167
 BRILLOUIN|   619           0.00116       -0.12500       -0.20833        0.04167
 BRILLOUIN|   620           0.00116       -0.12500       -0.20833        0.12500
 BRILLOUIN|   621           0.00116       -0.12500       -0.20833        0.20833
 BRILLOUIN|   622           0.00116       -0.12500       -0.20833        0.29167
 BRILLOUIN|   623           0.00116       -0.12500       -0.20833        0.37500
 BRILLOUIN|   624           0.00116       -0.12500       -0.20833        0.45833
 BRILLOUIN|   625           0.00116       -0.12500       -0.12500       -0.45833
 BRILLOUIN|   626           0.00116       -0.12500       -0.12500       -0.37500
 BRILLOUIN|   627           0.00116       -0.12500       -0.12500       -0.29167
 BRILLOUIN|   628           0.00116       -0.12500       -0.12500       -0.20833
 BRILLOUIN|   629           0.00116       -0.12500       -0.12500       -0.12500
 BRILLOUIN|   630           0.00116       -0.12500       -0.12500       -0.04167
 BRILLOUIN|   631           0.00116       -0.12500       -0.12500        0.04167
 BRILLOUIN|   632           0.00116       -0.12500       -0.12500        0.12500
 BRILLOUIN|   633           0.00116       -0.12500       -0.12500        0.20833
 BRILLOUIN|   634           0.00116       -0.12500       -0.12500        0.29167
 BRILLOUIN|   635           0.00116       -0.12500       -0.12500        0.37500
 BRILLOUIN|   636           0.00116       -0.12500       -0.12500        0.45833
 BRILLOUIN|   637           0.00116       -0.12500       -0.04167       -0.45833
 BRILLOUIN|   638           0.00116       -0.12500       -0.04167       -0.37500
 BRILLOUIN|   639           0.00116       -0.12500       -0.04167       -0.29167
 BRILLOUIN|   640           0.00116       -0.12500       -0.04167       -0.20833
 BRILLOUIN|   641           0.00116       -0.12500       -0.04167       -0.12500
 BRILLOUIN|   642           0.00116       -0.12500       -0.04167       -0.04167
 BRILLOUIN|   643           0.00116       -0.12500       -0.04167        0.04167
 BRILLOUIN|   644           0.00116       -0.12500       -0.04167        0.12500
 BRILLOUIN|   645           0.00116       -0.12500       -0.04167        0.20833
 BRILLOUIN|   646           0.00116       -0.12500       -0.04167        0.29167
 BRILLOUIN|   647           0.00116       -0.12500       -0.04167        0.37500
 BRILLOUIN|   648           0.00116       -0.12500       -0.04167        0.45833
 BRILLOUIN|   649           0.00116       -0.12500        0.04167       -0.45833
 BRILLOUIN|   650           0.00116       -0.12500        0.04167       -0.37500
 BRILLOUIN|   651           0.00116       -0.12500        0.04167       -0.29167
 BRILLOUIN|   652           0.00116       -0.12500        0.04167       -0.20833
 BRILLOUIN|   653           0.00116       -0.12500        0.04167       -0.12500
 BRILLOUIN|   654           0.00116       -0.12500        0.04167       -0.04167
 BRILLOUIN|   655           0.00116       -0.12500        0.04167        0.04167
 BRILLOUIN|   656           0.00116       -0.12500        0.04167        0.12500
 BRILLOUIN|   657           0.00116       -0.12500        0.04167        0.20833
 BRILLOUIN|   658           0.00116       -0.12500        0.04167        0.29167
 BRILLOUIN|   659           0.00116       -0.12500        0.04167        0.37500
 BRILLOUIN|   660           0.00116       -0.12500        0.04167        0.45833
 BRILLOUIN|   661           0.00116       -0.12500        0.12500       -0.45833
 BRILLOUIN|   662           0.00116       -0.12500        0.12500       -0.37500
 BRILLOUIN|   663           0.00116       -0.12500        0.12500       -0.29167
 BRILLOUIN|   664           0.00116       -0.12500        0.12500       -0.20833
 BRILLOUIN|   665           0.00116       -0.12500        0.12500       -0.12500
 BRILLOUIN|   666           0.00116       -0.12500        0.12500       -0.04167
 BRILLOUIN|   667           0.00116       -0.12500        0.12500        0.04167
 BRILLOUIN|   668           0.00116       -0.12500        0.12500        0.12500
 BRILLOUIN|   669           0.00116       -0.12500        0.12500        0.20833
 BRILLOUIN|   670           0.00116       -0.12500        0.12500        0.29167
 BRILLOUIN|   671           0.00116       -0.12500        0.12500        0.37500
 BRILLOUIN|   672           0.00116       -0.12500        0.12500        0.45833
 BRILLOUIN|   673           0.00116       -0.12500        0.20833       -0.45833
 BRILLOUIN|   674           0.00116       -0.12500        0.20833       -0.37500
 BRILLOUIN|   675           0.00116       -0.12500        0.20833       -0.29167
 BRILLOUIN|   676           0.00116       -0.12500        0.20833       -0.20833
 BRILLOUIN|   677           0.00116       -0.12500        0.20833       -0.12500
 BRILLOUIN|   678           0.00116       -0.12500        0.20833       -0.04167
 BRILLOUIN|   679           0.00116       -0.12500        0.20833        0.04167
 BRILLOUIN|   680           0.00116       -0.12500        0.20833        0.12500
 BRILLOUIN|   681           0.00116       -0.12500        0.20833        0.20833
 BRILLOUIN|   682           0.00116       -0.12500        0.20833        0.29167
 BRILLOUIN|   683           0.00116       -0.12500        0.20833        0.37500
 BRILLOUIN|   684           0.00116       -0.12500        0.20833        0.45833
 BRILLOUIN|   685           0.00116       -0.12500        0.29167       -0.45833
 BRILLOUIN|   686           0.00116       -0.12500        0.29167       -0.37500
 BRILLOUIN|   687           0.00116       -0.12500        0.29167       -0.29167
 BRILLOUIN|   688           0.00116       -0.12500        0.29167       -0.20833
 BRILLOUIN|   689           0.00116       -0.12500        0.29167       -0.12500
 BRILLOUIN|   690           0.00116       -0.12500        0.29167       -0.04167
 BRILLOUIN|   691           0.00116       -0.12500        0.29167        0.04167
 BRILLOUIN|   692           0.00116       -0.12500        0.29167        0.12500
 BRILLOUIN|   693           0.00116       -0.12500        0.29167        0.20833
 BRILLOUIN|   694           0.00116       -0.12500        0.29167        0.29167
 BRILLOUIN|   695           0.00116       -0.12500        0.29167        0.37500
 BRILLOUIN|   696           0.00116       -0.12500        0.29167        0.45833
 BRILLOUIN|   697           0.00116       -0.12500        0.37500       -0.45833
 BRILLOUIN|   698           0.00116       -0.12500        0.37500       -0.37500
 BRILLOUIN|   699           0.00116       -0.12500        0.37500       -0.29167
 BRILLOUIN|   700           0.00116       -0.12500        0.37500       -0.20833
 BRILLOUIN|   701           0.00116       -0.12500        0.37500       -0.12500
 BRILLOUIN|   702           0.00116       -0.12500        0.37500       -0.04167
 BRILLOUIN|   703           0.00116       -0.12500        0.37500        0.04167
 BRILLOUIN|   704           0.00116       -0.12500        0.37500        0.12500
 BRILLOUIN|   705           0.00116       -0.12500        0.37500        0.20833
 BRILLOUIN|   706           0.00116       -0.12500        0.37500        0.29167
 BRILLOUIN|   707           0.00116       -0.12500        0.37500        0.37500
 BRILLOUIN|   708           0.00116       -0.12500        0.37500        0.45833
 BRILLOUIN|   709           0.00116       -0.12500        0.45833       -0.45833
 BRILLOUIN|   710           0.00116       -0.12500        0.45833       -0.37500
 BRILLOUIN|   711           0.00116       -0.12500        0.45833       -0.29167
 BRILLOUIN|   712           0.00116       -0.12500        0.45833       -0.20833
 BRILLOUIN|   713           0.00116       -0.12500        0.45833       -0.12500
 BRILLOUIN|   714           0.00116       -0.12500        0.45833       -0.04167
 BRILLOUIN|   715           0.00116       -0.12500        0.45833        0.04167
 BRILLOUIN|   716           0.00116       -0.12500        0.45833        0.12500
 BRILLOUIN|   717           0.00116       -0.12500        0.45833        0.20833
 BRILLOUIN|   718           0.00116       -0.12500        0.45833        0.29167
 BRILLOUIN|   719           0.00116       -0.12500        0.45833        0.37500
 BRILLOUIN|   720           0.00116       -0.12500        0.45833        0.45833
 BRILLOUIN|   721           0.00116       -0.04167       -0.45833       -0.45833
 BRILLOUIN|   722           0.00116       -0.04167       -0.45833       -0.37500
 BRILLOUIN|   723           0.00116       -0.04167       -0.45833       -0.29167
 BRILLOUIN|   724           0.00116       -0.04167       -0.45833       -0.20833
 BRILLOUIN|   725           0.00116       -0.04167       -0.45833       -0.12500
 BRILLOUIN|   726           0.00116       -0.04167       -0.45833       -0.04167
 BRILLOUIN|   727           0.00116       -0.04167       -0.45833        0.04167
 BRILLOUIN|   728           0.00116       -0.04167       -0.45833        0.12500
 BRILLOUIN|   729           0.00116       -0.04167       -0.45833        0.20833
 BRILLOUIN|   730           0.00116       -0.04167       -0.45833        0.29167
 BRILLOUIN|   731           0.00116       -0.04167       -0.45833        0.37500
 BRILLOUIN|   732           0.00116       -0.04167       -0.45833        0.45833
 BRILLOUIN|   733           0.00116       -0.04167       -0.37500       -0.45833
 BRILLOUIN|   734           0.00116       -0.04167       -0.37500       -0.37500
 BRILLOUIN|   735           0.00116       -0.04167       -0.37500       -0.29167
 BRILLOUIN|   736           0.00116       -0.04167       -0.37500       -0.20833
 BRILLOUIN|   737           0.00116       -0.04167       -0.37500       -0.12500
 BRILLOUIN|   738           0.00116       -0.04167       -0.37500       -0.04167
 BRILLOUIN|   739           0.00116       -0.04167       -0.37500        0.04167
 BRILLOUIN|   740           0.00116       -0.04167       -0.37500        0.12500
 BRILLOUIN|   741           0.00116       -0.04167       -0.37500        0.20833
 BRILLOUIN|   742           0.00116       -0.04167       -0.37500        0.29167
 BRILLOUIN|   743           0.00116       -0.04167       -0.37500        0.37500
 BRILLOUIN|   744           0.00116       -0.04167       -0.37500        0.45833
 BRILLOUIN|   745           0.00116       -0.04167       -0.29167       -0.45833
 BRILLOUIN|   746           0.00116       -0.04167       -0.29167       -0.37500
 BRILLOUIN|   747           0.00116       -0.04167       -0.29167       -0.29167
 BRILLOUIN|   748           0.00116       -0.04167       -0.29167       -0.20833
 BRILLOUIN|   749           0.00116       -0.04167       -0.29167       -0.12500
 BRILLOUIN|   750           0.00116       -0.04167       -0.29167       -0.04167
 BRILLOUIN|   751           0.00116       -0.04167       -0.29167        0.04167
 BRILLOUIN|   752           0.00116       -0.04167       -0.29167        0.12500
 BRILLOUIN|   753           0.00116       -0.04167       -0.29167        0.20833
 BRILLOUIN|   754           0.00116       -0.04167       -0.29167        0.29167
 BRILLOUIN|   755           0.00116       -0.04167       -0.29167        0.37500
 BRILLOUIN|   756           0.00116       -0.04167       -0.29167        0.45833
 BRILLOUIN|   757           0.00116       -0.04167       -0.20833       -0.45833
 BRILLOUIN|   758           0.00116       -0.04167       -0.20833       -0.37500
 BRILLOUIN|   759           0.00116       -0.04167       -0.20833       -0.29167
 BRILLOUIN|   760           0.00116       -0.04167       -0.20833       -0.20833
 BRILLOUIN|   761           0.00116       -0.04167       -0.20833       -0.12500
 BRILLOUIN|   762           0.00116       -0.04167       -0.20833       -0.04167
 BRILLOUIN|   763           0.00116       -0.04167       -0.20833        0.04167
 BRILLOUIN|   764           0.00116       -0.04167       -0.20833        0.12500
 BRILLOUIN|   765           0.00116       -0.04167       -0.20833        0.20833
 BRILLOUIN|   766           0.00116       -0.04167       -0.20833        0.29167
 BRILLOUIN|   767           0.00116       -0.04167       -0.20833        0.37500
 BRILLOUIN|   768           0.00116       -0.04167       -0.20833        0.45833
 BRILLOUIN|   769           0.00116       -0.04167       -0.12500       -0.45833
 BRILLOUIN|   770           0.00116       -0.04167       -0.12500       -0.37500
 BRILLOUIN|   771           0.00116       -0.04167       -0.12500       -0.29167
 BRILLOUIN|   772           0.00116       -0.04167       -0.12500       -0.20833
 BRILLOUIN|   773           0.00116       -0.04167       -0.12500       -0.12500
 BRILLOUIN|   774           0.00116       -0.04167       -0.12500       -0.04167
 BRILLOUIN|   775           0.00116       -0.04167       -0.12500        0.04167
 BRILLOUIN|   776           0.00116       -0.04167       -0.12500        0.12500
 BRILLOUIN|   777           0.00116       -0.04167       -0.12500        0.20833
 BRILLOUIN|   778           0.00116       -0.04167       -0.12500        0.29167
 BRILLOUIN|   779           0.00116       -0.04167       -0.12500        0.37500
 BRILLOUIN|   780           0.00116       -0.04167       -0.12500        0.45833
 BRILLOUIN|   781           0.00116       -0.04167       -0.04167       -0.45833
 BRILLOUIN|   782           0.00116       -0.04167       -0.04167       -0.37500
 BRILLOUIN|   783           0.00116       -0.04167       -0.04167       -0.29167
 BRILLOUIN|   784           0.00116       -0.04167       -0.04167       -0.20833
 BRILLOUIN|   785           0.00116       -0.04167       -0.04167       -0.12500
 BRILLOUIN|   786           0.00116       -0.04167       -0.04167       -0.04167
 BRILLOUIN|   787           0.00116       -0.04167       -0.04167        0.04167
 BRILLOUIN|   788           0.00116       -0.04167       -0.04167        0.12500
 BRILLOUIN|   789           0.00116       -0.04167       -0.04167        0.20833
 BRILLOUIN|   790           0.00116       -0.04167       -0.04167        0.29167
 BRILLOUIN|   791           0.00116       -0.04167       -0.04167        0.37500
 BRILLOUIN|   792           0.00116       -0.04167       -0.04167        0.45833
 BRILLOUIN|   793           0.00116       -0.04167        0.04167       -0.45833
 BRILLOUIN|   794           0.00116       -0.04167        0.04167       -0.37500
 BRILLOUIN|   795           0.00116       -0.04167        0.04167       -0.29167
 BRILLOUIN|   796           0.00116       -0.04167        0.04167       -0.20833
 BRILLOUIN|   797           0.00116       -0.04167        0.04167       -0.12500
 BRILLOUIN|   798           0.00116       -0.04167        0.04167       -0.04167
 BRILLOUIN|   799           0.00116       -0.04167        0.04167        0.04167
 BRILLOUIN|   800           0.00116       -0.04167        0.04167        0.12500
 BRILLOUIN|   801           0.00116       -0.04167        0.04167        0.20833
 BRILLOUIN|   802           0.00116       -0.04167        0.04167        0.29167
 BRILLOUIN|   803           0.00116       -0.04167        0.04167        0.37500
 BRILLOUIN|   804           0.00116       -0.04167        0.04167        0.45833
 BRILLOUIN|   805           0.00116       -0.04167        0.12500       -0.45833
 BRILLOUIN|   806           0.00116       -0.04167        0.12500       -0.37500
 BRILLOUIN|   807           0.00116       -0.04167        0.12500       -0.29167
 BRILLOUIN|   808           0.00116       -0.04167        0.12500       -0.20833
 BRILLOUIN|   809           0.00116       -0.04167        0.12500       -0.12500
 BRILLOUIN|   810           0.00116       -0.04167        0.12500       -0.04167
 BRILLOUIN|   811           0.00116       -0.04167        0.12500        0.04167
 BRILLOUIN|   812           0.00116       -0.04167        0.12500        0.12500
 BRILLOUIN|   813           0.00116       -0.04167        0.12500        0.20833
 BRILLOUIN|   814           0.00116       -0.04167        0.12500        0.29167
 BRILLOUIN|   815           0.00116       -0.04167        0.12500        0.37500
 BRILLOUIN|   816           0.00116       -0.04167        0.12500        0.45833
 BRILLOUIN|   817           0.00116       -0.04167        0.20833       -0.45833
 BRILLOUIN|   818           0.00116       -0.04167        0.20833       -0.37500
 BRILLOUIN|   819           0.00116       -0.04167        0.20833       -0.29167
 BRILLOUIN|   820           0.00116       -0.04167        0.20833       -0.20833
 BRILLOUIN|   821           0.00116       -0.04167        0.20833       -0.12500
 BRILLOUIN|   822           0.00116       -0.04167        0.20833       -0.04167
 BRILLOUIN|   823           0.00116       -0.04167        0.20833        0.04167
 BRILLOUIN|   824           0.00116       -0.04167        0.20833        0.12500
 BRILLOUIN|   825           0.00116       -0.04167        0.20833        0.20833
 BRILLOUIN|   826           0.00116       -0.04167        0.20833        0.29167
 BRILLOUIN|   827           0.00116       -0.04167        0.20833        0.37500
 BRILLOUIN|   828           0.00116       -0.04167        0.20833        0.45833
 BRILLOUIN|   829           0.00116       -0.04167        0.29167       -0.45833
 BRILLOUIN|   830           0.00116       -0.04167        0.29167       -0.37500
 BRILLOUIN|   831           0.00116       -0.04167        0.29167       -0.29167
 BRILLOUIN|   832           0.00116       -0.04167        0.29167       -0.20833
 BRILLOUIN|   833           0.00116       -0.04167        0.29167       -0.12500
 BRILLOUIN|   834           0.00116       -0.04167        0.29167       -0.04167
 BRILLOUIN|   835           0.00116       -0.04167        0.29167        0.04167
 BRILLOUIN|   836           0.00116       -0.04167        0.29167        0.12500
[...]
 flops max/rank                      0.000000E+00       0.0%      0.0%      0.0%
 matmuls inhomo. stacks                         0       0.0%      0.0%      0.0%
 matmuls total                                  0       0.0%      0.0%      0.0%
 number of processed stacks                     0       0.0%      0.0%      0.0%
 average stack size                                     0.0       0.0       0.0
 marketing flops                     0.000000E+00
 -------------------------------------------------------------------------------
 -                                                                             -
 -                      DBCSR MESSAGE PASSING PERFORMANCE                      -
 -                                                                             -
 -------------------------------------------------------------------------------
 ROUTINE             CALLS      AVE VOLUME [Bytes]
 MP_Bcast                1                     12.
 MP_Allreduce           19                     21.
 MP_Alltoall       2779592                  52129.
 -------------------------------------------------------------------------------

 -------------------------------------------------------------------------------
 -                                                                             -
 -                                DBM STATISTICS                               -
 -                                                                             -
 -------------------------------------------------------------------------------
    M  x    N  x    K                                          COUNT     PERCENT
 -------------------------------------------------------------------------------

 -------------------------------------------------------------------------------
 -                                                                             -
 -                                GRID STATISTICS                              -
 -                                                                             -
 -------------------------------------------------------------------------------
 LP    KERNEL             BACKEND                              COUNT     PERCENT
 8     collocate ortho    CPU                                 676160      50.63%
 8     integrate ortho    CPU                                 659256      49.37%
 0     collocate general  CPU                                     16       0.00%
 0     integrate general  CPU                                      8       0.00%
 -------------------------------------------------------------------------------

 MEMORY| Estimated peak process memory [MiB]                                1928

 -------------------------------------------------------------------------------
 ----                             MULTIGRID INFO                            ----
 -------------------------------------------------------------------------------
 count for grid        1:              0          cutoff [a.u.]          500.00
 count for grid        2:         212464          cutoff [a.u.]          166.67
 count for grid        3:          85968          cutoff [a.u.]           55.56
 count for grid        4:          52512          cutoff [a.u.]           18.52
 total gridlevel count  :         350944

 -------------------------------------------------------------------------------
 -                                                                             -
 -                         MESSAGE PASSING PERFORMANCE                         -
 -                                                                             -
 -------------------------------------------------------------------------------

 ROUTINE             CALLS      AVE VOLUME [Bytes]
 MP_Group                6
 MP_Bcast          1216808                    316.
 MP_Allreduce        32683                   3611.
 MP_Sync                 4
 MP_Alltoall           707                6455359.
 MP_SendRecv          2430                 374222.
 MP_ISendRecv         2355                 369429.
 MP_Wait            826211
 MP_comm_split           4
 MP_ISend           849424                  28312.
 MP_IRecv          1419376                  15147.
 -------------------------------------------------------------------------------


 -------------------------------------------------------------------------------
 -                                                                             -
 -                           R E F E R E N C E S                               -
 -                                                                             -
 -------------------------------------------------------------------------------
 
 CP2K version 2025.1 (Development Version), the CP2K developers group (2025).
 CP2K is freely available from https://www.cp2k.org/ .
 
 T. D. Kuehne, M. Iannuzzi, M. Del Ben, V. V. Rybkin, P. Seewald, F. Stein, T. 
 Laino, R. Z. Khaliullin, O. Schuett, F. Schiffmann, D. Golze, J. Wilhelm, S. 
 Chulkov, M. H. Bani-Hashemian, V. Weber, U. Borstnik, M. Taillefumier, A. S. 
 Jakobovits, A. Lazzaro, H. Pabst, T. Mueller, R. Schade, M. Guidon, S. 
 Andermatt, N. Holmberg, G. K. Schenter, A. Hehn, A. Bussy, F. Belleflamme, G. 
 Tabacchi, A. Gloess, M. Lass, I. Bethune, C. J. Mundy, C. Plessl, M. Watkins, 
 J. VandeVondele, M. Krack, J. Hutter.
 J. Chem. Phys. 152, 194103 (2020).
 CP2K: An electronic structure and molecular dynamics software package - 
 Quickstep: Efficient and accurate electronic structure calculations.
 https://doi.org/10.1063/5.0007045

 O. Schuett, P. Messmer, J. Hutter, J. VandeVondele.
 Electronic Structure Calculations on Graphics Processing Units, 173-190 (2016).
 GPU-Accelerated Sparse Matrix-Matrix Multiplication for Linear Scaling Density 
 Functional Theory.
 https://doi.org/10.1002/9781118670712.ch8

 J. Hutter, M. Iannuzzi, F. Schiffmann, J. VandeVondele.
 WIREs Comput Mol Sci. 4, 15-25 (2014).
 CP2K: atomistic simulations of condensed matter systems.
 https://doi.org/10.1002/wcms.1159

 U. Borstnik, J. VandeVondele, V. Weber, J. Hutter.
 Parallel Comput. 40, 47-58 (2014).
 Sparse matrix multiplication: The distributed block-compressed sparse row 
 library.
 https://doi.org/10.1016/j.parco.2014.03.012

 J. VandeVondele, J. Hutter.
 J. Chem. Phys. 127, 114105 (2007).
 Gaussian basis sets for accurate calculations on molecular systems in gas and 
 condensed phases.
 https://doi.org/10.1063/1.2770708

 J. VandeVondele, M. Krack, F. Mohamed, M. Parrinello, T. Chassaing, J. Hutter.
 Comput. Phys. Commun. 167, 103-128 (2005).
 QUICKSTEP: Fast and accurate density functional calculations using a mixed 
 Gaussian and plane waves approach.
 https://doi.org/10.1016/j.cpc.2004.12.014

 M. Krack.
 Theor. Chem. Acc. 114, 145-152 (2005).
 Pseudopotentials for H to Kr optimized for gradient-corrected 
 exchange-correlation functionals.
 https://doi.org/10.1007/s00214-005-0655-y

 M. Frigo, S. G. Johnson.
 Proc. IEEE 93, 216-231 (2005).
 The design and implementation of FFTW3.
 https://doi.org/10.1109/JPROC.2004.840301

 C. Hartwigsen, S. Goedecker, J. Hutter.
 Phys. Rev. B 58, 3641-3662 (1998).
 Relativistic separable dual-space Gaussian pseudopotentials from H to Rn.
 https://doi.org/10.1103/PhysRevB.58.3641

 G. Lippert, J. Hutter, M. Parrinello.
 Mol. Phys. 92, 477-487 (1997).
 A hybrid Gaussian and plane wave density functional scheme.
 https://doi.org/10.1080/002689797170220

 S. Goedecker, M. Teter, J. Hutter.
 Phys. Rev. B 54, 1703-1710 (1996).
 Separable dual-space Gaussian pseudopotentials.
 https://doi.org/10.1103/PhysRevB.54.1703

 J. P. Perdew, K. Burke, M. Ernzerhof.
 Phys. Rev. Lett. 77, 3865-3868 (1996).
 Generalized gradient approximation made simple.
 https://doi.org/10.1103/PhysRevLett.77.3865


 -------------------------------------------------------------------------------
 -                                                                             -
 -                                T I M I N G                                  -
 -                                                                             -
 -------------------------------------------------------------------------------
 SUBROUTINE                       CALLS  ASD         SELF TIME        TOTAL TIME
                                MAXIMUM       AVERAGE  MAXIMUM  AVERAGE  MAXIMUM
 CP2K                                 1  1.0    0.010    0.017 1208.419 1208.419
 qs_energies                          1  2.0    0.011    0.144 1207.820 1207.927
 scf_env_do_scf                       1  3.0    0.000    0.000 1201.751 1201.754
 scf_env_do_scf_inner_loop           39  4.0    0.011    0.013 1201.751 1201.754
 do_general_diag_kp                  40  5.9    0.943    1.010 1192.577 1194.027
 qs_scf_new_mos_kp                   39  5.0    0.000    0.000 1187.356 1188.883
 mp_alltoall_i22                 474596  8.8  151.502  351.571  151.502  351.571
 kpoint_density_transform            39  7.0    0.311    0.350  315.722  316.285
 rskp_transform                   67688  7.0  220.489  305.959  220.489  305.959
 dbcsr_desymmetrize_deep         271290  7.5    9.575   11.240  155.086  290.032
 cp_cfm_geeig                      2143  6.9    0.045    0.051  245.556  249.242
 cp_fm_start_copy_general        202768  7.3   21.930   28.635  219.856  220.473
 dbcsr_complete_redistribute     203306  8.3   18.464   21.390  152.380  211.777
 mp_allgather_i                  405536  8.3  178.704  187.220  178.704  187.220
 cp_cfm_heevd                      2143  7.9    0.008    0.010  168.573  170.823
 cp_cfm_heevd_base                 2143  8.9  168.564  170.815  168.564  170.815
 transform_dmat                   33696  8.0  105.112  144.548  105.112  144.548
 copy_fm_to_dbcsr                 67392  8.0    0.467    0.505   73.821  135.765
 copy_dbcsr_to_fm                135914  7.0    1.717    1.832  120.105  125.461
 cp_cfm_triangular_multiply        6429  7.9   55.117   56.142   55.117   56.142
 mp_alltoall_d11v               1423788  9.4   46.109   50.440   46.109   50.440
 kpoint_density_matrices             39  7.0    0.393    0.404   39.248   39.728
 parallel_gemm_fm                  8424  8.0    0.011    0.012   38.146   38.609
 parallel_gemm_fm_gemm             8424  9.0    0.011    0.013   38.135   38.598
 cp_fm_gemm                        8424 10.0   38.124   38.587   38.124   38.587
 hybrid_alltoall_any             271290  8.5    1.246    1.341   25.786   29.222
 cp_fm_finish_copy_general        75964  7.9   23.587   27.061   23.789   27.274
 dbcsr_finalize                  479372  8.8    2.723    2.906   21.601   24.152
 mp_alltoall_i11v                881208  9.1   18.458   22.062   18.458   22.062
 mp_cart_sub                     271830  9.0   17.083   17.168   17.083   17.168
 dbcsr_merge_all                 203306 10.3    5.112    6.359   13.011   15.423
 mp_bcast_iv                     811096  8.3   13.650   14.918   13.650   14.918
 mp_cart_create                  135921  9.0   11.510   12.275   11.510   12.275
 cp_cfm_cholesky_decompose         2143  7.9   10.521   10.770   10.521   10.770
 cp_cfm_triangular_invert          2143  7.9   10.155   10.633   10.155   10.633
 kpoint_set_mo_occupation            39  7.0    0.583    0.588    5.392   10.583
 mp_sum_dm3                          39  8.0    4.809    9.995    4.809    9.995
 mp_waitall_1                    826211  8.3    1.295    8.842    1.295    8.842
 qs_ks_update_qs_env                 39  5.0    0.000    0.000    6.385    7.499
 copy_dbcsr_to_fm_bc             135914  8.0    4.132    5.500    5.667    7.050
 rebuild_ks_matrix                   39  6.0    0.000    0.000    5.674    6.788
 qs_ks_build_kohn_sham_matrix        39  7.0    0.021    0.022    5.674    6.788
 sum_up_and_integrate                39  8.0    0.001    0.001    4.358    5.461
 integrate_v_rspace                  39  9.0    0.057    0.088    4.355    5.459
 copy_fm_to_dbcsr_bc              67392  9.0    1.677    2.074    4.656    5.401
 dbcsr_work_create               474596  8.8    3.107    3.227    4.861    5.270
 qs_rho_update_rho_low               40  5.0    0.000    0.000    5.082    5.108
 calculate_rho_elec                  40  6.0    0.062    0.077    5.082    5.108
 dbcsr_create_new                701044  8.4    3.775    3.974    4.670    4.935
 tree_to_linear_d                203306 11.3    4.070    4.695    4.070    4.695
 grid_integrate_task_list            39 10.0    3.460    4.541    3.460    4.541
 dbcsr_data_copy_aa2             203306 11.3    2.850    4.014    2.850    4.014
 dbcsr_work_destroy_all          474596  9.8    2.260    2.312    3.810    3.895
 grid_collocate_task_list            40  7.0    3.143    3.848    3.143    3.848
 dbcsr_data_new                 5085456  9.8    3.190    3.681    3.190    3.681
 cp_cfm_scale_and_add_fm           8572  6.9    3.336    3.480    3.336    3.480
 dbcsr_data_release             6947600 10.2    3.358    3.451    3.358    3.451
 mp_bcast_im                     405536  8.3    2.984    3.341    2.984    3.341
 dbcsr_iterator_start           1319564  9.1    2.668    2.735    3.171    3.280
 dbcsr_destroy                   680062  8.4    1.272    1.314    2.954    3.258
 density_rs2pw                       40  7.0    0.002    0.002    1.871    2.982
 transfer_rs2pw                     162  8.0    0.002    0.003    1.607    2.766
 transfer_rs2pw_500                  42  8.9    0.305    0.315    1.410    2.568
 dbcsr_copy                       88643  8.4    0.240    0.267    2.008    2.447
 mp_isend_dv                     202768  8.3    1.464    2.426    1.464    2.426
 mp_sendrecv_dv                    2430 10.0    1.231    2.391    1.231    2.391
 mp_comm_free                    407785  9.0    1.823    2.181    1.823    2.181
 dbcsr_copy_into_existing         67661 10.0    1.320    1.717    1.731    2.143
 dbcsr_iterator_stop            1319564  9.1    1.640    1.684    1.957    2.011
 quick_finalize                  271290  9.5    0.972    0.998    1.818    1.868
 cp_cfm_to_fm                      2143  6.9    1.588    1.635    1.588    1.635
 dbcsr_reserve_all_blocks         67392 10.0    0.129    0.144    1.199    1.535
 dbcsr_set                       361435  8.3    0.432    0.454    1.223    1.514
 write_kpoints_restart               39  5.0    0.003    0.006    1.458    1.495
 dbcsr_reserve_blocks             69511 10.9    1.073    1.399    1.156    1.478
 fft_wrap_pw1pw2                    707 10.0    0.010    0.011    1.407    1.421
 fft_wrap_pw1pw2_500                470 11.3    0.109    0.111    1.303    1.323
 cp_cfm_to_cfm_columns             2143  7.9    1.146    1.193    1.146    1.193
 fft3d_ps                           707 12.0    0.522    0.534    1.108    1.125
 dbcsr_zero                      361435  9.3    0.792    1.065    0.792    1.065
 qs_vxc_create                       39  8.0    0.001    0.001    0.996    0.999
 xc_vxc_pw_create                    39  9.0    0.044    0.044    0.995    0.998
 cp_fm_write_unformatted            538  6.0    0.269    0.796    0.447    0.995
 gspace_mixing                       38  5.0    0.040    0.040    0.980    0.980
 dbcsr_sort_indices              544107 11.0    0.815    0.901    0.815    0.901
 potential_pw2rs                     39 10.0    0.003    0.004    0.839    0.849
 broyden_mixing                      38  6.0    0.784    0.812    0.819    0.827
 dbcsr_dot                        20983  8.0    0.344    0.435    0.706    0.726
 mp_send_dv                         538  7.0    0.165    0.714    0.165    0.714
 evaluate_core_matrix_traces         39  6.0    0.000    0.000    0.711    0.711
 calculate_ptrace_kp                 78  7.0    0.016    0.017    0.711    0.711
 cp_fm_to_fm_matrix                4212  8.0    0.696    0.706    0.696    0.706
 transfer_pw2rs                     157 11.0    0.001    0.002    0.703    0.704
 dbcsr_make_index_exist          701044  9.4    0.586    0.635    0.586    0.635
 xc_pw_derive                       234 11.0    0.001    0.001    0.622    0.625
 self_consistency_check              39  5.0    0.016    0.016    0.529    0.601
 merge_index                     203306 11.3    0.491    0.595    0.491    0.595
 dbcsr_iterator_seek            1319564 10.1    0.503    0.568    0.503    0.568
 xc_rho_set_and_dset_create          39 10.0    0.021    0.021    0.544    0.549
 cp_sm_mix                        10491  6.0    0.169    0.218    0.431    0.543
 transfer_pw2rs_500                  40 11.9    0.298    0.312    0.526    0.540
 mp_sum_d                         21713  8.8    0.339    0.517    0.339    0.517
 mp_alltoall_z22v                   707 14.0    0.483    0.499    0.483    0.499
 mp_irecv_iv                     811072  8.3    0.028    0.443    0.028    0.443
 mp_max_d                         10493  7.0    0.238    0.430    0.238    0.430
 cp_fm_create                       594  3.9    0.413    0.419    0.413    0.419
 mp_irecv_dv                     202768  8.3    0.297    0.405    0.297    0.405
 xc_pw_divergence                    39 10.0    0.001    0.001    0.400    0.402
 dbcsr_switch_data_area          271290 10.5    0.271    0.277    0.385    0.397
 cp_fm_cleanup_copy_general      139588  7.0    0.232    0.270    0.327    0.365
 mp_sum_dv                          334  3.5    0.137    0.337    0.137    0.337
 x_to_yz                            390 13.2    0.061    0.063    0.324    0.332
 mp_isend_iv                     431104  8.3    0.047    0.302    0.047    0.302
 kpoint_initialize_mos                2  2.5    0.001    0.001    0.268    0.274
 dbcsr_get_data_size_used        474596  9.8    0.239    0.271    0.239    0.271
 yz_to_x                            317 12.8    0.033    0.041    0.254    0.262
 dbcsr_make_dbcsr_index          544107 11.0    0.216    0.244    0.216    0.244
 dbcsr_distribution_new          203308  8.7    0.223    0.242    0.223    0.242
 qs_energies_init_hamiltonians        1  3.0    0.000    0.000    0.223    0.223
 init_scf_run                         1  3.0    0.000    0.000    0.202    0.220
 scf_env_initial_rho_setup            1  4.0    0.000    0.000    0.202    0.220
 mp_irecv_im2                    405536  8.3    0.013    0.208    0.013    0.208
 xc_functional_eval                  39 11.0    0.000    0.000    0.196    0.200
 pbe_lda_eval                        39 12.0    0.195    0.200    0.195    0.200
 mp_recv_dv                        3228  7.0    0.012    0.199    0.012    0.199
 build_core_hamiltonian_matrix        1  4.0    0.001    0.001    0.124    0.160
 cp_dbcsr_alloc_block_from_nbl     2119  5.3    0.034    0.045    0.121    0.160
 mp_isendrecv_dv                   2355 13.0    0.061    0.156    0.061    0.156
 transfer_rs2pw_170                  40  9.0    0.056    0.059    0.147    0.153
 restraint_control                    1  2.0    0.000    0.000    0.106    0.142
 mp_sum_i                             4  2.8    0.106    0.142    0.106    0.142
 transfer_pw2rs_170                  39 12.0    0.060    0.064    0.130    0.142
 mp_isend_im2                    215552  8.3    0.021    0.137    0.021    0.137
 qs_scf_ensure_mos                    1  3.0    0.002    0.002    0.128    0.132
 -------------------------------------------------------------------------------

 The number of warnings for this run is : 1
 
 -------------------------------------------------------------------------------
  **** **** ******  **  PROGRAM ENDED AT                 2025-08-05 20:04:42.201
 ***** ** ***  *** **   PROGRAM RAN ON                              i06r03c03s05
 **    ****   ******    PROGRAM RAN BY                                   di38fab
 ***** **    ** ** **   PROGRAM PROCESS ID                                310471
  **** **  *******  **  PROGRAM STOPPED IN /hppfs/scratch/04/di38fab/09_GTH/Delt
                                           a_Set/Br/aug-TZVP-MOLOPT-GTH-tier-2/1
                                           2x12x12
