 DBCSR| CPU Multiplication driver                                           BLAS (U)
 DBCSR| Multrec recursion limit                                              512 (U)
 DBCSR| Multiplication stack size                                           1000 (D)
 DBCSR| Maximum elements for images                                    UNLIMITED (U)
 DBCSR| Multiplicative factor virtual images                                   1 (U)
 DBCSR| Use multiplication densification                                       T (D)
 DBCSR| Multiplication size stacks                                             3 (U)
 DBCSR| Use memory pool for CPU allocation                                     F (U)
 DBCSR| Number of 3D layers                                               SINGLE (U)
 DBCSR| Use MPI memory allocation                                              F (U)
 DBCSR| Use RMA algorithm                                                      F (U)
 DBCSR| Use Communication thread                                               T (U)
 DBCSR| Communication thread load                                             45 (D)
 DBCSR| MPI: My process id                                                     0
 DBCSR| MPI: Number of processes                                               8
 DBCSR| OMP: Current number of threads                                        12
 DBCSR| OMP: Max number of threads                                            12
 DBCSR| Split modifier for TAS multiplication algorithm                  1.0E+00 (U)


  **** **** ******  **  PROGRAM STARTED AT               2025-08-07 21:01:37.868
 ***** ** ***  *** **   PROGRAM STARTED ON                          i04r01c01s09
 **    ****   ******    PROGRAM STARTED BY                               di38fab
 ***** **    ** ** **   PROGRAM PROCESS ID                               1087505
  **** **  *******  **  PROGRAM STARTED IN /hppfs/scratch/04/di38fab/09_GTH/Delt
                                           a_Set/W/aug-SZV-MOLOPT-GTH-tier-1/8x8
                                           x8

 CP2K| version string:                 CP2K version 2025.1 (Development Version)
 CP2K| source code revision number:                                  git:3130539
 CP2K| cp2kflags: omp libint fftw3 libxc parallel scalapack max_contr=4         
 CP2K| is freely available from                            https://www.cp2k.org/
 CP2K| Program compiled at                         Tue Jun  3 16:14:32 CEST 2025
 CP2K| Program compiled on                                               login01
 CP2K| Program compiled for                                        Supermuc-foss
 CP2K| Data directory path                  /hppfs/work/pn36zo/di38fab/cp2k/data
 CP2K| Input file name                                                    GW.inp

 GLOBAL| Force Environment number                                              1
 GLOBAL| Basis set file name            /hppfs/scratch/04/di38fab/09_GTH/BASIS_A
 GLOBAL| Potential file name            /hppfs/work/pn36zo/di38fab/cp2k/data/GTH
 GLOBAL| MM Potential file name                                     MM_POTENTIAL
 GLOBAL| Coordinate file name                                              W.cif
 GLOBAL| Method name                                                        CP2K
 GLOBAL| Project name                                                       WSe2
 GLOBAL| Run type                                                         ENERGY
 GLOBAL| FFT library                                                       FFTW3
 GLOBAL| Diagonalization library                                       ScaLAPACK
 GLOBAL| Cholesky decomposition library                                ScaLAPACK
 GLOBAL| DGEMM library                                                      BLAS
 GLOBAL| Orthonormality check for eigenvectors                          DISABLED
 GLOBAL| Matrix multiplication library                                 ScaLAPACK
 GLOBAL| All-to-all communication in single precision                          F
 GLOBAL| FFTs using library dependent lengths                                  F
 GLOBAL| Grid backend                                                       AUTO
 GLOBAL| Global print level                                               MEDIUM
 GLOBAL| MPI I/O enabled                                                       T
 GLOBAL| Total number of message passing processes                             8
 GLOBAL| Number of threads for this process                                   12
 GLOBAL| This output is from process                                           0
 GLOBAL| OpenMP stack size per thread (OMP_STACKSIZE)                    default
 GLOBAL| CPU model name             Intel(R) Xeon(R) Platinum 8174 CPU @ 3.10GHz

 MEMORY| system memory details [Kb]
 MEMORY|                        rank 0           min           max       average
 MEMORY| MemTotal             98436664      98436664      98436664      98436664
 MEMORY| MemFree              84276340      84276340      84478016      84377178
 MEMORY| Buffers                     0             0             0             0
 MEMORY| Cached                2368220       2368220       2397652       2382936
 MEMORY| Slab                  1280940       1280940       1281532       1281236
 MEMORY| SReclaimable           275216        275216        275448        275332
 MEMORY| MemLikelyFree        86919776      86919776      87151116      87035446


 *** Fundamental physical constants (SI units) ***

 *** Literature: B. J. Mohr and B. N. Taylor,
 ***             CODATA recommended values of the fundamental physical
 ***             constants: 2006, Web Version 5.1
 ***             http://physics.nist.gov/constants

 Speed of light in vacuum [m/s]                             2.99792458000000E+08
 Magnetic constant or permeability of vacuum [N/A**2]       1.25663706143592E-06
 Electric constant or permittivity of vacuum [F/m]          8.85418781762039E-12
 Planck constant (h) [J*s]                                  6.62606896000000E-34
 Planck constant (h-bar) [J*s]                              1.05457162825177E-34
 Elementary charge [C]                                      1.60217648700000E-19
 Electron mass [kg]                                         9.10938215000000E-31
 Electron g factor [ ]                                     -2.00231930436220E+00
 Proton mass [kg]                                           1.67262163700000E-27
 Fine-structure constant                                    7.29735253760000E-03
 Rydberg constant [1/m]                                     1.09737315685270E+07
 Avogadro constant [1/mol]                                  6.02214179000000E+23
 Boltzmann constant [J/K]                                   1.38065040000000E-23
 Atomic mass unit [kg]                                      1.66053878200000E-27
 Bohr radius [m]                                            5.29177208590000E-11

 *** Conversion factors ***

 [u] -> [a.u.]                                              1.82288848426455E+03
 [Angstrom] -> [Bohr] = [a.u.]                              1.88972613288564E+00
 [a.u.] = [Bohr] -> [Angstrom]                              5.29177208590000E-01
 [a.u.] -> [s]                                              2.41888432650478E-17
 [a.u.] -> [fs]                                             2.41888432650478E-02
 [a.u.] -> [J]                                              4.35974393937059E-18
 [a.u.] -> [N]                                              8.23872205491840E-08
 [a.u.] -> [K]                                              3.15774647902944E+05
 [a.u.] -> [kJ/mol]                                         2.62549961709828E+03
 [a.u.] -> [kcal/mol]                                       6.27509468713739E+02
 [a.u.] -> [Pa]                                             2.94210107994716E+13
 [a.u.] -> [bar]                                            2.94210107994716E+08
 [a.u.] -> [atm]                                            2.90362800883016E+08
 [a.u.] -> [eV]                                             2.72113838565563E+01
 [a.u.] -> [Hz]                                             6.57968392072181E+15
 [a.u.] -> [1/cm] (wave numbers)                            2.19474631370540E+05
 [a.u./Bohr**2] -> [1/cm]                                   5.14048714338585E+03
 

 CELL_TOP| Volume [angstrom^3]:                                        32.451991
 CELL_TOP| Vector a [angstrom     3.190     0.000     0.000   |a| =     3.189680
 CELL_TOP| Vector b [angstrom     0.000     3.190     0.000   |b| =     3.189680
 CELL_TOP| Vector c [angstrom     0.000     0.000     3.190   |c| =     3.189680
 CELL_TOP| Angle (b,c), alpha [degree]:                                90.000000
 CELL_TOP| Angle (a,c), beta  [degree]:                                90.000000
 CELL_TOP| Angle (a,b), gamma [degree]:                                90.000000
 CELL_TOP| Numerically orthorhombic:                                         YES
 CELL_TOP| Periodicity                                                       XYZ

 CELL_CIF| Volume [angstrom^3]:                                        32.451991
 CELL_CIF| Vector a [angstrom     3.190     0.000     0.000   |a| =     3.189680
 CELL_CIF| Vector b [angstrom     0.000     3.190     0.000   |b| =     3.189680
 CELL_CIF| Vector c [angstrom     0.000     0.000     3.190   |c| =     3.189680
 CELL_CIF| Angle (b,c), alpha [degree]:                                90.000000
 CELL_CIF| Angle (a,c), beta  [degree]:                                90.000000
 CELL_CIF| Angle (a,b), gamma [degree]:                                90.000000
 CELL_CIF| Numerically orthorhombic:                                         YES
 CELL_CIF| Periodicity                                                       XYZ

 GENERATE|  Preliminary Number of Bonds generated:                             0
 GENERATE|  Achieved consistency in connectivity generation.

 CELL| Volume [angstrom^3]:                                            32.451991
 CELL| Vector a [angstrom]:       3.190     0.000     0.000   |a| =     3.189680
 CELL| Vector b [angstrom]:       0.000     3.190     0.000   |b| =     3.189680
 CELL| Vector c [angstrom]:       0.000     0.000     3.190   |c| =     3.189680
 CELL| Angle (b,c), alpha [degree]:                                    90.000000
 CELL| Angle (a,c), beta  [degree]:                                    90.000000
 CELL| Angle (a,b), gamma [degree]:                                    90.000000
 CELL| Numerically orthorhombic:                                             YES
 CELL| Periodicity                                                           XYZ

 CELL_REF| Volume [angstrom^3]:                                        32.451991
 CELL_REF| Vector a [angstrom     3.190     0.000     0.000   |a| =     3.189680
 CELL_REF| Vector b [angstrom     0.000     3.190     0.000   |b| =     3.189680
 CELL_REF| Vector c [angstrom     0.000     0.000     3.190   |c| =     3.189680
 CELL_REF| Angle (b,c), alpha [degree]:                                90.000000
 CELL_REF| Angle (a,c), beta  [degree]:                                90.000000
 CELL_REF| Angle (a,b), gamma [degree]:                                90.000000
 CELL_REF| Numerically orthorhombic:                                         YES
 CELL_REF| Periodicity                                                       XYZ

 *** WARNING in cryssym.F:180 :: Symmetry library SPGLIB not available ***


 *******************************************************************************
                                    Kpoints
 *******************************************************************************
 BRILLOUIN| K-point scheme                                        Monkhorst-Pack
 BRILLOUIN| K-Point grid                                             8    8    8
 BRILLOUIN| Accuracy in Symmetry determination                      0.100000E-05
 BRILLOUIN| K-Point point group symmetrization                               OFF
 BRILLOUIN| Wavefunction type                                            COMPLEX
 BRILLOUIN| List of Kpoints [2 Pi/Bohr]                                      256
 BRILLOUIN| Number           Weight            X              Y              Z
 BRILLOUIN|     1           0.00391       -0.43750       -0.43750       -0.43750
 BRILLOUIN|     2           0.00391       -0.43750       -0.43750       -0.31250
 BRILLOUIN|     3           0.00391       -0.43750       -0.43750       -0.18750
 BRILLOUIN|     4           0.00391       -0.43750       -0.43750       -0.06250
 BRILLOUIN|     5           0.00391       -0.43750       -0.43750        0.06250
 BRILLOUIN|     6           0.00391       -0.43750       -0.43750        0.18750
 BRILLOUIN|     7           0.00391       -0.43750       -0.43750        0.31250
 BRILLOUIN|     8           0.00391       -0.43750       -0.43750        0.43750
 BRILLOUIN|     9           0.00391       -0.43750       -0.31250       -0.43750
 BRILLOUIN|    10           0.00391       -0.43750       -0.31250       -0.31250
 BRILLOUIN|    11           0.00391       -0.43750       -0.31250       -0.18750
 BRILLOUIN|    12           0.00391       -0.43750       -0.31250       -0.06250
 BRILLOUIN|    13           0.00391       -0.43750       -0.31250        0.06250
 BRILLOUIN|    14           0.00391       -0.43750       -0.31250        0.18750
 BRILLOUIN|    15           0.00391       -0.43750       -0.31250        0.31250
 BRILLOUIN|    16           0.00391       -0.43750       -0.31250        0.43750
 BRILLOUIN|    17           0.00391       -0.43750       -0.18750       -0.43750
 BRILLOUIN|    18           0.00391       -0.43750       -0.18750       -0.31250
 BRILLOUIN|    19           0.00391       -0.43750       -0.18750       -0.18750
 BRILLOUIN|    20           0.00391       -0.43750       -0.18750       -0.06250
 BRILLOUIN|    21           0.00391       -0.43750       -0.18750        0.06250
 BRILLOUIN|    22           0.00391       -0.43750       -0.18750        0.18750
 BRILLOUIN|    23           0.00391       -0.43750       -0.18750        0.31250
 BRILLOUIN|    24           0.00391       -0.43750       -0.18750        0.43750
 BRILLOUIN|    25           0.00391       -0.43750       -0.06250       -0.43750
 BRILLOUIN|    26           0.00391       -0.43750       -0.06250       -0.31250
 BRILLOUIN|    27           0.00391       -0.43750       -0.06250       -0.18750
 BRILLOUIN|    28           0.00391       -0.43750       -0.06250       -0.06250
 BRILLOUIN|    29           0.00391       -0.43750       -0.06250        0.06250
 BRILLOUIN|    30           0.00391       -0.43750       -0.06250        0.18750
 BRILLOUIN|    31           0.00391       -0.43750       -0.06250        0.31250
 BRILLOUIN|    32           0.00391       -0.43750       -0.06250        0.43750
 BRILLOUIN|    33           0.00391       -0.43750        0.06250       -0.43750
 BRILLOUIN|    34           0.00391       -0.43750        0.06250       -0.31250
 BRILLOUIN|    35           0.00391       -0.43750        0.06250       -0.18750
 BRILLOUIN|    36           0.00391       -0.43750        0.06250       -0.06250
 BRILLOUIN|    37           0.00391       -0.43750        0.06250        0.06250
 BRILLOUIN|    38           0.00391       -0.43750        0.06250        0.18750
 BRILLOUIN|    39           0.00391       -0.43750        0.06250        0.31250
 BRILLOUIN|    40           0.00391       -0.43750        0.06250        0.43750
 BRILLOUIN|    41           0.00391       -0.43750        0.18750       -0.43750
 BRILLOUIN|    42           0.00391       -0.43750        0.18750       -0.31250
 BRILLOUIN|    43           0.00391       -0.43750        0.18750       -0.18750
 BRILLOUIN|    44           0.00391       -0.43750        0.18750       -0.06250
 BRILLOUIN|    45           0.00391       -0.43750        0.18750        0.06250
 BRILLOUIN|    46           0.00391       -0.43750        0.18750        0.18750
 BRILLOUIN|    47           0.00391       -0.43750        0.18750        0.31250
 BRILLOUIN|    48           0.00391       -0.43750        0.18750        0.43750
 BRILLOUIN|    49           0.00391       -0.43750        0.31250       -0.43750
 BRILLOUIN|    50           0.00391       -0.43750        0.31250       -0.31250
 BRILLOUIN|    51           0.00391       -0.43750        0.31250       -0.18750
 BRILLOUIN|    52           0.00391       -0.43750        0.31250       -0.06250
 BRILLOUIN|    53           0.00391       -0.43750        0.31250        0.06250
 BRILLOUIN|    54           0.00391       -0.43750        0.31250        0.18750
 BRILLOUIN|    55           0.00391       -0.43750        0.31250        0.31250
 BRILLOUIN|    56           0.00391       -0.43750        0.31250        0.43750
 BRILLOUIN|    57           0.00391       -0.43750        0.43750       -0.43750
 BRILLOUIN|    58           0.00391       -0.43750        0.43750       -0.31250
 BRILLOUIN|    59           0.00391       -0.43750        0.43750       -0.18750
 BRILLOUIN|    60           0.00391       -0.43750        0.43750       -0.06250
 BRILLOUIN|    61           0.00391       -0.43750        0.43750        0.06250
 BRILLOUIN|    62           0.00391       -0.43750        0.43750        0.18750
 BRILLOUIN|    63           0.00391       -0.43750        0.43750        0.31250
 BRILLOUIN|    64           0.00391       -0.43750        0.43750        0.43750
 BRILLOUIN|    65           0.00391       -0.31250       -0.43750       -0.43750
 BRILLOUIN|    66           0.00391       -0.31250       -0.43750       -0.31250
 BRILLOUIN|    67           0.00391       -0.31250       -0.43750       -0.18750
 BRILLOUIN|    68           0.00391       -0.31250       -0.43750       -0.06250
 BRILLOUIN|    69           0.00391       -0.31250       -0.43750        0.06250
 BRILLOUIN|    70           0.00391       -0.31250       -0.43750        0.18750
 BRILLOUIN|    71           0.00391       -0.31250       -0.43750        0.31250
 BRILLOUIN|    72           0.00391       -0.31250       -0.43750        0.43750
 BRILLOUIN|    73           0.00391       -0.31250       -0.31250       -0.43750
 BRILLOUIN|    74           0.00391       -0.31250       -0.31250       -0.31250
 BRILLOUIN|    75           0.00391       -0.31250       -0.31250       -0.18750
 BRILLOUIN|    76           0.00391       -0.31250       -0.31250       -0.06250
 BRILLOUIN|    77           0.00391       -0.31250       -0.31250        0.06250
 BRILLOUIN|    78           0.00391       -0.31250       -0.31250        0.18750
 BRILLOUIN|    79           0.00391       -0.31250       -0.31250        0.31250
 BRILLOUIN|    80           0.00391       -0.31250       -0.31250        0.43750
 BRILLOUIN|    81           0.00391       -0.31250       -0.18750       -0.43750
 BRILLOUIN|    82           0.00391       -0.31250       -0.18750       -0.31250
 BRILLOUIN|    83           0.00391       -0.31250       -0.18750       -0.18750
 BRILLOUIN|    84           0.00391       -0.31250       -0.18750       -0.06250
 BRILLOUIN|    85           0.00391       -0.31250       -0.18750        0.06250
 BRILLOUIN|    86           0.00391       -0.31250       -0.18750        0.18750
 BRILLOUIN|    87           0.00391       -0.31250       -0.18750        0.31250
 BRILLOUIN|    88           0.00391       -0.31250       -0.18750        0.43750
 BRILLOUIN|    89           0.00391       -0.31250       -0.06250       -0.43750
 BRILLOUIN|    90           0.00391       -0.31250       -0.06250       -0.31250
 BRILLOUIN|    91           0.00391       -0.31250       -0.06250       -0.18750
 BRILLOUIN|    92           0.00391       -0.31250       -0.06250       -0.06250
 BRILLOUIN|    93           0.00391       -0.31250       -0.06250        0.06250
 BRILLOUIN|    94           0.00391       -0.31250       -0.06250        0.18750
 BRILLOUIN|    95           0.00391       -0.31250       -0.06250        0.31250
 BRILLOUIN|    96           0.00391       -0.31250       -0.06250        0.43750
 BRILLOUIN|    97           0.00391       -0.31250        0.06250       -0.43750
 BRILLOUIN|    98           0.00391       -0.31250        0.06250       -0.31250
 BRILLOUIN|    99           0.00391       -0.31250        0.06250       -0.18750
 BRILLOUIN|   100           0.00391       -0.31250        0.06250       -0.06250
 BRILLOUIN|   101           0.00391       -0.31250        0.06250        0.06250
 BRILLOUIN|   102           0.00391       -0.31250        0.06250        0.18750
 BRILLOUIN|   103           0.00391       -0.31250        0.06250        0.31250
 BRILLOUIN|   104           0.00391       -0.31250        0.06250        0.43750
 BRILLOUIN|   105           0.00391       -0.31250        0.18750       -0.43750
 BRILLOUIN|   106           0.00391       -0.31250        0.18750       -0.31250
 BRILLOUIN|   107           0.00391       -0.31250        0.18750       -0.18750
 BRILLOUIN|   108           0.00391       -0.31250        0.18750       -0.06250
 BRILLOUIN|   109           0.00391       -0.31250        0.18750        0.06250
 BRILLOUIN|   110           0.00391       -0.31250        0.18750        0.18750
 BRILLOUIN|   111           0.00391       -0.31250        0.18750        0.31250
 BRILLOUIN|   112           0.00391       -0.31250        0.18750        0.43750
 BRILLOUIN|   113           0.00391       -0.31250        0.31250       -0.43750
 BRILLOUIN|   114           0.00391       -0.31250        0.31250       -0.31250
 BRILLOUIN|   115           0.00391       -0.31250        0.31250       -0.18750
 BRILLOUIN|   116           0.00391       -0.31250        0.31250       -0.06250
 BRILLOUIN|   117           0.00391       -0.31250        0.31250        0.06250
 BRILLOUIN|   118           0.00391       -0.31250        0.31250        0.18750
 BRILLOUIN|   119           0.00391       -0.31250        0.31250        0.31250
 BRILLOUIN|   120           0.00391       -0.31250        0.31250        0.43750
 BRILLOUIN|   121           0.00391       -0.31250        0.43750       -0.43750
 BRILLOUIN|   122           0.00391       -0.31250        0.43750       -0.31250
 BRILLOUIN|   123           0.00391       -0.31250        0.43750       -0.18750
 BRILLOUIN|   124           0.00391       -0.31250        0.43750       -0.06250
 BRILLOUIN|   125           0.00391       -0.31250        0.43750        0.06250
 BRILLOUIN|   126           0.00391       -0.31250        0.43750        0.18750
 BRILLOUIN|   127           0.00391       -0.31250        0.43750        0.31250
 BRILLOUIN|   128           0.00391       -0.31250        0.43750        0.43750
 BRILLOUIN|   129           0.00391       -0.18750       -0.43750       -0.43750
 BRILLOUIN|   130           0.00391       -0.18750       -0.43750       -0.31250
 BRILLOUIN|   131           0.00391       -0.18750       -0.43750       -0.18750
 BRILLOUIN|   132           0.00391       -0.18750       -0.43750       -0.06250
 BRILLOUIN|   133           0.00391       -0.18750       -0.43750        0.06250
 BRILLOUIN|   134           0.00391       -0.18750       -0.43750        0.18750
 BRILLOUIN|   135           0.00391       -0.18750       -0.43750        0.31250
 BRILLOUIN|   136           0.00391       -0.18750       -0.43750        0.43750
 BRILLOUIN|   137           0.00391       -0.18750       -0.31250       -0.43750
 BRILLOUIN|   138           0.00391       -0.18750       -0.31250       -0.31250
 BRILLOUIN|   139           0.00391       -0.18750       -0.31250       -0.18750
 BRILLOUIN|   140           0.00391       -0.18750       -0.31250       -0.06250
 BRILLOUIN|   141           0.00391       -0.18750       -0.31250        0.06250
 BRILLOUIN|   142           0.00391       -0.18750       -0.31250        0.18750
 BRILLOUIN|   143           0.00391       -0.18750       -0.31250        0.31250
 BRILLOUIN|   144           0.00391       -0.18750       -0.31250        0.43750
 BRILLOUIN|   145           0.00391       -0.18750       -0.18750       -0.43750
 BRILLOUIN|   146           0.00391       -0.18750       -0.18750       -0.31250
 BRILLOUIN|   147           0.00391       -0.18750       -0.18750       -0.18750
 BRILLOUIN|   148           0.00391       -0.18750       -0.18750       -0.06250
 BRILLOUIN|   149           0.00391       -0.18750       -0.18750        0.06250
 BRILLOUIN|   150           0.00391       -0.18750       -0.18750        0.18750
 BRILLOUIN|   151           0.00391       -0.18750       -0.18750        0.31250
 BRILLOUIN|   152           0.00391       -0.18750       -0.18750        0.43750
 BRILLOUIN|   153           0.00391       -0.18750       -0.06250       -0.43750
 BRILLOUIN|   154           0.00391       -0.18750       -0.06250       -0.31250
 BRILLOUIN|   155           0.00391       -0.18750       -0.06250       -0.18750
 BRILLOUIN|   156           0.00391       -0.18750       -0.06250       -0.06250
 BRILLOUIN|   157           0.00391       -0.18750       -0.06250        0.06250
 BRILLOUIN|   158           0.00391       -0.18750       -0.06250        0.18750
 BRILLOUIN|   159           0.00391       -0.18750       -0.06250        0.31250
 BRILLOUIN|   160           0.00391       -0.18750       -0.06250        0.43750
 BRILLOUIN|   161           0.00391       -0.18750        0.06250       -0.43750
 BRILLOUIN|   162           0.00391       -0.18750        0.06250       -0.31250
 BRILLOUIN|   163           0.00391       -0.18750        0.06250       -0.18750
 BRILLOUIN|   164           0.00391       -0.18750        0.06250       -0.06250
 BRILLOUIN|   165           0.00391       -0.18750        0.06250        0.06250
 BRILLOUIN|   166           0.00391       -0.18750        0.06250        0.18750
 BRILLOUIN|   167           0.00391       -0.18750        0.06250        0.31250
 BRILLOUIN|   168           0.00391       -0.18750        0.06250        0.43750
 BRILLOUIN|   169           0.00391       -0.18750        0.18750       -0.43750
 BRILLOUIN|   170           0.00391       -0.18750        0.18750       -0.31250
 BRILLOUIN|   171           0.00391       -0.18750        0.18750       -0.18750
 BRILLOUIN|   172           0.00391       -0.18750        0.18750       -0.06250
 BRILLOUIN|   173           0.00391       -0.18750        0.18750        0.06250
 BRILLOUIN|   174           0.00391       -0.18750        0.18750        0.18750
 BRILLOUIN|   175           0.00391       -0.18750        0.18750        0.31250
 BRILLOUIN|   176           0.00391       -0.18750        0.18750        0.43750
 BRILLOUIN|   177           0.00391       -0.18750        0.31250       -0.43750
 BRILLOUIN|   178           0.00391       -0.18750        0.31250       -0.31250
 BRILLOUIN|   179           0.00391       -0.18750        0.31250       -0.18750
 BRILLOUIN|   180           0.00391       -0.18750        0.31250       -0.06250
 BRILLOUIN|   181           0.00391       -0.18750        0.31250        0.06250
 BRILLOUIN|   182           0.00391       -0.18750        0.31250        0.18750
 BRILLOUIN|   183           0.00391       -0.18750        0.31250        0.31250
 BRILLOUIN|   184           0.00391       -0.18750        0.31250        0.43750
 BRILLOUIN|   185           0.00391       -0.18750        0.43750       -0.43750
 BRILLOUIN|   186           0.00391       -0.18750        0.43750       -0.31250
 BRILLOUIN|   187           0.00391       -0.18750        0.43750       -0.18750
 BRILLOUIN|   188           0.00391       -0.18750        0.43750       -0.06250
 BRILLOUIN|   189           0.00391       -0.18750        0.43750        0.06250
 BRILLOUIN|   190           0.00391       -0.18750        0.43750        0.18750
 BRILLOUIN|   191           0.00391       -0.18750        0.43750        0.31250
 BRILLOUIN|   192           0.00391       -0.18750        0.43750        0.43750
 BRILLOUIN|   193           0.00391       -0.06250       -0.43750       -0.43750
 BRILLOUIN|   194           0.00391       -0.06250       -0.43750       -0.31250
 BRILLOUIN|   195           0.00391       -0.06250       -0.43750       -0.18750
 BRILLOUIN|   196           0.00391       -0.06250       -0.43750       -0.06250
 BRILLOUIN|   197           0.00391       -0.06250       -0.43750        0.06250
 BRILLOUIN|   198           0.00391       -0.06250       -0.43750        0.18750
 BRILLOUIN|   199           0.00391       -0.06250       -0.43750        0.31250
 BRILLOUIN|   200           0.00391       -0.06250       -0.43750        0.43750
 BRILLOUIN|   201           0.00391       -0.06250       -0.31250       -0.43750
 BRILLOUIN|   202           0.00391       -0.06250       -0.31250       -0.31250
 BRILLOUIN|   203           0.00391       -0.06250       -0.31250       -0.18750
 BRILLOUIN|   204           0.00391       -0.06250       -0.31250       -0.06250
 BRILLOUIN|   205           0.00391       -0.06250       -0.31250        0.06250
 BRILLOUIN|   206           0.00391       -0.06250       -0.31250        0.18750
 BRILLOUIN|   207           0.00391       -0.06250       -0.31250        0.31250
 BRILLOUIN|   208           0.00391       -0.06250       -0.31250        0.43750
 BRILLOUIN|   209           0.00391       -0.06250       -0.18750       -0.43750
 BRILLOUIN|   210           0.00391       -0.06250       -0.18750       -0.31250
 BRILLOUIN|   211           0.00391       -0.06250       -0.18750       -0.18750
 BRILLOUIN|   212           0.00391       -0.06250       -0.18750       -0.06250
 BRILLOUIN|   213           0.00391       -0.06250       -0.18750        0.06250
 BRILLOUIN|   214           0.00391       -0.06250       -0.18750        0.18750
 BRILLOUIN|   215           0.00391       -0.06250       -0.18750        0.31250
 BRILLOUIN|   216           0.00391       -0.06250       -0.18750        0.43750
 BRILLOUIN|   217           0.00391       -0.06250       -0.06250       -0.43750
 BRILLOUIN|   218           0.00391       -0.06250       -0.06250       -0.31250
 BRILLOUIN|   219           0.00391       -0.06250       -0.06250       -0.18750
 BRILLOUIN|   220           0.00391       -0.06250       -0.06250       -0.06250
 BRILLOUIN|   221           0.00391       -0.06250       -0.06250        0.06250
 BRILLOUIN|   222           0.00391       -0.06250       -0.06250        0.18750
 BRILLOUIN|   223           0.00391       -0.06250       -0.06250        0.31250
 BRILLOUIN|   224           0.00391       -0.06250       -0.06250        0.43750
 BRILLOUIN|   225           0.00391       -0.06250        0.06250       -0.43750
 BRILLOUIN|   226           0.00391       -0.06250        0.06250       -0.31250
 BRILLOUIN|   227           0.00391       -0.06250        0.06250       -0.18750
 BRILLOUIN|   228           0.00391       -0.06250        0.06250       -0.06250
 BRILLOUIN|   229           0.00391       -0.06250        0.06250        0.06250
 BRILLOUIN|   230           0.00391       -0.06250        0.06250        0.18750
 BRILLOUIN|   231           0.00391       -0.06250        0.06250        0.31250
 BRILLOUIN|   232           0.00391       -0.06250        0.06250        0.43750
 BRILLOUIN|   233           0.00391       -0.06250        0.18750       -0.43750
 BRILLOUIN|   234           0.00391       -0.06250        0.18750       -0.31250
 BRILLOUIN|   235           0.00391       -0.06250        0.18750       -0.18750
 BRILLOUIN|   236           0.00391       -0.06250        0.18750       -0.06250
 BRILLOUIN|   237           0.00391       -0.06250        0.18750        0.06250
 BRILLOUIN|   238           0.00391       -0.06250        0.18750        0.18750
 BRILLOUIN|   239           0.00391       -0.06250        0.18750        0.31250
 BRILLOUIN|   240           0.00391       -0.06250        0.18750        0.43750
 BRILLOUIN|   241           0.00391       -0.06250        0.31250       -0.43750
 BRILLOUIN|   242           0.00391       -0.06250        0.31250       -0.31250
 BRILLOUIN|   243           0.00391       -0.06250        0.31250       -0.18750
 BRILLOUIN|   244           0.00391       -0.06250        0.31250       -0.06250
 BRILLOUIN|   245           0.00391       -0.06250        0.31250        0.06250
 BRILLOUIN|   246           0.00391       -0.06250        0.31250        0.18750
 BRILLOUIN|   247           0.00391       -0.06250        0.31250        0.31250
 BRILLOUIN|   248           0.00391       -0.06250        0.31250        0.43750
 BRILLOUIN|   249           0.00391       -0.06250        0.43750       -0.43750
 BRILLOUIN|   250           0.00391       -0.06250        0.43750       -0.31250
 BRILLOUIN|   251           0.00391       -0.06250        0.43750       -0.18750
 BRILLOUIN|   252           0.00391       -0.06250        0.43750       -0.06250
 BRILLOUIN|   253           0.00391       -0.06250        0.43750        0.06250
 BRILLOUIN|   254           0.00391       -0.06250        0.43750        0.18750
 BRILLOUIN|   255           0.00391       -0.06250        0.43750        0.31250
 BRILLOUIN|   256           0.00391       -0.06250        0.43750        0.43750
 *******************************************************************************

 *******************************************************************************
 *******************************************************************************
 **                                                                           **
 **     #####                         ##              ##                      **
 **    ##   ##            ##          ##              ##                      **
 **   ##     ##                       ##            ######                    **
 **   ##     ##  ##   ##  ##   #####  ##  ##   ####   ##    #####    #####    **
 **   ##     ##  ##   ##  ##  ##      ## ##   ##      ##   ##   ##  ##   ##   **
 **   ##  ## ##  ##   ##  ##  ##      ####     ###    ##   ######   ######    **
 **    ##  ###   ##   ##  ##  ##      ## ##      ##   ##   ##       ##        **
 **     #######   #####   ##   #####  ##  ##  ####    ##    #####   ##        **
 **           ##                                                    ##        **
 **                                                                           **
 **                                                ... make the atoms dance   **
 **                                                                           **
 **            Copyright (C) by CP2K developers group (2000-2025)             **
 **                      J. Chem. Phys. 152, 194103 (2020)                    **
 **                                                                           **
 *******************************************************************************

 DFT| Spin restricted Kohn-Sham (RKS) calculation                            RKS
 DFT| Multiplicity                                                             1
 DFT| Number of spin states                                                    1
 DFT| Charge                                                                   0
 DFT| Self-interaction correction (SIC)                                       NO
 DFT| Cutoffs: density                                              1.000000E-10
 DFT|          gradient                                             1.000000E-10
 DFT|          tau                                                  1.000000E-10
 DFT|          cutoff_smoothing_range                               0.000000E+00
 DFT| XC density smoothing                                                  NONE
 DFT| XC derivatives                                                          PW

 FUNCTIONAL| PBE:
 FUNCTIONAL| J.P.Perdew, K.Burke, M.Ernzerhof, Phys. Rev. Letter, vol. 77, n 18,
 FUNCTIONAL|  pp. 3865-3868, (1996) {spin unpolarized}                          


 QS| Method:                                                                 GPW
 QS| Density plane wave grid type                        NON-SPHERICAL FULLSPACE
 QS| Number of grid levels:                                                    4
 QS| Density cutoff [a.u.]:                                                500.0
 QS| Multi grid cutoff [a.u.]: 1) grid level                               500.0
 QS|                           2) grid level                               166.7
 QS|                           3) grid level                                55.6
 QS|                           4) grid level                                18.5
 QS| Grid level progression factor:                                          3.0
 QS| Relative density cutoff [a.u.]:                                        50.0
 QS| Interaction thresholds: eps_pgf_orb:                                1.0E-16
 QS|                         eps_filter_matrix:                          0.0E+00
 QS|                         eps_core_charge:                            1.0E-18
 QS|                         eps_rho_gspace:                             1.0E-16
 QS|                         eps_rho_rspace:                             1.0E-16
 QS|                         eps_gvg_rspace:                             1.0E-08
 QS|                         eps_ppl:                                    1.0E-02
 QS|                         eps_ppnl:                                   1.0E-10


 ATOMIC KIND INFORMATION

  1. Atomic kind: W                                     Number of atoms:       2

     Orbital Basis Set                                 aug-SZV-MOLOPT-GTH-tier-1

       Number of orbital shell sets:                                           1
       Number of orbital shells:                                               7
       Number of primitive Cartesian functions:                                6
       Number of Cartesian basis functions:                                   21
       Number of spherical basis functions:                                   19
       Norm type:                                                              2

       Normalised Cartesian orbitals:

                        Set   Shell   Orbital            Exponent    Coefficient

                          1       1    2s                0.074663      -0.014288
                                                         0.214447      -0.013622
                                                         0.501100      -0.158409
                                                         1.106151      -0.674409
                                                         2.893835       0.343543
                                                         3.103254       0.529378

                          1       2    3s                0.074663       0.097561
                                                         0.214447       0.068378
                                                         0.501100      -0.211692
                                                         1.106151      -0.477566
                                                         2.893835       0.569553
                                                         3.103254      -0.097470

                          1       3    4s                0.074663      -0.117478
                                                         0.214447       0.023597
                                                         0.501100       0.042229
                                                         1.106151       0.105041
                                                         2.893835       0.000000
                                                         3.103254       0.000000

                          1       4    3px               0.074663       0.000342
                                                         0.214447      -0.010443
                                                         0.501100      -0.267353
                                                         1.106151      -0.965855
                                                         2.893835      -5.556400
                                                         3.103254       6.695542
                          1       4    3py               0.074663       0.000342
                                                         0.214447      -0.010443
                                                         0.501100      -0.267353
                                                         1.106151      -0.965855
                                                         2.893835      -5.556400
                                                         3.103254       6.695542
                          1       4    3pz               0.074663       0.000342
                                                         0.214447      -0.010443
                                                         0.501100      -0.267353
                                                         1.106151      -0.965855
                                                         2.893835      -5.556400
                                                         3.103254       6.695542

                          1       5    4px               0.074663      -0.051441
                                                         0.214447       0.049646
                                                         0.501100      -0.386614
                                                         1.106151       0.354093
                                                         2.893835       0.000000
                                                         3.103254       0.000000
                          1       5    4py               0.074663      -0.051441
                                                         0.214447       0.049646
                                                         0.501100      -0.386614
                                                         1.106151       0.354093
                                                         2.893835       0.000000
                                                         3.103254       0.000000
                          1       5    4pz               0.074663      -0.051441
                                                         0.214447       0.049646
                                                         0.501100      -0.386614
                                                         1.106151       0.354093
                                                         2.893835       0.000000
                                                         3.103254       0.000000

                          1       6    4dx2              0.074663       0.002139
                                                         0.214447       0.042391
                                                         0.501100       0.198591
                                                         1.106151       0.570194
                                                         2.893835       1.052045
                                                         3.103254      -0.912711
                          1       6    4dxy              0.074663       0.003705
                                                         0.214447       0.073424
                                                         0.501100       0.343970
                                                         1.106151       0.987605
                                                         2.893835       1.822195
                                                         3.103254      -1.580861
                          1       6    4dxz              0.074663       0.003705
                                                         0.214447       0.073424
                                                         0.501100       0.343970
                                                         1.106151       0.987605
                                                         2.893835       1.822195
                                                         3.103254      -1.580861
                          1       6    4dy2              0.074663       0.002139
                                                         0.214447       0.042391
                                                         0.501100       0.198591
                                                         1.106151       0.570194
                                                         2.893835       1.052045
                                                         3.103254      -0.912711
                          1       6    4dyz              0.074663       0.003705
                                                         0.214447       0.073424
                                                         0.501100       0.343970
                                                         1.106151       0.987605
                                                         2.893835       1.822195
                                                         3.103254      -1.580861
                          1       6    4dz2              0.074663       0.002139
                                                         0.214447       0.042391
                                                         0.501100       0.198591
                                                         1.106151       0.570194
                                                         2.893835       1.052045
                                                         3.103254      -0.912711

                          1       7    5dx2              0.074663       0.006090
                                                         0.214447       0.038739
                                                         0.501100       0.127084
                                                         1.106151       0.684082
                                                         2.893835       0.000000
                                                         3.103254       0.000000
                          1       7    5dxy              0.074663       0.010549
                                                         0.214447       0.067098
                                                         0.501100       0.220115
                                                         1.106151       1.184864
                                                         2.893835       0.000000
                                                         3.103254       0.000000
                          1       7    5dxz              0.074663       0.010549
                                                         0.214447       0.067098
                                                         0.501100       0.220115
                                                         1.106151       1.184864
                                                         2.893835       0.000000
                                                         3.103254       0.000000
                          1       7    5dy2              0.074663       0.006090
                                                         0.214447       0.038739
                                                         0.501100       0.127084
                                                         1.106151       0.684082
                                                         2.893835       0.000000
                                                         3.103254       0.000000
                          1       7    5dyz              0.074663       0.010549
                                                         0.214447       0.067098
                                                         0.501100       0.220115
                                                         1.106151       1.184864
                                                         2.893835       0.000000
                                                         3.103254       0.000000
                          1       7    5dz2              0.074663       0.006090
                                                         0.214447       0.038739
                                                         0.501100       0.127084
                                                         1.106151       0.684082
                                                         2.893835       0.000000
                                                         3.103254       0.000000

       Atomic covalent radius [Angstrom]:                                  1.300

       Atomic van der Waals radius [Angstrom]:                             1.670

     GTH Potential information for                                       GTH-PBE

       Description:                       Goedecker-Teter-Hutter pseudopotential
                                           Goedecker et al., PRB 54, 1703 (1996)
                                          Hartwigsen et al., PRB 58, 3641 (1998)
                                                      Krack, TCA 114, 145 (2005)

       Gaussian exponent of the core charge distribution:               1.714678
       Electronic configuration (s p d ...):                           4   6   4

       Parameters of the local part of the GTH pseudopotential:

                          rloc        C1          C2          C3          C4
                        0.540000   13.414811   -2.213456

       Parameters of the non-local part of the GTH (SOC) pseudopotential:

                   l      r(l)      h(i,j,l)
                                    k(i,j,l)
                   0    0.397028   -4.141211    3.835423    2.233179
                                    3.835423   -1.319244   -5.766044
                                    2.233179   -5.766044    4.576656
                   1    0.353531   -7.456236    8.112326    0.000000
                                    8.112326   -9.598634    0.000000
                                    0.000000    0.000000    0.000000
                                    1.424856   -0.047910   -0.233482
                                   -0.047910   -0.332024    0.552519
                                   -0.233482    0.552519   -0.392678
                   2    0.412107   -0.954661   -1.067446
                                   -1.067446    1.210370
                                    0.070160    0.013189
                                    0.013189   -0.014954


 MOLECULE KIND INFORMATION


 All atoms are their own molecule, skipping detailed information


 TOTAL NUMBERS AND MAXIMUM NUMBERS

  Total number of            - Atomic kinds:                                   1
                             - Atoms:                                          2
                             - Shell sets:                                     2
                             - Shells:                                        14
                             - Primitive Cartesian functions:                 12
                             - Cartesian basis functions:                     42
                             - Spherical basis functions:                     38

  Maximum angular momentum of- Orbital basis functions:                        2
                             - Local part of the GTH pseudopotential:          2
                             - Non-local part of the GTH pseudopotential:      5


 MODULE QUICKSTEP: ATOMIC COORDINATES IN ANGSTROM

   Atom Kind Element         X             Y             Z       Z(eff)     Mass
      1    1 W    74      0.000000      0.000000      0.000000  14.0000 183.8400
      2    1 W    74      1.594840      1.594840      1.594840  14.0000 183.8400



 SCF PARAMETERS         Density guess:                                    ATOMIC
                        --------------------------------------------------------
                        max_scf:                                             500
                        max_scf_history:                                       0
                        max_diis:                                              4
                        --------------------------------------------------------
                        eps_scf:                                        1.00E-09
                        eps_scf_history:                                0.00E+00
                        eps_diis:                                       1.00E-01
                        eps_eigval:                                     1.00E-05
                        --------------------------------------------------------
                        level_shift [a.u.]:                             0.000000
                        added MOs                                        24    0
                        --------------------------------------------------------
                        Mixing method:                            BROYDEN_MIXING
                                                charge density mixing in g-space
                        --------------------------------------------------------
                        Smear method:                                FERMI_DIRAC
                        Electronic temperature [K]:                        300.0
                        Electronic temperature [a.u.]:                  9.50E-04
                        Accuracy threshold:                             1.00E-10
                        --------------------------------------------------------
                        No outer SCF

 PW_GRID| Information for grid number                                          1
 PW_GRID| Grid distributed over                                     8 processors
 PW_GRID| Real space group dimensions                                     8    1
 PW_GRID| the grid is blocked:                                                NO
 PW_GRID| Cutoff [a.u.]                                                    500.0
 PW_GRID| spherical cutoff:                                                   NO
 PW_GRID|   Bounds   1            -32      31                Points:          64
 PW_GRID|   Bounds   2            -32      31                Points:          64
 PW_GRID|   Bounds   3            -32      31                Points:          64
 PW_GRID| Volume element (a.u.^3)  0.8354E-03     Volume (a.u.^3)       218.9969
 PW_GRID| Grid span                                                    FULLSPACE
 PW_GRID|   Distribution                         Average         Max         Min
 PW_GRID|   G-Vectors                            32768.0       32768       32768
 PW_GRID|   G-Rays                                 512.0         512         512
 PW_GRID|   Real Space Points                    32768.0       32768       32768

 PW_GRID| Information for grid number                                          2
 PW_GRID| Number of the reference grid                                         1
 PW_GRID| Grid distributed over                                     8 processors
 PW_GRID| Real space group dimensions                                     8    1
 PW_GRID| the grid is blocked:                                                NO
 PW_GRID| Cutoff [a.u.]                                                    166.7
 PW_GRID| spherical cutoff:                                                   NO
 PW_GRID|   Bounds   1            -18      17                Points:          36
 PW_GRID|   Bounds   2            -18      17                Points:          36
 PW_GRID|   Bounds   3            -18      17                Points:          36
 PW_GRID| Volume element (a.u.^3)  0.4694E-02     Volume (a.u.^3)       218.9969
 PW_GRID| Grid span                                                    FULLSPACE
 PW_GRID|   Distribution                         Average         Max         Min
 PW_GRID|   G-Vectors                             5832.0        5904        5796
 PW_GRID|   G-Rays                                 162.0         164         161
 PW_GRID|   Real Space Points                     5832.0        6480        5184

 PW_GRID| Information for grid number                                          3
 PW_GRID| Number of the reference grid                                         1
 PW_GRID| Grid distributed over                                     8 processors
 PW_GRID| Real space group dimensions                                     8    1
 PW_GRID| the grid is blocked:                                                NO
 PW_GRID| Cutoff [a.u.]                                                     55.6
 PW_GRID| spherical cutoff:                                                   NO
 PW_GRID|   Bounds   1            -12      11                Points:          24
 PW_GRID|   Bounds   2            -12      11                Points:          24
 PW_GRID|   Bounds   3            -12      11                Points:          24
 PW_GRID| Volume element (a.u.^3)  0.1584E-01     Volume (a.u.^3)       218.9969
 PW_GRID| Grid span                                                    FULLSPACE
 PW_GRID|   Distribution                         Average         Max         Min
 PW_GRID|   G-Vectors                             1728.0        1800        1680
 PW_GRID|   G-Rays                                  72.0          75          70
 PW_GRID|   Real Space Points                     1728.0        1728        1728

 PW_GRID| Information for grid number                                          4
 PW_GRID| Number of the reference grid                                         1
 PW_GRID| Grid distributed over                                     8 processors
 PW_GRID| Real space group dimensions                                     8    1
 PW_GRID| the grid is blocked:                                                NO
 PW_GRID| Cutoff [a.u.]                                                     18.5
 PW_GRID| spherical cutoff:                                                   NO
 PW_GRID|   Bounds   1             -6       5                Points:          12
 PW_GRID|   Bounds   2             -6       5                Points:          12
 PW_GRID|   Bounds   3             -6       5                Points:          12
 PW_GRID| Volume element (a.u.^3)  0.1267         Volume (a.u.^3)       218.9969
 PW_GRID| Grid span                                                    FULLSPACE
 PW_GRID|   Distribution                         Average         Max         Min
 PW_GRID|   G-Vectors                              216.0         240         204
 PW_GRID|   G-Rays                                  18.0          20          17
 PW_GRID|   Real Space Points                      216.0         288         144

 POISSON| Solver                                                        PERIODIC
 POISSON| Periodicity                                                        XYZ

 RS_GRID| Information for grid number                                          1
 RS_GRID|   Bounds   1            -32      31                Points:          64
 RS_GRID|   Bounds   2            -32      31                Points:          64
 RS_GRID|   Bounds   3            -32      31                Points:          64
 RS_GRID| Real space fully replicated
 RS_GRID| Group size                                                           1

 RS_GRID| Information for grid number                                          2
 RS_GRID|   Bounds   1            -18      17                Points:          36
 RS_GRID|   Bounds   2            -18      17                Points:          36
 RS_GRID|   Bounds   3            -18      17                Points:          36
 RS_GRID| Real space fully replicated
 RS_GRID| Group size                                                           1

 RS_GRID| Information for grid number                                          3
 RS_GRID|   Bounds   1            -12      11                Points:          24
 RS_GRID|   Bounds   2            -12      11                Points:          24
 RS_GRID|   Bounds   3            -12      11                Points:          24
 RS_GRID| Real space fully replicated
 RS_GRID| Group size                                                           1

 RS_GRID| Information for grid number                                          4
 RS_GRID|   Bounds   1             -6       5                Points:          12
 RS_GRID|   Bounds   2             -6       5                Points:          12
 RS_GRID|   Bounds   3             -6       5                Points:          12
 RS_GRID| Real space fully replicated
 RS_GRID| Group size                                                           1

 Number of electrons:                                                         28
 Number of occupied orbitals:                                                 14
 Number of molecular orbitals:                                                38

 Number of orbital functions:                                                 38
 Number of independent orbital functions:                                     38

 Extrapolation method: initial_guess

 Atomic guess: The first density matrix is obtained in terms of atomic orbitals
               and electronic configurations assigned to each atomic kind

 Guess for atomic kind: W

 Electronic structure
    Total number of core electrons                                         60.00
    Total number of valence electrons                                      14.00
    Total number of electrons                                              74.00
    Multiplicity                                                   not specified
    S   [  2.00  2.00  2.00  2.00] 2.00  2.00
    P   [  6.00  6.00  6.00] 6.00
    D   [ 10.00 10.00] 4.00
    F   [ 14.00]


 *******************************************************************************
                  Iteration          Convergence                     Energy [au]
 *******************************************************************************
                          1        0.449059                     -67.466688814234
                          2        0.187817                     -67.525806827199
                          3        0.103033E-01                 -67.544966786389
                          4        0.481128E-03                 -67.545037813868
                          5        0.237744E-05                 -67.545037950203
                          6        0.119490E-05                 -67.545037950207
                          7        0.735907E-08                 -67.545037950208

 Energy components [Hartree]           Total Energy ::          -67.545037950208
                                        Band Energy ::          -15.805829351326
                                     Kinetic Energy ::           21.160380563115
                                   Potential Energy ::          -88.705418513322
                                      Virial (-V/T) ::            4.192052134825
                                        Core Energy ::         -114.281973651966
                                          XC Energy ::           -7.261707726622
                                     Coulomb Energy ::           53.998643428380
                       Total Pseudopotential Energy ::         -135.579548920328
                       Local Pseudopotential Energy ::         -126.342338008309
                    Nonlocal Pseudopotential Energy ::           -9.237210912019
                                        Confinement ::            1.371947052472

 Orbital energies  State     L     Occupation   Energy[a.u.]          Energy[eV]

                       1     0          2.000      -2.842957          -77.360801
                       2     0          2.000      -0.172545           -4.695180

                       1     1          6.000      -1.546048          -42.070097

                       1     2          4.000      -0.124635           -3.391486


 Total Electron Density at R=0:                                         0.005541
 Re-scaling the density matrix to get the right number of electrons
                  # Electrons              Trace(P)               Scaling factor
                           28                28.000                        1.000


 SCF WAVEFUNCTION OPTIMIZATION

  Step     Update method      Time    Convergence         Total energy    Change
  ------------------------------------------------------------------------------
     1 NoMix/Diag. 0.10E+00    5.9     2.50202942      -137.4096212015 -1.37E+02
     2 Broy./Diag. 0.10E+00    6.1     0.00560956      -137.0896323213  3.20E-01
     3 Broy./Diag. 0.10E+00    6.0     0.08732859      -136.6987578541  3.91E-01
     4 Broy./Diag. 0.10E+00    6.1     0.00080359      -136.5240905771  1.75E-01
     5 Broy./Diag. 0.10E+00    6.0     0.01797512      -136.4798736835  4.42E-02
     6 Broy./Diag. 0.10E+00    6.1     0.00061772      -136.4577477774  2.21E-02
     7 Broy./Diag. 0.10E+00    6.1     0.00135905      -136.4542720293  3.48E-03
     8 Broy./Diag. 0.10E+00    6.1     0.00020788      -136.4532972079  9.75E-04
     9 Broy./Diag. 0.10E+00    6.0     0.00000822      -136.4536693529 -3.72E-04
    10 Broy./Diag. 0.10E+00    6.1     0.00003079      -136.4537748899 -1.06E-04
    11 Broy./Diag. 0.10E+00    6.1     0.00000046      -136.4538222935 -4.74E-05
    12 Broy./Diag. 0.10E+00    6.1     0.00000276      -136.4538552200 -3.29E-05
    13 Broy./Diag. 0.10E+00    6.0     0.00000003      -136.4538614579 -6.24E-06
    14 Broy./Diag. 0.10E+00    6.1     0.00000019      -136.4538625921 -1.13E-06
    15 Broy./Diag. 0.10E+00    6.1     3.4966E-09      -136.4538628167 -2.25E-07
    16 Broy./Diag. 0.10E+00    6.1     0.00000002      -136.4538628824 -6.57E-08
    17 Broy./Diag. 0.10E+00    6.1     7.7380E-10      -136.4538629056 -2.32E-08

  *** SCF run converged in    17 steps ***


  Electronic density on regular grids:        -28.0000000000       -0.0000000000
  Core density on regular grids:               28.0000000000        0.0000000000
  Total charge density on r-space grids:       -0.0000000000
  Total charge density g-space grids:          -0.0000000000

  Overlap energy of the core charge distribution:               0.00000000245591
  Self energy of the core charge distribution:               -204.77992291733378
  Core Hamiltonian energy:                                     44.77927292960843
  Hartree energy:                                              39.05635994820285
  Exchange-correlation energy:                                -15.50939404246596
  Electronic entropic energy:                                  -0.00017882609914
  Fermi energy:                                                 0.59785361201632

  Total energy:                                              -136.45386290563192

 !-----------------------------------------------------------------------------!
                     Mulliken Population Analysis

 #  Atom  Element  Kind  Atomic population                           Net charge
       1     W        1         14.000000                             -0.000000
       2     W        1         14.000000                             -0.000000
 # Total charge                             28.000000                 -0.000000

 !-----------------------------------------------------------------------------!

 !-----------------------------------------------------------------------------!
                           Hirshfeld Charges

  #Atom  Element  Kind  Ref Charge     Population                    Net charge
      1       W      1      14.000         14.000                        -0.000
      2       W      1      14.000         14.000                        -0.000

  Total Charge                                                           -0.000
 !-----------------------------------------------------------------------------!
  
 -------------------------------------------------------------------------------
 -                                                                             -
 -                          BANDSTRUCTURE CALCULATION                          -
 -                                                                             -
 -------------------------------------------------------------------------------
  
 Number of occupied molecular orbitals (MOs) = Number of occupied bands       14
 Number of unoccupied (= virtual) MOs = Number of unoccupied bands            24
 Number of Gaussian basis functions for MOs                                   38
 Number of cells considered in the DFT calculation                          1890
 Number of cells for G, , W,                                               343
 Number of special k-points for the bandstructure                              4
 Number of k-points for the bandstructure                                    660

 SOC requested, SOC energy window:                                       10.0 eV

 
 SCF valence band maximum (eV):                                           16.286
 SCF conduction band minimum (eV):                                        15.660
 SCF indirect band gap (eV):                                              -0.626
 SCF direct band gap (eV):                                                 0.000
 
 SCF+SOC valence band maximum (eV):                                       16.301
 SCF+SOC conduction band minimum (eV):                                    15.630
 SCF+SOC indirect band gap (eV):                                          -0.671
 SCF+SOC direct band gap (eV):                                             0.007

 ENERGY| Total FORCE_EVAL ( QS ) energy [hartree]           -136.453862905631922

 -------------------------------------------------------------------------------
 -                                                                             -
 -                                DBCSR STATISTICS                             -
 -                                                                             -
 -------------------------------------------------------------------------------
 COUNTER                                    TOTAL       BLAS       SMM       ACC
 flops inhomo. stacks                           0       0.0%      0.0%      0.0%
 flops total                         0.000000E+00       0.0%      0.0%      0.0%
 flops max/rank                      0.000000E+00       0.0%      0.0%      0.0%
 matmuls inhomo. stacks                         0       0.0%      0.0%      0.0%
 matmuls total                                  0       0.0%      0.0%      0.0%
 number of processed stacks                     0       0.0%      0.0%      0.0%
 average stack size                                     0.0       0.0       0.0
 marketing flops                     0.000000E+00
 -------------------------------------------------------------------------------
 -                                                                             -
 -                      DBCSR MESSAGE PASSING PERFORMANCE                      -
 -                                                                             -
 -------------------------------------------------------------------------------
 ROUTINE             CALLS      AVE VOLUME [Bytes]
 MP_Bcast                1                     12.
 MP_Allreduce           19                     21.
 MP_Alltoall        491768                   2552.
 -------------------------------------------------------------------------------

 -------------------------------------------------------------------------------
 -                                                                             -
 -                                DBM STATISTICS                               -
 -                                                                             -
 -------------------------------------------------------------------------------
    M  x    N  x    K                                          COUNT     PERCENT
 -------------------------------------------------------------------------------

 -------------------------------------------------------------------------------
 -                                                                             -
 -                                GRID STATISTICS                              -
 -                                                                             -
 -------------------------------------------------------------------------------
 LP    KERNEL             BACKEND                              COUNT     PERCENT
 4     collocate ortho    CPU                                 278712      51.43%
 4     integrate ortho    CPU                                 263228      48.57%
 0     collocate general  CPU                                      4       0.00%
 0     integrate general  CPU                                      2       0.00%
 -------------------------------------------------------------------------------

 MEMORY| Estimated peak process memory [MiB]                                 551

 -------------------------------------------------------------------------------
 ----                             MULTIGRID INFO                            ----
 -------------------------------------------------------------------------------
 count for grid        1:          19480          cutoff [a.u.]          500.00
 count for grid        2:          33222          cutoff [a.u.]          166.67
 count for grid        3:          16460          cutoff [a.u.]           55.56
 count for grid        4:          15778          cutoff [a.u.]           18.52
 total gridlevel count  :          84940

 -------------------------------------------------------------------------------
 -                                                                             -
 -                         MESSAGE PASSING PERFORMANCE                         -
 -                                                                             -
 -------------------------------------------------------------------------------

 ROUTINE             CALLS      AVE VOLUME [Bytes]
 MP_Group                5
 MP_Bcast           156871                   3627.
 MP_Allreduce        99694                     26.
 MP_Sync                 4
 MP_Alltoall           311                1448143.
 MP_SendRecv           518                  87382.
 MP_ISendRecv          483                  85131.
 MP_Wait            108195
 MP_comm_split           3
 MP_ISend           114240                    365.
 MP_IRecv           182784                    223.
 -------------------------------------------------------------------------------


 -------------------------------------------------------------------------------
 -                                                                             -
 -                           R E F E R E N C E S                               -
 -                                                                             -
 -------------------------------------------------------------------------------
 
 CP2K version 2025.1 (Development Version), the CP2K developers group (2025).
 CP2K is freely available from https://www.cp2k.org/ .
 
 T. D. Kuehne, M. Iannuzzi, M. Del Ben, V. V. Rybkin, P. Seewald, F. Stein, T. 
 Laino, R. Z. Khaliullin, O. Schuett, F. Schiffmann, D. Golze, J. Wilhelm, S. 
 Chulkov, M. H. Bani-Hashemian, V. Weber, U. Borstnik, M. Taillefumier, A. S. 
 Jakobovits, A. Lazzaro, H. Pabst, T. Mueller, R. Schade, M. Guidon, S. 
 Andermatt, N. Holmberg, G. K. Schenter, A. Hehn, A. Bussy, F. Belleflamme, G. 
 Tabacchi, A. Gloess, M. Lass, I. Bethune, C. J. Mundy, C. Plessl, M. Watkins, 
 J. VandeVondele, M. Krack, J. Hutter.
 J. Chem. Phys. 152, 194103 (2020).
 CP2K: An electronic structure and molecular dynamics software package - 
 Quickstep: Efficient and accurate electronic structure calculations.
 https://doi.org/10.1063/5.0007045

 O. Schuett, P. Messmer, J. Hutter, J. VandeVondele.
 Electronic Structure Calculations on Graphics Processing Units, 173-190 (2016).
 GPU-Accelerated Sparse Matrix-Matrix Multiplication for Linear Scaling Density 
 Functional Theory.
 https://doi.org/10.1002/9781118670712.ch8

 J. Hutter, M. Iannuzzi, F. Schiffmann, J. VandeVondele.
 WIREs Comput Mol Sci. 4, 15-25 (2014).
 CP2K: atomistic simulations of condensed matter systems.
 https://doi.org/10.1002/wcms.1159

 U. Borstnik, J. VandeVondele, V. Weber, J. Hutter.
 Parallel Comput. 40, 47-58 (2014).
 Sparse matrix multiplication: The distributed block-compressed sparse row 
 library.
 https://doi.org/10.1016/j.parco.2014.03.012

 J. VandeVondele, J. Hutter.
 J. Chem. Phys. 127, 114105 (2007).
 Gaussian basis sets for accurate calculations on molecular systems in gas and 
 condensed phases.
 https://doi.org/10.1063/1.2770708

 J. VandeVondele, M. Krack, F. Mohamed, M. Parrinello, T. Chassaing, J. Hutter.
 Comput. Phys. Commun. 167, 103-128 (2005).
 QUICKSTEP: Fast and accurate density functional calculations using a mixed 
 Gaussian and plane waves approach.
 https://doi.org/10.1016/j.cpc.2004.12.014

 M. Krack.
 Theor. Chem. Acc. 114, 145-152 (2005).
 Pseudopotentials for H to Kr optimized for gradient-corrected 
 exchange-correlation functionals.
 https://doi.org/10.1007/s00214-005-0655-y

 M. Frigo, S. G. Johnson.
 Proc. IEEE 93, 216-231 (2005).
 The design and implementation of FFTW3.
 https://doi.org/10.1109/JPROC.2004.840301

 C. Hartwigsen, S. Goedecker, J. Hutter.
 Phys. Rev. B 58, 3641-3662 (1998).
 Relativistic separable dual-space Gaussian pseudopotentials from H to Rn.
 https://doi.org/10.1103/PhysRevB.58.3641

 G. Lippert, J. Hutter, M. Parrinello.
 Mol. Phys. 92, 477-487 (1997).
 A hybrid Gaussian and plane wave density functional scheme.
 https://doi.org/10.1080/002689797170220

 S. Goedecker, M. Teter, J. Hutter.
 Phys. Rev. B 54, 1703-1710 (1996).
 Separable dual-space Gaussian pseudopotentials.
 https://doi.org/10.1103/PhysRevB.54.1703

 J. P. Perdew, K. Burke, M. Ernzerhof.
 Phys. Rev. Lett. 77, 3865-3868 (1996).
 Generalized gradient approximation made simple.
 https://doi.org/10.1103/PhysRevLett.77.3865


 -------------------------------------------------------------------------------
 -                                                                             -
 -                                T I M I N G                                  -
 -                                                                             -
 -------------------------------------------------------------------------------
 SUBROUTINE                       CALLS  ASD         SELF TIME        TOTAL TIME
                                MAXIMUM       AVERAGE  MAXIMUM  AVERAGE  MAXIMUM
 CP2K                                 1  1.0    0.017    0.021  144.233  144.233
 qs_energies                          1  2.0    0.006    0.006  143.980  143.992
 mp_alltoall_i22                  84512  9.0   86.411  106.031   86.411  106.031
 scf_env_do_scf                       1  3.0    0.000    0.000  104.594  104.594
 scf_env_do_scf_inner_loop           17  4.0    0.028    0.030  104.594  104.594
 qs_scf_new_mos_kp                   17  5.0    0.000    0.000   97.691   98.428
 do_general_diag_kp                  17  6.0    0.094    0.106   97.691   98.428
 dbcsr_desymmetrize_deep          49908  7.7    0.733    0.829   68.834   83.626
 rskp_transform                   12004  7.3   13.758   74.087   13.758   74.087
 qs_energies_properties               1  3.0    0.000    0.000   36.592   36.603
 post_scf_bandstructure               1  4.0    0.000    0.000   36.592   36.603
 dbcsr_complete_redistribute      34604  8.4    1.103    1.251   30.652   35.483
 kpoint_density_transform            17  7.0    0.050    0.058   28.414   28.495
 copy_fm_to_dbcsr                  8704  8.0    0.049    0.054   22.847   27.528
 transform_dmat                    4352  8.0    4.693   25.356    4.693   25.356
 rsmat_to_kp                       3300  7.0    0.052    0.057   24.791   24.826
 soc                                  1  5.0    0.001    0.001   18.492   18.492
 H_KS_spinor_kp                       1  6.0    0.010    0.011   17.416   18.053
 create_and_init_bs_env               1  5.0    0.000    0.000   13.535   13.535
 compute_cfm_mo_coeff_kp_and_ei       1  6.0    0.005    0.005   13.532   13.532
 copy_dbcsr_to_fm                 25900  7.2    0.258    0.276   12.018   12.150
 cp_cfm_heevd                      3068  7.8    0.004    0.004    7.213    7.218
 cp_cfm_heevd_base                 3068  8.8    7.209    7.214    7.209    7.214
 qs_ks_update_qs_env                 17  5.0    0.000    0.000    2.255    5.499
 cp_dbcsr_alloc_block_from_nbl    33162  6.4    0.962    4.761    1.038    4.983
 dos_pdos_ldos                        1  5.0    0.004    0.005    4.565    4.576
 rebuild_ks_matrix                   17  6.0    0.000    0.000    1.319    4.563
 qs_ks_build_kohn_sham_matrix        17  7.0    0.053    0.054    1.319    4.563
 SOC_ev                             660  6.0    0.009    0.010    4.239    4.246
 sum_up_and_integrate                17  8.0    0.000    0.000    0.862    4.075
 integrate_v_rspace                  17  9.0    0.019    0.098    0.862    4.074
 grid_integrate_task_list            17 10.0    0.738    3.904    0.738    3.904
 cp_cfm_geeig_canon                1204  7.0    0.009    0.010    3.811    3.817
 transfer_rs2pw                      74  8.0    0.001    0.001    2.985    3.678
 transfer_rs2pw_500                  20  8.8    0.018    0.021    2.968    3.660
 mp_sendrecv_dv                     518 10.0    2.961    3.655    2.961    3.655
 V_SOC_xyz_from_pseudopotential       1  6.0    0.056    0.058    1.076    3.407
 mp_sum_iv                         1340  8.9    2.566    3.256    2.566    3.256
 dbcsr_finalize                  160286  8.3    0.437    0.519    2.787    3.023
 alloc_cfm_double_array_1d            1  7.0    0.001    0.001    2.344    2.981
 create_cfm_double                  660  8.0    0.004    0.004    2.343    2.980
 qs_rho_update_rho_low               18  5.0    0.000    0.000    2.498    2.514
 calculate_rho_elec                  18  6.0    0.007    0.014    2.498    2.514
 density_rs2pw                       18  7.0    0.001    0.001    2.023    2.472
 grid_collocate_task_list            18  7.0    0.467    2.358    0.467    2.358
 mp_cart_sub                      51802  9.2    2.330    2.355    2.330    2.355
 cp_fm_start_copy_general         26112  7.3    0.334    0.503    2.036    2.065
 mp_alltoall_d11v                253536  9.6    1.837    2.025    1.837    2.025
 qs_energies_init_hamiltonians        1  3.0    0.000    0.000    1.687    1.687
 dbcsr_merge_all                  40274 10.4    0.934    1.085    1.512    1.681
 hybrid_alltoall_any              49908  8.7    0.195    0.215    1.305    1.452
 dbcsr_dot                        64261  8.0    0.265    0.356    1.340    1.447
 write_kpoints_restart               17  5.0    0.008    0.012    1.376    1.376
 mp_sum_d                         64815  8.9    1.147    1.342    1.147    1.342
 build_core_hamiltonian_matrix        1  4.0    0.007    0.007    0.336    1.330
 mp_cart_create                   25906  9.2    1.257    1.309    1.257    1.309
 qs_env_update_s_mstruct              1  4.0    0.000    0.000    1.080    1.265
 calculate_rho_core                   1  5.0    0.001    0.002    1.002    1.245
 mp_alltoall_i11v                153720  9.2    1.086    1.105    1.086    1.105
 dbcsr_work_create                90182  9.0    0.485    0.555    0.823    0.973
 dbcsr_create_new                231197  7.9    0.719    0.762    0.900    0.951
 evaluate_core_matrix_traces         17  6.0    0.000    0.000    0.936    0.936
 calculate_ptrace_kp                 34  7.0    0.047    0.049    0.936    0.936
 mp_allgather_i                   52224  8.3    0.817    0.901    0.817    0.901
 dbcsr_iterator_start            334439  8.9    0.690    0.728    0.779    0.855
 dbcsr_copy                       80524  6.8    0.424    0.494    0.673    0.844
 dbcsr_add_d                       5670  7.0    0.006    0.006    0.357    0.793
 dbcsr_add_anytype                 5670  8.0    0.019    0.064    0.352    0.787
 dbcsr_data_new                  994158  9.8    0.616    0.743    0.616    0.743
 mp_bcast_iv                     104475  8.3    0.634    0.731    0.634    0.731
 init_scf_run                         1  3.0    0.000    0.000    0.610    0.716
 scf_env_initial_rho_setup            1  4.0    0.000    0.000    0.610    0.715
 build_core_ppnl                      2  6.0    0.168    0.673    0.168    0.673
 dbcsr_work_destroy_all           90182 10.0    0.394    0.435    0.598    0.658
 add_cfm_submat                    5280  7.0    0.045    0.046    0.560    0.600
 mixing_allocate                      1  3.0    0.011    0.011    0.145    0.598
 self_consistency_check              17  5.0    0.045    0.047    0.553    0.572
 cp_cfm_gemm                       6912  8.5    0.549    0.567    0.549    0.567
 calculate_first_density_matrix       1  5.0    0.001    0.001    0.461    0.567
 calculate_atomic_block_dm            1  6.0    0.001    0.001    0.457    0.563
 copy_dbcsr_to_fm_bc              25900  8.2    0.242    0.259    0.546    0.560
 dbcsr_iterator_stop             334439  8.9    0.424    0.452    0.494    0.524
 cp_fm_write_unformatted           1890  6.0    0.392    0.503    0.396    0.516
 cp_fm_to_fm_submat               10560  8.0    0.471    0.510    0.471    0.510
 dbcsr_data_release             1428413 10.1    0.459    0.493    0.459    0.493
 cp_sm_mix                        32130  6.0    0.084    0.139    0.463    0.487
 dbcsr_destroy                   161267  7.7    0.248    0.261    0.461    0.485
 tree_to_linear_d                 34604 11.4    0.444    0.458    0.444    0.458
 parallel_gemm_cfm                 3300  7.0    0.003    0.003    0.404    0.420
 parallel_gemm_cfm_gemm            3300  8.0    0.003    0.004    0.400    0.417
 add_to_DOS_PDOS                   1320  6.5    0.408    0.414    0.408    0.414
 copy_fm_to_dbcsr_bc               8704  9.0    0.111    0.122    0.375    0.409
 mp_max_d                         32132  7.0    0.302    0.339    0.302    0.339
 build_overlap_matrix_low             1  5.0    0.015    0.030    0.081    0.320
 build_kinetic_matrix_low             1  5.0    0.015    0.029    0.080    0.318
 calculate_ecore_overlap              1  4.0    0.000    0.000    0.254    0.313
 qs_env_rebuild_rho                   1  5.0    0.000    0.000    0.072    0.302
 qs_rho_rebuild                       1  6.0    0.005    0.005    0.072    0.302
 quick_finalize                   49908  9.7    0.129    0.169    0.210    0.282
 qs_scf_ensure_work_matrices          1  3.0    0.000    0.000    0.227    0.280
 dbcsr_reserve_blocks             41866  8.2    0.092    0.226    0.106    0.260
 mp_comm_free                     78397  9.1    0.235    0.248    0.235    0.248
 fft_wrap_pw1pw2                    311 10.0    0.002    0.003    0.222    0.239
 kpoint_set_mo_occupation            17  7.0    0.212    0.217    0.224    0.234
 dbcsr_set                       141841  7.5    0.125    0.129    0.179    0.233
 dbcsr_copy_into_existing         10594  9.3    0.079    0.171    0.137    0.231
 dbcsr_scale_anytype               5671  9.0    0.039    0.046    0.201    0.224
 fft_wrap_pw1pw2_500                206 11.3    0.012    0.012    0.201    0.218
 fft3d_ps                           311 12.0    0.073    0.075    0.186    0.204
 mp_bcast_im                      52224  8.3    0.149    0.195    0.149    0.195
 compute_proj_mo_on_kind            660  6.0    0.012    0.013    0.164    0.182
 mp_waitall_1                    108195  8.4    0.082    0.170    0.082    0.170
 qs_vxc_create                       17  8.0    0.000    0.000    0.129    0.130
 xc_vxc_pw_create                    17  9.0    0.005    0.005    0.129    0.129
 dbcsr_iterator_seek             334439  9.9    0.089    0.127    0.089    0.127
 potential_pw2rs                     17 10.0    0.001    0.001    0.105    0.121
 dbcsr_make_index_exist          231197  8.9    0.110    0.118    0.110    0.118
 dbcsr_sort_indices              126378 10.8    0.061    0.117    0.061    0.117
 mp_alltoall_z22v                   311 14.0    0.092    0.111    0.092    0.111
 parser_read_line                  8143  4.0    0.003    0.003    0.107    0.110
 parser_read_line_low                26  6.1    0.010    0.040    0.105    0.107
 dbcsr_zero                      141841  8.5    0.054    0.104    0.054    0.104
 broadcast_input_information         26  7.1    0.030    0.038    0.095    0.102
 cp_fm_finish_copy_general        10880  7.8    0.064    0.074    0.077    0.094
 gspace_mixing                       16  5.0    0.004    0.004    0.091    0.091
 build_core_ppl                       1  5.0    0.017    0.088    0.017    0.088
 xc_pw_derive                       102 11.0    0.000    0.000    0.082    0.083
 yz_to_x                            141 12.8    0.006    0.006    0.065    0.083
 create_qs_kind_set                   1  2.0    0.000    0.000    0.080    0.080
 read_qs_kind                         1  3.0    0.040    0.044    0.080    0.080
 merge_index                      40274 11.4    0.068    0.076    0.068    0.076
 topology_control                     1  2.0    0.000    0.000    0.074    0.074
 kpoint_density_matrices             17  7.0    0.006    0.006    0.072    0.074
 broyden_mixing                      16  6.0    0.070    0.071    0.073    0.073
 xc_rho_set_and_dset_create          17 10.0    0.004    0.005    0.069    0.071
 dbcsr_reserve_all_blocks          8704 10.0    0.013    0.015    0.058    0.067
 parallel_gemm_fm                  2176  8.0    0.002    0.002    0.065    0.067
 parallel_gemm_fm_gemm             2176  9.0    0.002    0.002    0.063    0.065
 cp_fm_gemm                        2176 10.0    0.061    0.063    0.061    0.063
 dbcsr_switch_data_area           49908 10.7    0.046    0.046    0.059    0.060
 write_SOC_eigenvalues              148  6.0    0.007    0.059    0.007    0.059
 xc_pw_divergence                    17 10.0    0.000    0.000    0.053    0.055
 mp_irecv_iv                     104448  8.3    0.006    0.052    0.006    0.052
 transfer_pw2rs                      69 10.9    0.000    0.000    0.052    0.052
 read_cell_cif                        2  4.5    0.002    0.005    0.051    0.052
 x_to_yz                            170 13.2    0.012    0.013    0.045    0.046
 mp_bcast_i_src                     104  8.1    0.039    0.045    0.039    0.045
 coordinate_control                   1  3.0    0.001    0.001    0.045    0.045
 coordinate_control_READ_COORDI       1  4.0    0.000    0.000    0.044    0.045
 read_coordinate_cif                  1  5.0    0.002    0.002    0.044    0.045
 scf_post_calculation_gpw             1  3.0    0.000    0.000    0.043    0.043
 write_available_results              1  4.0    0.000    0.000    0.043    0.043
 write_mo_free_results                1  5.0    0.001    0.001    0.043    0.043
 mp_isend_dv                      26112  8.3    0.038    0.042    0.038    0.042
 transfer_pw2rs_500                  18 11.8    0.018    0.019    0.037    0.038
 dbcsr_get_data_size_used         90182 10.0    0.029    0.036    0.029    0.036
 cp_fm_cleanup_copy_general       18496  7.1    0.022    0.023    0.033    0.035
 mp_isend_iv                      58752  8.3    0.009    0.035    0.009    0.035
 dbcsr_make_dbcsr_index          132048 10.9    0.027    0.035    0.027    0.035
 mp_sum_dv                         1336  7.0    0.027    0.034    0.027    0.034
 dbcsr_distribution_new           34606  8.6    0.026    0.032    0.026    0.032
 qs_create_task_list                  1  5.0    0.000    0.000    0.006    0.031
 generate_qs_task_list                1  6.0    0.004    0.022    0.006    0.031
 mp_bcast_am_src                     26  8.1    0.015    0.016    0.026    0.028
 dbcsr_data_copy_aa2              34604 11.2    0.016    0.025    0.016    0.025
 mp_irecv_im2                     52224  8.3    0.003    0.025    0.003    0.025
 qs_init_subsys                       1  2.0    0.002    0.002    0.025    0.025
 cp_fm_create                     22664  7.9    0.021    0.023    0.021    0.023
 cp_cfm_scale_and_add_fm          12736  7.8    0.021    0.023    0.021    0.023
 qs_env_setup                         1  3.0    0.000    0.000    0.022    0.022
 qs_env_rebuild_pw_env                2  3.5    0.000    0.000    0.021    0.022
 pw_env_rebuild                       1  5.0    0.000    0.001    0.021    0.022
 xc_functional_eval                  17 11.0    0.000    0.000    0.021    0.022
 pbe_lda_eval                        17 12.0    0.020    0.021    0.020    0.021
 mp_comm_size                     65025  9.0    0.016    0.019    0.016    0.019
 bs_env_release                       1  2.0    0.007    0.008    0.016    0.019
 hirshfeld_integration                1  6.0    0.004    0.015    0.017    0.017
 mp_sum_dm3                          17  8.0    0.012    0.017    0.012    0.017
 kpoint_init_cell_index               1  4.0    0.009    0.012    0.015    0.017
 mp_isend_im2                     29376  8.3    0.004    0.016    0.004    0.016
 mp_irecv_dv                      26112  8.3    0.015    0.016    0.015    0.016
 mp_comm_rank                     65025  9.0    0.015    0.016    0.015    0.016
 -------------------------------------------------------------------------------

 The number of warnings for this run is : 1
 
 -------------------------------------------------------------------------------
  **** **** ******  **  PROGRAM ENDED AT                 2025-08-07 21:04:02.473
 ***** ** ***  *** **   PROGRAM RAN ON                              i04r01c01s09
 **    ****   ******    PROGRAM RAN BY                                   di38fab
 ***** **    ** ** **   PROGRAM PROCESS ID                               1087505
  **** **  *******  **  PROGRAM STOPPED IN /hppfs/scratch/04/di38fab/09_GTH/Delt
                                           a_Set/W/aug-SZV-MOLOPT-GTH-tier-1/8x8
                                           x8
