 DBCSR| CPU Multiplication driver                                           BLAS (U)
 DBCSR| Multrec recursion limit                                              512 (U)
 DBCSR| Multiplication stack size                                           1000 (D)
 DBCSR| Maximum elements for images                                    UNLIMITED (U)
 DBCSR| Multiplicative factor virtual images                                   1 (U)
 DBCSR| Use multiplication densification                                       T (D)
 DBCSR| Multiplication size stacks                                             3 (U)
 DBCSR| Use memory pool for CPU allocation                                     F (U)
 DBCSR| Number of 3D layers                                               SINGLE (U)
 DBCSR| Use MPI memory allocation                                              F (U)
 DBCSR| Use RMA algorithm                                                      F (U)
 DBCSR| Use Communication thread                                               T (U)
 DBCSR| Communication thread load                                             45 (D)
 DBCSR| MPI: My process id                                                     0
 DBCSR| MPI: Number of processes                                               8
 DBCSR| OMP: Current number of threads                                        12
 DBCSR| OMP: Max number of threads                                            12
 DBCSR| Split modifier for TAS multiplication algorithm                  1.0E+00 (U)


  **** **** ******  **  PROGRAM STARTED AT               2025-08-03 21:02:51.296
 ***** ** ***  *** **   PROGRAM STARTED ON                          i04r11c01s10
 **    ****   ******    PROGRAM STARTED BY                               di38fab
 ***** **    ** ** **   PROGRAM PROCESS ID                                267363
  **** **  *******  **  PROGRAM STARTED IN /hppfs/scratch/04/di38fab/09_GTH/Delt
                                           a_Set/Tl/TZVP-MOLOPT-PBE-GTH/12x12x12

 CP2K| version string:                 CP2K version 2025.1 (Development Version)
 CP2K| source code revision number:                                  git:3130539
 CP2K| cp2kflags: omp libint fftw3 libxc parallel scalapack max_contr=4         
 CP2K| is freely available from                            https://www.cp2k.org/
 CP2K| Program compiled at                         Tue Jun  3 16:14:32 CEST 2025
 CP2K| Program compiled on                                               login01
 CP2K| Program compiled for                                        Supermuc-foss
 CP2K| Data directory path                  /hppfs/work/pn36zo/di38fab/cp2k/data
 CP2K| Input file name                                                    GW.inp

 GLOBAL| Force Environment number                                              1
 GLOBAL| Basis set file name            /hppfs/scratch/04/di38fab/09_GTH/BASIS_A
 GLOBAL| Potential file name            /hppfs/work/pn36zo/di38fab/cp2k/data/GTH
 GLOBAL| MM Potential file name                                     MM_POTENTIAL
 GLOBAL| Coordinate file name                                             Tl.cif
 GLOBAL| Method name                                                        CP2K
 GLOBAL| Project name                                                       WSe2
 GLOBAL| Run type                                                         ENERGY
 GLOBAL| FFT library                                                       FFTW3
 GLOBAL| Diagonalization library                                       ScaLAPACK
 GLOBAL| Cholesky decomposition library                                ScaLAPACK
 GLOBAL| DGEMM library                                                      BLAS
 GLOBAL| Orthonormality check for eigenvectors                          DISABLED
 GLOBAL| Matrix multiplication library                                 ScaLAPACK
 GLOBAL| All-to-all communication in single precision                          F
 GLOBAL| FFTs using library dependent lengths                                  F
 GLOBAL| Grid backend                                                       AUTO
 GLOBAL| Global print level                                               MEDIUM
 GLOBAL| MPI I/O enabled                                                       T
 GLOBAL| Total number of message passing processes                             8
 GLOBAL| Number of threads for this process                                   12
 GLOBAL| This output is from process                                           0
 GLOBAL| OpenMP stack size per thread (OMP_STACKSIZE)                    default
 GLOBAL| CPU model name             Intel(R) Xeon(R) Platinum 8174 CPU @ 3.10GHz

 MEMORY| system memory details [Kb]
 MEMORY|                        rank 0           min           max       average
 MEMORY| MemTotal             98436660      98436660      98436664      98436662
 MEMORY| MemFree              85535900      84548592      85535900      85042246
 MEMORY| Buffers                     0             0             0             0
 MEMORY| Cached                2371924       2371924       2380844       2376384
 MEMORY| Slab                  1139476       1139476       1287532       1213504
 MEMORY| SReclaimable           253120        253120        288952        271036
 MEMORY| MemLikelyFree        88160944      87218388      88160944      87689666


 *** Fundamental physical constants (SI units) ***

 *** Literature: B. J. Mohr and B. N. Taylor,
 ***             CODATA recommended values of the fundamental physical
 ***             constants: 2006, Web Version 5.1
 ***             http://physics.nist.gov/constants

 Speed of light in vacuum [m/s]                             2.99792458000000E+08
 Magnetic constant or permeability of vacuum [N/A**2]       1.25663706143592E-06
 Electric constant or permittivity of vacuum [F/m]          8.85418781762039E-12
 Planck constant (h) [J*s]                                  6.62606896000000E-34
 Planck constant (h-bar) [J*s]                              1.05457162825177E-34
 Elementary charge [C]                                      1.60217648700000E-19
 Electron mass [kg]                                         9.10938215000000E-31
 Electron g factor [ ]                                     -2.00231930436220E+00
 Proton mass [kg]                                           1.67262163700000E-27
 Fine-structure constant                                    7.29735253760000E-03
 Rydberg constant [1/m]                                     1.09737315685270E+07
 Avogadro constant [1/mol]                                  6.02214179000000E+23
 Boltzmann constant [J/K]                                   1.38065040000000E-23
 Atomic mass unit [kg]                                      1.66053878200000E-27
 Bohr radius [m]                                            5.29177208590000E-11

 *** Conversion factors ***

 [u] -> [a.u.]                                              1.82288848426455E+03
 [Angstrom] -> [Bohr] = [a.u.]                              1.88972613288564E+00
 [a.u.] = [Bohr] -> [Angstrom]                              5.29177208590000E-01
 [a.u.] -> [s]                                              2.41888432650478E-17
 [a.u.] -> [fs]                                             2.41888432650478E-02
 [a.u.] -> [J]                                              4.35974393937059E-18
 [a.u.] -> [N]                                              8.23872205491840E-08
 [a.u.] -> [K]                                              3.15774647902944E+05
 [a.u.] -> [kJ/mol]                                         2.62549961709828E+03
 [a.u.] -> [kcal/mol]                                       6.27509468713739E+02
 [a.u.] -> [Pa]                                             2.94210107994716E+13
 [a.u.] -> [bar]                                            2.94210107994716E+08
 [a.u.] -> [atm]                                            2.90362800883016E+08
 [a.u.] -> [eV]                                             2.72113838565563E+01
 [a.u.] -> [Hz]                                             6.57968392072181E+15
 [a.u.] -> [1/cm] (wave numbers)                            2.19474631370540E+05
 [a.u./Bohr**2] -> [1/cm]                                   5.14048714338585E+03
 

 CELL_TOP| Volume [angstrom^3]:                                        63.061676
 CELL_TOP| Vector a [angstrom     3.593     0.000     0.000   |a| =     3.592550
 CELL_TOP| Vector b [angstrom     1.796     3.111     0.000   |b| =     3.592550
 CELL_TOP| Vector c [angstrom     0.000     0.000     5.642   |c| =     5.641950
 CELL_TOP| Angle (b,c), alpha [degree]:                                90.000000
 CELL_TOP| Angle (a,c), beta  [degree]:                                90.000000
 CELL_TOP| Angle (a,b), gamma [degree]:                                60.000000
 CELL_TOP| Numerically orthorhombic:                                          NO
 CELL_TOP| Periodicity                                                       XYZ

 CELL_CIF| Volume [angstrom^3]:                                        63.061676
 CELL_CIF| Vector a [angstrom     3.593     0.000     0.000   |a| =     3.592550
 CELL_CIF| Vector b [angstrom     1.796     3.111     0.000   |b| =     3.592550
 CELL_CIF| Vector c [angstrom     0.000     0.000     5.642   |c| =     5.641950
 CELL_CIF| Angle (b,c), alpha [degree]:                                90.000000
 CELL_CIF| Angle (a,c), beta  [degree]:                                90.000000
 CELL_CIF| Angle (a,b), gamma [degree]:                                60.000000
 CELL_CIF| Numerically orthorhombic:                                          NO
 CELL_CIF| Periodicity                                                       XYZ

 GENERATE|  Preliminary Number of Bonds generated:                             0
 GENERATE|  Achieved consistency in connectivity generation.

 CELL| Volume [angstrom^3]:                                            63.061676
 CELL| Vector a [angstrom]:       3.593     0.000     0.000   |a| =     3.592550
 CELL| Vector b [angstrom]:       1.796     3.111     0.000   |b| =     3.592550
 CELL| Vector c [angstrom]:       0.000     0.000     5.642   |c| =     5.641950
 CELL| Angle (b,c), alpha [degree]:                                    90.000000
 CELL| Angle (a,c), beta  [degree]:                                    90.000000
 CELL| Angle (a,b), gamma [degree]:                                    60.000000
 CELL| Numerically orthorhombic:                                              NO
 CELL| Periodicity                                                           XYZ

 CELL_REF| Volume [angstrom^3]:                                        63.061676
 CELL_REF| Vector a [angstrom     3.593     0.000     0.000   |a| =     3.592550
 CELL_REF| Vector b [angstrom     1.796     3.111     0.000   |b| =     3.592550
 CELL_REF| Vector c [angstrom     0.000     0.000     5.642   |c| =     5.641950
 CELL_REF| Angle (b,c), alpha [degree]:                                90.000000
 CELL_REF| Angle (a,c), beta  [degree]:                                90.000000
 CELL_REF| Angle (a,b), gamma [degree]:                                60.000000
 CELL_REF| Numerically orthorhombic:                                          NO
 CELL_REF| Periodicity                                                       XYZ

 *** WARNING in cryssym.F:180 :: Symmetry library SPGLIB not available ***


 *******************************************************************************
                                    Kpoints
 *******************************************************************************
 BRILLOUIN| K-point scheme                                        Monkhorst-Pack
 BRILLOUIN| K-Point grid                                            12   12   12
 BRILLOUIN| Accuracy in Symmetry determination                      0.100000E-05
 BRILLOUIN| K-Point point group symmetrization                               OFF
 BRILLOUIN| Wavefunction type                                            COMPLEX
 BRILLOUIN| List of Kpoints [2 Pi/Bohr]                                      864
 BRILLOUIN| Number           Weight            X              Y              Z
 BRILLOUIN|     1           0.00116       -0.45833       -0.45833       -0.45833
 BRILLOUIN|     2           0.00116       -0.45833       -0.45833       -0.37500
 BRILLOUIN|     3           0.00116       -0.45833       -0.45833       -0.29167
 BRILLOUIN|     4           0.00116       -0.45833       -0.45833       -0.20833
 BRILLOUIN|     5           0.00116       -0.45833       -0.45833       -0.12500
 BRILLOUIN|     6           0.00116       -0.45833       -0.45833       -0.04167
 BRILLOUIN|     7           0.00116       -0.45833       -0.45833        0.04167
 BRILLOUIN|     8           0.00116       -0.45833       -0.45833        0.12500
 BRILLOUIN|     9           0.00116       -0.45833       -0.45833        0.20833
 BRILLOUIN|    10           0.00116       -0.45833       -0.45833        0.29167
 BRILLOUIN|    11           0.00116       -0.45833       -0.45833        0.37500
 BRILLOUIN|    12           0.00116       -0.45833       -0.45833        0.45833
 BRILLOUIN|    13           0.00116       -0.45833       -0.37500       -0.45833
 BRILLOUIN|    14           0.00116       -0.45833       -0.37500       -0.37500
 BRILLOUIN|    15           0.00116       -0.45833       -0.37500       -0.29167
 BRILLOUIN|    16           0.00116       -0.45833       -0.37500       -0.20833
 BRILLOUIN|    17           0.00116       -0.45833       -0.37500       -0.12500
 BRILLOUIN|    18           0.00116       -0.45833       -0.37500       -0.04167
 BRILLOUIN|    19           0.00116       -0.45833       -0.37500        0.04167
 BRILLOUIN|    20           0.00116       -0.45833       -0.37500        0.12500
 BRILLOUIN|    21           0.00116       -0.45833       -0.37500        0.20833
 BRILLOUIN|    22           0.00116       -0.45833       -0.37500        0.29167
 BRILLOUIN|    23           0.00116       -0.45833       -0.37500        0.37500
 BRILLOUIN|    24           0.00116       -0.45833       -0.37500        0.45833
 BRILLOUIN|    25           0.00116       -0.45833       -0.29167       -0.45833
 BRILLOUIN|    26           0.00116       -0.45833       -0.29167       -0.37500
 BRILLOUIN|    27           0.00116       -0.45833       -0.29167       -0.29167
 BRILLOUIN|    28           0.00116       -0.45833       -0.29167       -0.20833
 BRILLOUIN|    29           0.00116       -0.45833       -0.29167       -0.12500
 BRILLOUIN|    30           0.00116       -0.45833       -0.29167       -0.04167
 BRILLOUIN|    31           0.00116       -0.45833       -0.29167        0.04167
 BRILLOUIN|    32           0.00116       -0.45833       -0.29167        0.12500
 BRILLOUIN|    33           0.00116       -0.45833       -0.29167        0.20833
 BRILLOUIN|    34           0.00116       -0.45833       -0.29167        0.29167
 BRILLOUIN|    35           0.00116       -0.45833       -0.29167        0.37500
 BRILLOUIN|    36           0.00116       -0.45833       -0.29167        0.45833
 BRILLOUIN|    37           0.00116       -0.45833       -0.20833       -0.45833
 BRILLOUIN|    38           0.00116       -0.45833       -0.20833       -0.37500
 BRILLOUIN|    39           0.00116       -0.45833       -0.20833       -0.29167
 BRILLOUIN|    40           0.00116       -0.45833       -0.20833       -0.20833
 BRILLOUIN|    41           0.00116       -0.45833       -0.20833       -0.12500
 BRILLOUIN|    42           0.00116       -0.45833       -0.20833       -0.04167
 BRILLOUIN|    43           0.00116       -0.45833       -0.20833        0.04167
 BRILLOUIN|    44           0.00116       -0.45833       -0.20833        0.12500
 BRILLOUIN|    45           0.00116       -0.45833       -0.20833        0.20833
 BRILLOUIN|    46           0.00116       -0.45833       -0.20833        0.29167
 BRILLOUIN|    47           0.00116       -0.45833       -0.20833        0.37500
 BRILLOUIN|    48           0.00116       -0.45833       -0.20833        0.45833
 BRILLOUIN|    49           0.00116       -0.45833       -0.12500       -0.45833
 BRILLOUIN|    50           0.00116       -0.45833       -0.12500       -0.37500
 BRILLOUIN|    51           0.00116       -0.45833       -0.12500       -0.29167
 BRILLOUIN|    52           0.00116       -0.45833       -0.12500       -0.20833
 BRILLOUIN|    53           0.00116       -0.45833       -0.12500       -0.12500
 BRILLOUIN|    54           0.00116       -0.45833       -0.12500       -0.04167
 BRILLOUIN|    55           0.00116       -0.45833       -0.12500        0.04167
 BRILLOUIN|    56           0.00116       -0.45833       -0.12500        0.12500
 BRILLOUIN|    57           0.00116       -0.45833       -0.12500        0.20833
 BRILLOUIN|    58           0.00116       -0.45833       -0.12500        0.29167
 BRILLOUIN|    59           0.00116       -0.45833       -0.12500        0.37500
 BRILLOUIN|    60           0.00116       -0.45833       -0.12500        0.45833
 BRILLOUIN|    61           0.00116       -0.45833       -0.04167       -0.45833
 BRILLOUIN|    62           0.00116       -0.45833       -0.04167       -0.37500
 BRILLOUIN|    63           0.00116       -0.45833       -0.04167       -0.29167
 BRILLOUIN|    64           0.00116       -0.45833       -0.04167       -0.20833
 BRILLOUIN|    65           0.00116       -0.45833       -0.04167       -0.12500
 BRILLOUIN|    66           0.00116       -0.45833       -0.04167       -0.04167
 BRILLOUIN|    67           0.00116       -0.45833       -0.04167        0.04167
 BRILLOUIN|    68           0.00116       -0.45833       -0.04167        0.12500
 BRILLOUIN|    69           0.00116       -0.45833       -0.04167        0.20833
 BRILLOUIN|    70           0.00116       -0.45833       -0.04167        0.29167
 BRILLOUIN|    71           0.00116       -0.45833       -0.04167        0.37500
 BRILLOUIN|    72           0.00116       -0.45833       -0.04167        0.45833
 BRILLOUIN|    73           0.00116       -0.45833        0.04167       -0.45833
 BRILLOUIN|    74           0.00116       -0.45833        0.04167       -0.37500
 BRILLOUIN|    75           0.00116       -0.45833        0.04167       -0.29167
 BRILLOUIN|    76           0.00116       -0.45833        0.04167       -0.20833
 BRILLOUIN|    77           0.00116       -0.45833        0.04167       -0.12500
 BRILLOUIN|    78           0.00116       -0.45833        0.04167       -0.04167
 BRILLOUIN|    79           0.00116       -0.45833        0.04167        0.04167
 BRILLOUIN|    80           0.00116       -0.45833        0.04167        0.12500
 BRILLOUIN|    81           0.00116       -0.45833        0.04167        0.20833
 BRILLOUIN|    82           0.00116       -0.45833        0.04167        0.29167
 BRILLOUIN|    83           0.00116       -0.45833        0.04167        0.37500
 BRILLOUIN|    84           0.00116       -0.45833        0.04167        0.45833
 BRILLOUIN|    85           0.00116       -0.45833        0.12500       -0.45833
 BRILLOUIN|    86           0.00116       -0.45833        0.12500       -0.37500
 BRILLOUIN|    87           0.00116       -0.45833        0.12500       -0.29167
 BRILLOUIN|    88           0.00116       -0.45833        0.12500       -0.20833
 BRILLOUIN|    89           0.00116       -0.45833        0.12500       -0.12500
 BRILLOUIN|    90           0.00116       -0.45833        0.12500       -0.04167
 BRILLOUIN|    91           0.00116       -0.45833        0.12500        0.04167
 BRILLOUIN|    92           0.00116       -0.45833        0.12500        0.12500
 BRILLOUIN|    93           0.00116       -0.45833        0.12500        0.20833
 BRILLOUIN|    94           0.00116       -0.45833        0.12500        0.29167
 BRILLOUIN|    95           0.00116       -0.45833        0.12500        0.37500
 BRILLOUIN|    96           0.00116       -0.45833        0.12500        0.45833
 BRILLOUIN|    97           0.00116       -0.45833        0.20833       -0.45833
 BRILLOUIN|    98           0.00116       -0.45833        0.20833       -0.37500
 BRILLOUIN|    99           0.00116       -0.45833        0.20833       -0.29167
 BRILLOUIN|   100           0.00116       -0.45833        0.20833       -0.20833
 BRILLOUIN|   101           0.00116       -0.45833        0.20833       -0.12500
 BRILLOUIN|   102           0.00116       -0.45833        0.20833       -0.04167
 BRILLOUIN|   103           0.00116       -0.45833        0.20833        0.04167
 BRILLOUIN|   104           0.00116       -0.45833        0.20833        0.12500
 BRILLOUIN|   105           0.00116       -0.45833        0.20833        0.20833
 BRILLOUIN|   106           0.00116       -0.45833        0.20833        0.29167
 BRILLOUIN|   107           0.00116       -0.45833        0.20833        0.37500
 BRILLOUIN|   108           0.00116       -0.45833        0.20833        0.45833
 BRILLOUIN|   109           0.00116       -0.45833        0.29167       -0.45833
 BRILLOUIN|   110           0.00116       -0.45833        0.29167       -0.37500
 BRILLOUIN|   111           0.00116       -0.45833        0.29167       -0.29167
 BRILLOUIN|   112           0.00116       -0.45833        0.29167       -0.20833
 BRILLOUIN|   113           0.00116       -0.45833        0.29167       -0.12500
 BRILLOUIN|   114           0.00116       -0.45833        0.29167       -0.04167
 BRILLOUIN|   115           0.00116       -0.45833        0.29167        0.04167
 BRILLOUIN|   116           0.00116       -0.45833        0.29167        0.12500
 BRILLOUIN|   117           0.00116       -0.45833        0.29167        0.20833
 BRILLOUIN|   118           0.00116       -0.45833        0.29167        0.29167
 BRILLOUIN|   119           0.00116       -0.45833        0.29167        0.37500
 BRILLOUIN|   120           0.00116       -0.45833        0.29167        0.45833
 BRILLOUIN|   121           0.00116       -0.45833        0.37500       -0.45833
 BRILLOUIN|   122           0.00116       -0.45833        0.37500       -0.37500
 BRILLOUIN|   123           0.00116       -0.45833        0.37500       -0.29167
 BRILLOUIN|   124           0.00116       -0.45833        0.37500       -0.20833
 BRILLOUIN|   125           0.00116       -0.45833        0.37500       -0.12500
 BRILLOUIN|   126           0.00116       -0.45833        0.37500       -0.04167
 BRILLOUIN|   127           0.00116       -0.45833        0.37500        0.04167
 BRILLOUIN|   128           0.00116       -0.45833        0.37500        0.12500
 BRILLOUIN|   129           0.00116       -0.45833        0.37500        0.20833
 BRILLOUIN|   130           0.00116       -0.45833        0.37500        0.29167
 BRILLOUIN|   131           0.00116       -0.45833        0.37500        0.37500
 BRILLOUIN|   132           0.00116       -0.45833        0.37500        0.45833
 BRILLOUIN|   133           0.00116       -0.45833        0.45833       -0.45833
 BRILLOUIN|   134           0.00116       -0.45833        0.45833       -0.37500
 BRILLOUIN|   135           0.00116       -0.45833        0.45833       -0.29167
 BRILLOUIN|   136           0.00116       -0.45833        0.45833       -0.20833
 BRILLOUIN|   137           0.00116       -0.45833        0.45833       -0.12500
 BRILLOUIN|   138           0.00116       -0.45833        0.45833       -0.04167
 BRILLOUIN|   139           0.00116       -0.45833        0.45833        0.04167
 BRILLOUIN|   140           0.00116       -0.45833        0.45833        0.12500
 BRILLOUIN|   141           0.00116       -0.45833        0.45833        0.20833
 BRILLOUIN|   142           0.00116       -0.45833        0.45833        0.29167
 BRILLOUIN|   143           0.00116       -0.45833        0.45833        0.37500
 BRILLOUIN|   144           0.00116       -0.45833        0.45833        0.45833
 BRILLOUIN|   145           0.00116       -0.37500       -0.45833       -0.45833
 BRILLOUIN|   146           0.00116       -0.37500       -0.45833       -0.37500
 BRILLOUIN|   147           0.00116       -0.37500       -0.45833       -0.29167
 BRILLOUIN|   148           0.00116       -0.37500       -0.45833       -0.20833
 BRILLOUIN|   149           0.00116       -0.37500       -0.45833       -0.12500
 BRILLOUIN|   150           0.00116       -0.37500       -0.45833       -0.04167
 BRILLOUIN|   151           0.00116       -0.37500       -0.45833        0.04167
 BRILLOUIN|   152           0.00116       -0.37500       -0.45833        0.12500
 BRILLOUIN|   153           0.00116       -0.37500       -0.45833        0.20833
 BRILLOUIN|   154           0.00116       -0.37500       -0.45833        0.29167
 BRILLOUIN|   155           0.00116       -0.37500       -0.45833        0.37500
 BRILLOUIN|   156           0.00116       -0.37500       -0.45833        0.45833
 BRILLOUIN|   157           0.00116       -0.37500       -0.37500       -0.45833
 BRILLOUIN|   158           0.00116       -0.37500       -0.37500       -0.37500
 BRILLOUIN|   159           0.00116       -0.37500       -0.37500       -0.29167
 BRILLOUIN|   160           0.00116       -0.37500       -0.37500       -0.20833
 BRILLOUIN|   161           0.00116       -0.37500       -0.37500       -0.12500
 BRILLOUIN|   162           0.00116       -0.37500       -0.37500       -0.04167
 BRILLOUIN|   163           0.00116       -0.37500       -0.37500        0.04167
 BRILLOUIN|   164           0.00116       -0.37500       -0.37500        0.12500
 BRILLOUIN|   165           0.00116       -0.37500       -0.37500        0.20833
 BRILLOUIN|   166           0.00116       -0.37500       -0.37500        0.29167
 BRILLOUIN|   167           0.00116       -0.37500       -0.37500        0.37500
 BRILLOUIN|   168           0.00116       -0.37500       -0.37500        0.45833
 BRILLOUIN|   169           0.00116       -0.37500       -0.29167       -0.45833
 BRILLOUIN|   170           0.00116       -0.37500       -0.29167       -0.37500
 BRILLOUIN|   171           0.00116       -0.37500       -0.29167       -0.29167
 BRILLOUIN|   172           0.00116       -0.37500       -0.29167       -0.20833
 BRILLOUIN|   173           0.00116       -0.37500       -0.29167       -0.12500
 BRILLOUIN|   174           0.00116       -0.37500       -0.29167       -0.04167
 BRILLOUIN|   175           0.00116       -0.37500       -0.29167        0.04167
 BRILLOUIN|   176           0.00116       -0.37500       -0.29167        0.12500
 BRILLOUIN|   177           0.00116       -0.37500       -0.29167        0.20833
 BRILLOUIN|   178           0.00116       -0.37500       -0.29167        0.29167
 BRILLOUIN|   179           0.00116       -0.37500       -0.29167        0.37500
 BRILLOUIN|   180           0.00116       -0.37500       -0.29167        0.45833
 BRILLOUIN|   181           0.00116       -0.37500       -0.20833       -0.45833
 BRILLOUIN|   182           0.00116       -0.37500       -0.20833       -0.37500
 BRILLOUIN|   183           0.00116       -0.37500       -0.20833       -0.29167
 BRILLOUIN|   184           0.00116       -0.37500       -0.20833       -0.20833
 BRILLOUIN|   185           0.00116       -0.37500       -0.20833       -0.12500
 BRILLOUIN|   186           0.00116       -0.37500       -0.20833       -0.04167
 BRILLOUIN|   187           0.00116       -0.37500       -0.20833        0.04167
 BRILLOUIN|   188           0.00116       -0.37500       -0.20833        0.12500
 BRILLOUIN|   189           0.00116       -0.37500       -0.20833        0.20833
 BRILLOUIN|   190           0.00116       -0.37500       -0.20833        0.29167
 BRILLOUIN|   191           0.00116       -0.37500       -0.20833        0.37500
 BRILLOUIN|   192           0.00116       -0.37500       -0.20833        0.45833
 BRILLOUIN|   193           0.00116       -0.37500       -0.12500       -0.45833
 BRILLOUIN|   194           0.00116       -0.37500       -0.12500       -0.37500
 BRILLOUIN|   195           0.00116       -0.37500       -0.12500       -0.29167
 BRILLOUIN|   196           0.00116       -0.37500       -0.12500       -0.20833
 BRILLOUIN|   197           0.00116       -0.37500       -0.12500       -0.12500
 BRILLOUIN|   198           0.00116       -0.37500       -0.12500       -0.04167
 BRILLOUIN|   199           0.00116       -0.37500       -0.12500        0.04167
 BRILLOUIN|   200           0.00116       -0.37500       -0.12500        0.12500
 BRILLOUIN|   201           0.00116       -0.37500       -0.12500        0.20833
 BRILLOUIN|   202           0.00116       -0.37500       -0.12500        0.29167
 BRILLOUIN|   203           0.00116       -0.37500       -0.12500        0.37500
 BRILLOUIN|   204           0.00116       -0.37500       -0.12500        0.45833
 BRILLOUIN|   205           0.00116       -0.37500       -0.04167       -0.45833
 BRILLOUIN|   206           0.00116       -0.37500       -0.04167       -0.37500
 BRILLOUIN|   207           0.00116       -0.37500       -0.04167       -0.29167
 BRILLOUIN|   208           0.00116       -0.37500       -0.04167       -0.20833
 BRILLOUIN|   209           0.00116       -0.37500       -0.04167       -0.12500
 BRILLOUIN|   210           0.00116       -0.37500       -0.04167       -0.04167
 BRILLOUIN|   211           0.00116       -0.37500       -0.04167        0.04167
 BRILLOUIN|   212           0.00116       -0.37500       -0.04167        0.12500
 BRILLOUIN|   213           0.00116       -0.37500       -0.04167        0.20833
 BRILLOUIN|   214           0.00116       -0.37500       -0.04167        0.29167
 BRILLOUIN|   215           0.00116       -0.37500       -0.04167        0.37500
 BRILLOUIN|   216           0.00116       -0.37500       -0.04167        0.45833
 BRILLOUIN|   217           0.00116       -0.37500        0.04167       -0.45833
 BRILLOUIN|   218           0.00116       -0.37500        0.04167       -0.37500
 BRILLOUIN|   219           0.00116       -0.37500        0.04167       -0.29167
 BRILLOUIN|   220           0.00116       -0.37500        0.04167       -0.20833
 BRILLOUIN|   221           0.00116       -0.37500        0.04167       -0.12500
 BRILLOUIN|   222           0.00116       -0.37500        0.04167       -0.04167
 BRILLOUIN|   223           0.00116       -0.37500        0.04167        0.04167
 BRILLOUIN|   224           0.00116       -0.37500        0.04167        0.12500
 BRILLOUIN|   225           0.00116       -0.37500        0.04167        0.20833
 BRILLOUIN|   226           0.00116       -0.37500        0.04167        0.29167
 BRILLOUIN|   227           0.00116       -0.37500        0.04167        0.37500
 BRILLOUIN|   228           0.00116       -0.37500        0.04167        0.45833
 BRILLOUIN|   229           0.00116       -0.37500        0.12500       -0.45833
 BRILLOUIN|   230           0.00116       -0.37500        0.12500       -0.37500
 BRILLOUIN|   231           0.00116       -0.37500        0.12500       -0.29167
 BRILLOUIN|   232           0.00116       -0.37500        0.12500       -0.20833
 BRILLOUIN|   233           0.00116       -0.37500        0.12500       -0.12500
 BRILLOUIN|   234           0.00116       -0.37500        0.12500       -0.04167
 BRILLOUIN|   235           0.00116       -0.37500        0.12500        0.04167
 BRILLOUIN|   236           0.00116       -0.37500        0.12500        0.12500
 BRILLOUIN|   237           0.00116       -0.37500        0.12500        0.20833
 BRILLOUIN|   238           0.00116       -0.37500        0.12500        0.29167
 BRILLOUIN|   239           0.00116       -0.37500        0.12500        0.37500
 BRILLOUIN|   240           0.00116       -0.37500        0.12500        0.45833
 BRILLOUIN|   241           0.00116       -0.37500        0.20833       -0.45833
 BRILLOUIN|   242           0.00116       -0.37500        0.20833       -0.37500
 BRILLOUIN|   243           0.00116       -0.37500        0.20833       -0.29167
 BRILLOUIN|   244           0.00116       -0.37500        0.20833       -0.20833
 BRILLOUIN|   245           0.00116       -0.37500        0.20833       -0.12500
 BRILLOUIN|   246           0.00116       -0.37500        0.20833       -0.04167
 BRILLOUIN|   247           0.00116       -0.37500        0.20833        0.04167
 BRILLOUIN|   248           0.00116       -0.37500        0.20833        0.12500
 BRILLOUIN|   249           0.00116       -0.37500        0.20833        0.20833
 BRILLOUIN|   250           0.00116       -0.37500        0.20833        0.29167
 BRILLOUIN|   251           0.00116       -0.37500        0.20833        0.37500
 BRILLOUIN|   252           0.00116       -0.37500        0.20833        0.45833
 BRILLOUIN|   253           0.00116       -0.37500        0.29167       -0.45833
 BRILLOUIN|   254           0.00116       -0.37500        0.29167       -0.37500
 BRILLOUIN|   255           0.00116       -0.37500        0.29167       -0.29167
 BRILLOUIN|   256           0.00116       -0.37500        0.29167       -0.20833
 BRILLOUIN|   257           0.00116       -0.37500        0.29167       -0.12500
 BRILLOUIN|   258           0.00116       -0.37500        0.29167       -0.04167
 BRILLOUIN|   259           0.00116       -0.37500        0.29167        0.04167
 BRILLOUIN|   260           0.00116       -0.37500        0.29167        0.12500
 BRILLOUIN|   261           0.00116       -0.37500        0.29167        0.20833
 BRILLOUIN|   262           0.00116       -0.37500        0.29167        0.29167
 BRILLOUIN|   263           0.00116       -0.37500        0.29167        0.37500
 BRILLOUIN|   264           0.00116       -0.37500        0.29167        0.45833
 BRILLOUIN|   265           0.00116       -0.37500        0.37500       -0.45833
 BRILLOUIN|   266           0.00116       -0.37500        0.37500       -0.37500
 BRILLOUIN|   267           0.00116       -0.37500        0.37500       -0.29167
 BRILLOUIN|   268           0.00116       -0.37500        0.37500       -0.20833
 BRILLOUIN|   269           0.00116       -0.37500        0.37500       -0.12500
 BRILLOUIN|   270           0.00116       -0.37500        0.37500       -0.04167
 BRILLOUIN|   271           0.00116       -0.37500        0.37500        0.04167
 BRILLOUIN|   272           0.00116       -0.37500        0.37500        0.12500
 BRILLOUIN|   273           0.00116       -0.37500        0.37500        0.20833
 BRILLOUIN|   274           0.00116       -0.37500        0.37500        0.29167
 BRILLOUIN|   275           0.00116       -0.37500        0.37500        0.37500
 BRILLOUIN|   276           0.00116       -0.37500        0.37500        0.45833
 BRILLOUIN|   277           0.00116       -0.37500        0.45833       -0.45833
 BRILLOUIN|   278           0.00116       -0.37500        0.45833       -0.37500
 BRILLOUIN|   279           0.00116       -0.37500        0.45833       -0.29167
 BRILLOUIN|   280           0.00116       -0.37500        0.45833       -0.20833
 BRILLOUIN|   281           0.00116       -0.37500        0.45833       -0.12500
 BRILLOUIN|   282           0.00116       -0.37500        0.45833       -0.04167
 BRILLOUIN|   283           0.00116       -0.37500        0.45833        0.04167
 BRILLOUIN|   284           0.00116       -0.37500        0.45833        0.12500
 BRILLOUIN|   285           0.00116       -0.37500        0.45833        0.20833
 BRILLOUIN|   286           0.00116       -0.37500        0.45833        0.29167
 BRILLOUIN|   287           0.00116       -0.37500        0.45833        0.37500
 BRILLOUIN|   288           0.00116       -0.37500        0.45833        0.45833
 BRILLOUIN|   289           0.00116       -0.29167       -0.45833       -0.45833
 BRILLOUIN|   290           0.00116       -0.29167       -0.45833       -0.37500
 BRILLOUIN|   291           0.00116       -0.29167       -0.45833       -0.29167
 BRILLOUIN|   292           0.00116       -0.29167       -0.45833       -0.20833
 BRILLOUIN|   293           0.00116       -0.29167       -0.45833       -0.12500
 BRILLOUIN|   294           0.00116       -0.29167       -0.45833       -0.04167
 BRILLOUIN|   295           0.00116       -0.29167       -0.45833        0.04167
 BRILLOUIN|   296           0.00116       -0.29167       -0.45833        0.12500
 BRILLOUIN|   297           0.00116       -0.29167       -0.45833        0.20833
 BRILLOUIN|   298           0.00116       -0.29167       -0.45833        0.29167
 BRILLOUIN|   299           0.00116       -0.29167       -0.45833        0.37500
 BRILLOUIN|   300           0.00116       -0.29167       -0.45833        0.45833
 BRILLOUIN|   301           0.00116       -0.29167       -0.37500       -0.45833
 BRILLOUIN|   302           0.00116       -0.29167       -0.37500       -0.37500
 BRILLOUIN|   303           0.00116       -0.29167       -0.37500       -0.29167
 BRILLOUIN|   304           0.00116       -0.29167       -0.37500       -0.20833
 BRILLOUIN|   305           0.00116       -0.29167       -0.37500       -0.12500
 BRILLOUIN|   306           0.00116       -0.29167       -0.37500       -0.04167
 BRILLOUIN|   307           0.00116       -0.29167       -0.37500        0.04167
 BRILLOUIN|   308           0.00116       -0.29167       -0.37500        0.12500
 BRILLOUIN|   309           0.00116       -0.29167       -0.37500        0.20833
 BRILLOUIN|   310           0.00116       -0.29167       -0.37500        0.29167
 BRILLOUIN|   311           0.00116       -0.29167       -0.37500        0.37500
 BRILLOUIN|   312           0.00116       -0.29167       -0.37500        0.45833
 BRILLOUIN|   313           0.00116       -0.29167       -0.29167       -0.45833
 BRILLOUIN|   314           0.00116       -0.29167       -0.29167       -0.37500
 BRILLOUIN|   315           0.00116       -0.29167       -0.29167       -0.29167
 BRILLOUIN|   316           0.00116       -0.29167       -0.29167       -0.20833
 BRILLOUIN|   317           0.00116       -0.29167       -0.29167       -0.12500
 BRILLOUIN|   318           0.00116       -0.29167       -0.29167       -0.04167
 BRILLOUIN|   319           0.00116       -0.29167       -0.29167        0.04167
 BRILLOUIN|   320           0.00116       -0.29167       -0.29167        0.12500
 BRILLOUIN|   321           0.00116       -0.29167       -0.29167        0.20833
 BRILLOUIN|   322           0.00116       -0.29167       -0.29167        0.29167
 BRILLOUIN|   323           0.00116       -0.29167       -0.29167        0.37500
 BRILLOUIN|   324           0.00116       -0.29167       -0.29167        0.45833
 BRILLOUIN|   325           0.00116       -0.29167       -0.20833       -0.45833
 BRILLOUIN|   326           0.00116       -0.29167       -0.20833       -0.37500
 BRILLOUIN|   327           0.00116       -0.29167       -0.20833       -0.29167
 BRILLOUIN|   328           0.00116       -0.29167       -0.20833       -0.20833
 BRILLOUIN|   329           0.00116       -0.29167       -0.20833       -0.12500
 BRILLOUIN|   330           0.00116       -0.29167       -0.20833       -0.04167
 BRILLOUIN|   331           0.00116       -0.29167       -0.20833        0.04167
 BRILLOUIN|   332           0.00116       -0.29167       -0.20833        0.12500
 BRILLOUIN|   333           0.00116       -0.29167       -0.20833        0.20833
 BRILLOUIN|   334           0.00116       -0.29167       -0.20833        0.29167
 BRILLOUIN|   335           0.00116       -0.29167       -0.20833        0.37500
 BRILLOUIN|   336           0.00116       -0.29167       -0.20833        0.45833
 BRILLOUIN|   337           0.00116       -0.29167       -0.12500       -0.45833
 BRILLOUIN|   338           0.00116       -0.29167       -0.12500       -0.37500
 BRILLOUIN|   339           0.00116       -0.29167       -0.12500       -0.29167
 BRILLOUIN|   340           0.00116       -0.29167       -0.12500       -0.20833
 BRILLOUIN|   341           0.00116       -0.29167       -0.12500       -0.12500
 BRILLOUIN|   342           0.00116       -0.29167       -0.12500       -0.04167
 BRILLOUIN|   343           0.00116       -0.29167       -0.12500        0.04167
 BRILLOUIN|   344           0.00116       -0.29167       -0.12500        0.12500
 BRILLOUIN|   345           0.00116       -0.29167       -0.12500        0.20833
 BRILLOUIN|   346           0.00116       -0.29167       -0.12500        0.29167
 BRILLOUIN|   347           0.00116       -0.29167       -0.12500        0.37500
 BRILLOUIN|   348           0.00116       -0.29167       -0.12500        0.45833
 BRILLOUIN|   349           0.00116       -0.29167       -0.04167       -0.45833
 BRILLOUIN|   350           0.00116       -0.29167       -0.04167       -0.37500
 BRILLOUIN|   351           0.00116       -0.29167       -0.04167       -0.29167
 BRILLOUIN|   352           0.00116       -0.29167       -0.04167       -0.20833
 BRILLOUIN|   353           0.00116       -0.29167       -0.04167       -0.12500
 BRILLOUIN|   354           0.00116       -0.29167       -0.04167       -0.04167
 BRILLOUIN|   355           0.00116       -0.29167       -0.04167        0.04167
 BRILLOUIN|   356           0.00116       -0.29167       -0.04167        0.12500
 BRILLOUIN|   357           0.00116       -0.29167       -0.04167        0.20833
 BRILLOUIN|   358           0.00116       -0.29167       -0.04167        0.29167
 BRILLOUIN|   359           0.00116       -0.29167       -0.04167        0.37500
 BRILLOUIN|   360           0.00116       -0.29167       -0.04167        0.45833
 BRILLOUIN|   361           0.00116       -0.29167        0.04167       -0.45833
 BRILLOUIN|   362           0.00116       -0.29167        0.04167       -0.37500
 BRILLOUIN|   363           0.00116       -0.29167        0.04167       -0.29167
 BRILLOUIN|   364           0.00116       -0.29167        0.04167       -0.20833
 BRILLOUIN|   365           0.00116       -0.29167        0.04167       -0.12500
 BRILLOUIN|   366           0.00116       -0.29167        0.04167       -0.04167
 BRILLOUIN|   367           0.00116       -0.29167        0.04167        0.04167
 BRILLOUIN|   368           0.00116       -0.29167        0.04167        0.12500
 BRILLOUIN|   369           0.00116       -0.29167        0.04167        0.20833
 BRILLOUIN|   370           0.00116       -0.29167        0.04167        0.29167
 BRILLOUIN|   371           0.00116       -0.29167        0.04167        0.37500
 BRILLOUIN|   372           0.00116       -0.29167        0.04167        0.45833
 BRILLOUIN|   373           0.00116       -0.29167        0.12500       -0.45833
 BRILLOUIN|   374           0.00116       -0.29167        0.12500       -0.37500
 BRILLOUIN|   375           0.00116       -0.29167        0.12500       -0.29167
 BRILLOUIN|   376           0.00116       -0.29167        0.12500       -0.20833
 BRILLOUIN|   377           0.00116       -0.29167        0.12500       -0.12500
 BRILLOUIN|   378           0.00116       -0.29167        0.12500       -0.04167
 BRILLOUIN|   379           0.00116       -0.29167        0.12500        0.04167
 BRILLOUIN|   380           0.00116       -0.29167        0.12500        0.12500
 BRILLOUIN|   381           0.00116       -0.29167        0.12500        0.20833
 BRILLOUIN|   382           0.00116       -0.29167        0.12500        0.29167
 BRILLOUIN|   383           0.00116       -0.29167        0.12500        0.37500
 BRILLOUIN|   384           0.00116       -0.29167        0.12500        0.45833
 BRILLOUIN|   385           0.00116       -0.29167        0.20833       -0.45833
 BRILLOUIN|   386           0.00116       -0.29167        0.20833       -0.37500
 BRILLOUIN|   387           0.00116       -0.29167        0.20833       -0.29167
 BRILLOUIN|   388           0.00116       -0.29167        0.20833       -0.20833
 BRILLOUIN|   389           0.00116       -0.29167        0.20833       -0.12500
 BRILLOUIN|   390           0.00116       -0.29167        0.20833       -0.04167
 BRILLOUIN|   391           0.00116       -0.29167        0.20833        0.04167
 BRILLOUIN|   392           0.00116       -0.29167        0.20833        0.12500
 BRILLOUIN|   393           0.00116       -0.29167        0.20833        0.20833
 BRILLOUIN|   394           0.00116       -0.29167        0.20833        0.29167
 BRILLOUIN|   395           0.00116       -0.29167        0.20833        0.37500
 BRILLOUIN|   396           0.00116       -0.29167        0.20833        0.45833
 BRILLOUIN|   397           0.00116       -0.29167        0.29167       -0.45833
 BRILLOUIN|   398           0.00116       -0.29167        0.29167       -0.37500
 BRILLOUIN|   399           0.00116       -0.29167        0.29167       -0.29167
 BRILLOUIN|   400           0.00116       -0.29167        0.29167       -0.20833
 BRILLOUIN|   401           0.00116       -0.29167        0.29167       -0.12500
 BRILLOUIN|   402           0.00116       -0.29167        0.29167       -0.04167
 BRILLOUIN|   403           0.00116       -0.29167        0.29167        0.04167
 BRILLOUIN|   404           0.00116       -0.29167        0.29167        0.12500
 BRILLOUIN|   405           0.00116       -0.29167        0.29167        0.20833
 BRILLOUIN|   406           0.00116       -0.29167        0.29167        0.29167
 BRILLOUIN|   407           0.00116       -0.29167        0.29167        0.37500
 BRILLOUIN|   408           0.00116       -0.29167        0.29167        0.45833
 BRILLOUIN|   409           0.00116       -0.29167        0.37500       -0.45833
 BRILLOUIN|   410           0.00116       -0.29167        0.37500       -0.37500
 BRILLOUIN|   411           0.00116       -0.29167        0.37500       -0.29167
 BRILLOUIN|   412           0.00116       -0.29167        0.37500       -0.20833
 BRILLOUIN|   413           0.00116       -0.29167        0.37500       -0.12500
 BRILLOUIN|   414           0.00116       -0.29167        0.37500       -0.04167
 BRILLOUIN|   415           0.00116       -0.29167        0.37500        0.04167
 BRILLOUIN|   416           0.00116       -0.29167        0.37500        0.12500
 BRILLOUIN|   417           0.00116       -0.29167        0.37500        0.20833
 BRILLOUIN|   418           0.00116       -0.29167        0.37500        0.29167
 BRILLOUIN|   419           0.00116       -0.29167        0.37500        0.37500
 BRILLOUIN|   420           0.00116       -0.29167        0.37500        0.45833
 BRILLOUIN|   421           0.00116       -0.29167        0.45833       -0.45833
 BRILLOUIN|   422           0.00116       -0.29167        0.45833       -0.37500
 BRILLOUIN|   423           0.00116       -0.29167        0.45833       -0.29167
 BRILLOUIN|   424           0.00116       -0.29167        0.45833       -0.20833
 BRILLOUIN|   425           0.00116       -0.29167        0.45833       -0.12500
 BRILLOUIN|   426           0.00116       -0.29167        0.45833       -0.04167
 BRILLOUIN|   427           0.00116       -0.29167        0.45833        0.04167
 BRILLOUIN|   428           0.00116       -0.29167        0.45833        0.12500
 BRILLOUIN|   429           0.00116       -0.29167        0.45833        0.20833
 BRILLOUIN|   430           0.00116       -0.29167        0.45833        0.29167
 BRILLOUIN|   431           0.00116       -0.29167        0.45833        0.37500
 BRILLOUIN|   432           0.00116       -0.29167        0.45833        0.45833
 BRILLOUIN|   433           0.00116       -0.20833       -0.45833       -0.45833
 BRILLOUIN|   434           0.00116       -0.20833       -0.45833       -0.37500
 BRILLOUIN|   435           0.00116       -0.20833       -0.45833       -0.29167
 BRILLOUIN|   436           0.00116       -0.20833       -0.45833       -0.20833
 BRILLOUIN|   437           0.00116       -0.20833       -0.45833       -0.12500
 BRILLOUIN|   438           0.00116       -0.20833       -0.45833       -0.04167
 BRILLOUIN|   439           0.00116       -0.20833       -0.45833        0.04167
 BRILLOUIN|   440           0.00116       -0.20833       -0.45833        0.12500
 BRILLOUIN|   441           0.00116       -0.20833       -0.45833        0.20833
 BRILLOUIN|   442           0.00116       -0.20833       -0.45833        0.29167
 BRILLOUIN|   443           0.00116       -0.20833       -0.45833        0.37500
 BRILLOUIN|   444           0.00116       -0.20833       -0.45833        0.45833
 BRILLOUIN|   445           0.00116       -0.20833       -0.37500       -0.45833
 BRILLOUIN|   446           0.00116       -0.20833       -0.37500       -0.37500
 BRILLOUIN|   447           0.00116       -0.20833       -0.37500       -0.29167
 BRILLOUIN|   448           0.00116       -0.20833       -0.37500       -0.20833
 BRILLOUIN|   449           0.00116       -0.20833       -0.37500       -0.12500
 BRILLOUIN|   450           0.00116       -0.20833       -0.37500       -0.04167
 BRILLOUIN|   451           0.00116       -0.20833       -0.37500        0.04167
 BRILLOUIN|   452           0.00116       -0.20833       -0.37500        0.12500
 BRILLOUIN|   453           0.00116       -0.20833       -0.37500        0.20833
 BRILLOUIN|   454           0.00116       -0.20833       -0.37500        0.29167
 BRILLOUIN|   455           0.00116       -0.20833       -0.37500        0.37500
 BRILLOUIN|   456           0.00116       -0.20833       -0.37500        0.45833
 BRILLOUIN|   457           0.00116       -0.20833       -0.29167       -0.45833
 BRILLOUIN|   458           0.00116       -0.20833       -0.29167       -0.37500
 BRILLOUIN|   459           0.00116       -0.20833       -0.29167       -0.29167
 BRILLOUIN|   460           0.00116       -0.20833       -0.29167       -0.20833
 BRILLOUIN|   461           0.00116       -0.20833       -0.29167       -0.12500
 BRILLOUIN|   462           0.00116       -0.20833       -0.29167       -0.04167
 BRILLOUIN|   463           0.00116       -0.20833       -0.29167        0.04167
 BRILLOUIN|   464           0.00116       -0.20833       -0.29167        0.12500
 BRILLOUIN|   465           0.00116       -0.20833       -0.29167        0.20833
 BRILLOUIN|   466           0.00116       -0.20833       -0.29167        0.29167
 BRILLOUIN|   467           0.00116       -0.20833       -0.29167        0.37500
 BRILLOUIN|   468           0.00116       -0.20833       -0.29167        0.45833
 BRILLOUIN|   469           0.00116       -0.20833       -0.20833       -0.45833
 BRILLOUIN|   470           0.00116       -0.20833       -0.20833       -0.37500
 BRILLOUIN|   471           0.00116       -0.20833       -0.20833       -0.29167
 BRILLOUIN|   472           0.00116       -0.20833       -0.20833       -0.20833
 BRILLOUIN|   473           0.00116       -0.20833       -0.20833       -0.12500
 BRILLOUIN|   474           0.00116       -0.20833       -0.20833       -0.04167
 BRILLOUIN|   475           0.00116       -0.20833       -0.20833        0.04167
 BRILLOUIN|   476           0.00116       -0.20833       -0.20833        0.12500
 BRILLOUIN|   477           0.00116       -0.20833       -0.20833        0.20833
 BRILLOUIN|   478           0.00116       -0.20833       -0.20833        0.29167
 BRILLOUIN|   479           0.00116       -0.20833       -0.20833        0.37500
 BRILLOUIN|   480           0.00116       -0.20833       -0.20833        0.45833
 BRILLOUIN|   481           0.00116       -0.20833       -0.12500       -0.45833
 BRILLOUIN|   482           0.00116       -0.20833       -0.12500       -0.37500
 BRILLOUIN|   483           0.00116       -0.20833       -0.12500       -0.29167
 BRILLOUIN|   484           0.00116       -0.20833       -0.12500       -0.20833
 BRILLOUIN|   485           0.00116       -0.20833       -0.12500       -0.12500
 BRILLOUIN|   486           0.00116       -0.20833       -0.12500       -0.04167
 BRILLOUIN|   487           0.00116       -0.20833       -0.12500        0.04167
 BRILLOUIN|   488           0.00116       -0.20833       -0.12500        0.12500
 BRILLOUIN|   489           0.00116       -0.20833       -0.12500        0.20833
 BRILLOUIN|   490           0.00116       -0.20833       -0.12500        0.29167
 BRILLOUIN|   491           0.00116       -0.20833       -0.12500        0.37500
 BRILLOUIN|   492           0.00116       -0.20833       -0.12500        0.45833
 BRILLOUIN|   493           0.00116       -0.20833       -0.04167       -0.45833
 BRILLOUIN|   494           0.00116       -0.20833       -0.04167       -0.37500
 BRILLOUIN|   495           0.00116       -0.20833       -0.04167       -0.29167
 BRILLOUIN|   496           0.00116       -0.20833       -0.04167       -0.20833
 BRILLOUIN|   497           0.00116       -0.20833       -0.04167       -0.12500
 BRILLOUIN|   498           0.00116       -0.20833       -0.04167       -0.04167
 BRILLOUIN|   499           0.00116       -0.20833       -0.04167        0.04167
 BRILLOUIN|   500           0.00116       -0.20833       -0.04167        0.12500
 BRILLOUIN|   501           0.00116       -0.20833       -0.04167        0.20833
 BRILLOUIN|   502           0.00116       -0.20833       -0.04167        0.29167
 BRILLOUIN|   503           0.00116       -0.20833       -0.04167        0.37500
 BRILLOUIN|   504           0.00116       -0.20833       -0.04167        0.45833
 BRILLOUIN|   505           0.00116       -0.20833        0.04167       -0.45833
 BRILLOUIN|   506           0.00116       -0.20833        0.04167       -0.37500
 BRILLOUIN|   507           0.00116       -0.20833        0.04167       -0.29167
 BRILLOUIN|   508           0.00116       -0.20833        0.04167       -0.20833
 BRILLOUIN|   509           0.00116       -0.20833        0.04167       -0.12500
 BRILLOUIN|   510           0.00116       -0.20833        0.04167       -0.04167
 BRILLOUIN|   511           0.00116       -0.20833        0.04167        0.04167
 BRILLOUIN|   512           0.00116       -0.20833        0.04167        0.12500
 BRILLOUIN|   513           0.00116       -0.20833        0.04167        0.20833
 BRILLOUIN|   514           0.00116       -0.20833        0.04167        0.29167
 BRILLOUIN|   515           0.00116       -0.20833        0.04167        0.37500
 BRILLOUIN|   516           0.00116       -0.20833        0.04167        0.45833
 BRILLOUIN|   517           0.00116       -0.20833        0.12500       -0.45833
 BRILLOUIN|   518           0.00116       -0.20833        0.12500       -0.37500
 BRILLOUIN|   519           0.00116       -0.20833        0.12500       -0.29167
 BRILLOUIN|   520           0.00116       -0.20833        0.12500       -0.20833
 BRILLOUIN|   521           0.00116       -0.20833        0.12500       -0.12500
 BRILLOUIN|   522           0.00116       -0.20833        0.12500       -0.04167
 BRILLOUIN|   523           0.00116       -0.20833        0.12500        0.04167
 BRILLOUIN|   524           0.00116       -0.20833        0.12500        0.12500
 BRILLOUIN|   525           0.00116       -0.20833        0.12500        0.20833
 BRILLOUIN|   526           0.00116       -0.20833        0.12500        0.29167
 BRILLOUIN|   527           0.00116       -0.20833        0.12500        0.37500
 BRILLOUIN|   528           0.00116       -0.20833        0.12500        0.45833
 BRILLOUIN|   529           0.00116       -0.20833        0.20833       -0.45833
 BRILLOUIN|   530           0.00116       -0.20833        0.20833       -0.37500
 BRILLOUIN|   531           0.00116       -0.20833        0.20833       -0.29167
 BRILLOUIN|   532           0.00116       -0.20833        0.20833       -0.20833
 BRILLOUIN|   533           0.00116       -0.20833        0.20833       -0.12500
 BRILLOUIN|   534           0.00116       -0.20833        0.20833       -0.04167
 BRILLOUIN|   535           0.00116       -0.20833        0.20833        0.04167
 BRILLOUIN|   536           0.00116       -0.20833        0.20833        0.12500
 BRILLOUIN|   537           0.00116       -0.20833        0.20833        0.20833
 BRILLOUIN|   538           0.00116       -0.20833        0.20833        0.29167
 BRILLOUIN|   539           0.00116       -0.20833        0.20833        0.37500
 BRILLOUIN|   540           0.00116       -0.20833        0.20833        0.45833
 BRILLOUIN|   541           0.00116       -0.20833        0.29167       -0.45833
 BRILLOUIN|   542           0.00116       -0.20833        0.29167       -0.37500
 BRILLOUIN|   543           0.00116       -0.20833        0.29167       -0.29167
 BRILLOUIN|   544           0.00116       -0.20833        0.29167       -0.20833
 BRILLOUIN|   545           0.00116       -0.20833        0.29167       -0.12500
 BRILLOUIN|   546           0.00116       -0.20833        0.29167       -0.04167
 BRILLOUIN|   547           0.00116       -0.20833        0.29167        0.04167
 BRILLOUIN|   548           0.00116       -0.20833        0.29167        0.12500
 BRILLOUIN|   549           0.00116       -0.20833        0.29167        0.20833
 BRILLOUIN|   550           0.00116       -0.20833        0.29167        0.29167
 BRILLOUIN|   551           0.00116       -0.20833        0.29167        0.37500
 BRILLOUIN|   552           0.00116       -0.20833        0.29167        0.45833
 BRILLOUIN|   553           0.00116       -0.20833        0.37500       -0.45833
 BRILLOUIN|   554           0.00116       -0.20833        0.37500       -0.37500
 BRILLOUIN|   555           0.00116       -0.20833        0.37500       -0.29167
 BRILLOUIN|   556           0.00116       -0.20833        0.37500       -0.20833
 BRILLOUIN|   557           0.00116       -0.20833        0.37500       -0.12500
 BRILLOUIN|   558           0.00116       -0.20833        0.37500       -0.04167
 BRILLOUIN|   559           0.00116       -0.20833        0.37500        0.04167
 BRILLOUIN|   560           0.00116       -0.20833        0.37500        0.12500
 BRILLOUIN|   561           0.00116       -0.20833        0.37500        0.20833
 BRILLOUIN|   562           0.00116       -0.20833        0.37500        0.29167
 BRILLOUIN|   563           0.00116       -0.20833        0.37500        0.37500
 BRILLOUIN|   564           0.00116       -0.20833        0.37500        0.45833
 BRILLOUIN|   565           0.00116       -0.20833        0.45833       -0.45833
 BRILLOUIN|   566           0.00116       -0.20833        0.45833       -0.37500
 BRILLOUIN|   567           0.00116       -0.20833        0.45833       -0.29167
 BRILLOUIN|   568           0.00116       -0.20833        0.45833       -0.20833
 BRILLOUIN|   569           0.00116       -0.20833        0.45833       -0.12500
 BRILLOUIN|   570           0.00116       -0.20833        0.45833       -0.04167
 BRILLOUIN|   571           0.00116       -0.20833        0.45833        0.04167
 BRILLOUIN|   572           0.00116       -0.20833        0.45833        0.12500
 BRILLOUIN|   573           0.00116       -0.20833        0.45833        0.20833
 BRILLOUIN|   574           0.00116       -0.20833        0.45833        0.29167
 BRILLOUIN|   575           0.00116       -0.20833        0.45833        0.37500
 BRILLOUIN|   576           0.00116       -0.20833        0.45833        0.45833
 BRILLOUIN|   577           0.00116       -0.12500       -0.45833       -0.45833
 BRILLOUIN|   578           0.00116       -0.12500       -0.45833       -0.37500
 BRILLOUIN|   579           0.00116       -0.12500       -0.45833       -0.29167
 BRILLOUIN|   580           0.00116       -0.12500       -0.45833       -0.20833
 BRILLOUIN|   581           0.00116       -0.12500       -0.45833       -0.12500
 BRILLOUIN|   582           0.00116       -0.12500       -0.45833       -0.04167
 BRILLOUIN|   583           0.00116       -0.12500       -0.45833        0.04167
 BRILLOUIN|   584           0.00116       -0.12500       -0.45833        0.12500
 BRILLOUIN|   585           0.00116       -0.12500       -0.45833        0.20833
 BRILLOUIN|   586           0.00116       -0.12500       -0.45833        0.29167
 BRILLOUIN|   587           0.00116       -0.12500       -0.45833        0.37500
 BRILLOUIN|   588           0.00116       -0.12500       -0.45833        0.45833
 BRILLOUIN|   589           0.00116       -0.12500       -0.37500       -0.45833
 BRILLOUIN|   590           0.00116       -0.12500       -0.37500       -0.37500
 BRILLOUIN|   591           0.00116       -0.12500       -0.37500       -0.29167
 BRILLOUIN|   592           0.00116       -0.12500       -0.37500       -0.20833
 BRILLOUIN|   593           0.00116       -0.12500       -0.37500       -0.12500
 BRILLOUIN|   594           0.00116       -0.12500       -0.37500       -0.04167
 BRILLOUIN|   595           0.00116       -0.12500       -0.37500        0.04167
 BRILLOUIN|   596           0.00116       -0.12500       -0.37500        0.12500
 BRILLOUIN|   597           0.00116       -0.12500       -0.37500        0.20833
 BRILLOUIN|   598           0.00116       -0.12500       -0.37500        0.29167
 BRILLOUIN|   599           0.00116       -0.12500       -0.37500        0.37500
 BRILLOUIN|   600           0.00116       -0.12500       -0.37500        0.45833
 BRILLOUIN|   601           0.00116       -0.12500       -0.29167       -0.45833
 BRILLOUIN|   602           0.00116       -0.12500       -0.29167       -0.37500
 BRILLOUIN|   603           0.00116       -0.12500       -0.29167       -0.29167
 BRILLOUIN|   604           0.00116       -0.12500       -0.29167       -0.20833
 BRILLOUIN|   605           0.00116       -0.12500       -0.29167       -0.12500
 BRILLOUIN|   606           0.00116       -0.12500       -0.29167       -0.04167
 BRILLOUIN|   607           0.00116       -0.12500       -0.29167        0.04167
 BRILLOUIN|   608           0.00116       -0.12500       -0.29167        0.12500
 BRILLOUIN|   609           0.00116       -0.12500       -0.29167        0.20833
 BRILLOUIN|   610           0.00116       -0.12500       -0.29167        0.29167
 BRILLOUIN|   611           0.00116       -0.12500       -0.29167        0.37500
 BRILLOUIN|   612           0.00116       -0.12500       -0.29167        0.45833
 BRILLOUIN|   613           0.00116       -0.12500       -0.20833       -0.45833
 BRILLOUIN|   614           0.00116       -0.12500       -0.20833       -0.37500
 BRILLOUIN|   615           0.00116       -0.12500       -0.20833       -0.29167
 BRILLOUIN|   616           0.00116       -0.12500       -0.20833       -0.20833
 BRILLOUIN|   617           0.00116       -0.12500       -0.20833       -0.12500
 BRILLOUIN|   618           0.00116       -0.12500       -0.20833       -0.04167
 BRILLOUIN|   619           0.00116       -0.12500       -0.20833        0.04167
 BRILLOUIN|   620           0.00116       -0.12500       -0.20833        0.12500
 BRILLOUIN|   621           0.00116       -0.12500       -0.20833        0.20833
 BRILLOUIN|   622           0.00116       -0.12500       -0.20833        0.29167
 BRILLOUIN|   623           0.00116       -0.12500       -0.20833        0.37500
 BRILLOUIN|   624           0.00116       -0.12500       -0.20833        0.45833
 BRILLOUIN|   625           0.00116       -0.12500       -0.12500       -0.45833
 BRILLOUIN|   626           0.00116       -0.12500       -0.12500       -0.37500
 BRILLOUIN|   627           0.00116       -0.12500       -0.12500       -0.29167
 BRILLOUIN|   628           0.00116       -0.12500       -0.12500       -0.20833
 BRILLOUIN|   629           0.00116       -0.12500       -0.12500       -0.12500
 BRILLOUIN|   630           0.00116       -0.12500       -0.12500       -0.04167
 BRILLOUIN|   631           0.00116       -0.12500       -0.12500        0.04167
 BRILLOUIN|   632           0.00116       -0.12500       -0.12500        0.12500
 BRILLOUIN|   633           0.00116       -0.12500       -0.12500        0.20833
 BRILLOUIN|   634           0.00116       -0.12500       -0.12500        0.29167
 BRILLOUIN|   635           0.00116       -0.12500       -0.12500        0.37500
 BRILLOUIN|   636           0.00116       -0.12500       -0.12500        0.45833
 BRILLOUIN|   637           0.00116       -0.12500       -0.04167       -0.45833
 BRILLOUIN|   638           0.00116       -0.12500       -0.04167       -0.37500
 BRILLOUIN|   639           0.00116       -0.12500       -0.04167       -0.29167
 BRILLOUIN|   640           0.00116       -0.12500       -0.04167       -0.20833
 BRILLOUIN|   641           0.00116       -0.12500       -0.04167       -0.12500
 BRILLOUIN|   642           0.00116       -0.12500       -0.04167       -0.04167
 BRILLOUIN|   643           0.00116       -0.12500       -0.04167        0.04167
 BRILLOUIN|   644           0.00116       -0.12500       -0.04167        0.12500
 BRILLOUIN|   645           0.00116       -0.12500       -0.04167        0.20833
 BRILLOUIN|   646           0.00116       -0.12500       -0.04167        0.29167
 BRILLOUIN|   647           0.00116       -0.12500       -0.04167        0.37500
 BRILLOUIN|   648           0.00116       -0.12500       -0.04167        0.45833
 BRILLOUIN|   649           0.00116       -0.12500        0.04167       -0.45833
 BRILLOUIN|   650           0.00116       -0.12500        0.04167       -0.37500
 BRILLOUIN|   651           0.00116       -0.12500        0.04167       -0.29167
 BRILLOUIN|   652           0.00116       -0.12500        0.04167       -0.20833
 BRILLOUIN|   653           0.00116       -0.12500        0.04167       -0.12500
 BRILLOUIN|   654           0.00116       -0.12500        0.04167       -0.04167
 BRILLOUIN|   655           0.00116       -0.12500        0.04167        0.04167
 BRILLOUIN|   656           0.00116       -0.12500        0.04167        0.12500
 BRILLOUIN|   657           0.00116       -0.12500        0.04167        0.20833
 BRILLOUIN|   658           0.00116       -0.12500        0.04167        0.29167
 BRILLOUIN|   659           0.00116       -0.12500        0.04167        0.37500
 BRILLOUIN|   660           0.00116       -0.12500        0.04167        0.45833
 BRILLOUIN|   661           0.00116       -0.12500        0.12500       -0.45833
 BRILLOUIN|   662           0.00116       -0.12500        0.12500       -0.37500
 BRILLOUIN|   663           0.00116       -0.12500        0.12500       -0.29167
 BRILLOUIN|   664           0.00116       -0.12500        0.12500       -0.20833
 BRILLOUIN|   665           0.00116       -0.12500        0.12500       -0.12500
 BRILLOUIN|   666           0.00116       -0.12500        0.12500       -0.04167
 BRILLOUIN|   667           0.00116       -0.12500        0.12500        0.04167
 BRILLOUIN|   668           0.00116       -0.12500        0.12500        0.12500
 BRILLOUIN|   669           0.00116       -0.12500        0.12500        0.20833
 BRILLOUIN|   670           0.00116       -0.12500        0.12500        0.29167
 BRILLOUIN|   671           0.00116       -0.12500        0.12500        0.37500
 BRILLOUIN|   672           0.00116       -0.12500        0.12500        0.45833
 BRILLOUIN|   673           0.00116       -0.12500        0.20833       -0.45833
 BRILLOUIN|   674           0.00116       -0.12500        0.20833       -0.37500
 BRILLOUIN|   675           0.00116       -0.12500        0.20833       -0.29167
 BRILLOUIN|   676           0.00116       -0.12500        0.20833       -0.20833
 BRILLOUIN|   677           0.00116       -0.12500        0.20833       -0.12500
 BRILLOUIN|   678           0.00116       -0.12500        0.20833       -0.04167
 BRILLOUIN|   679           0.00116       -0.12500        0.20833        0.04167
 BRILLOUIN|   680           0.00116       -0.12500        0.20833        0.12500
 BRILLOUIN|   681           0.00116       -0.12500        0.20833        0.20833
 BRILLOUIN|   682           0.00116       -0.12500        0.20833        0.29167
 BRILLOUIN|   683           0.00116       -0.12500        0.20833        0.37500
 BRILLOUIN|   684           0.00116       -0.12500        0.20833        0.45833
 BRILLOUIN|   685           0.00116       -0.12500        0.29167       -0.45833
 BRILLOUIN|   686           0.00116       -0.12500        0.29167       -0.37500
 BRILLOUIN|   687           0.00116       -0.12500        0.29167       -0.29167
 BRILLOUIN|   688           0.00116       -0.12500        0.29167       -0.20833
 BRILLOUIN|   689           0.00116       -0.12500        0.29167       -0.12500
 BRILLOUIN|   690           0.00116       -0.12500        0.29167       -0.04167
 BRILLOUIN|   691           0.00116       -0.12500        0.29167        0.04167
 BRILLOUIN|   692           0.00116       -0.12500        0.29167        0.12500
 BRILLOUIN|   693           0.00116       -0.12500        0.29167        0.20833
 BRILLOUIN|   694           0.00116       -0.12500        0.29167        0.29167
 BRILLOUIN|   695           0.00116       -0.12500        0.29167        0.37500
 BRILLOUIN|   696           0.00116       -0.12500        0.29167        0.45833
 BRILLOUIN|   697           0.00116       -0.12500        0.37500       -0.45833
 BRILLOUIN|   698           0.00116       -0.12500        0.37500       -0.37500
 BRILLOUIN|   699           0.00116       -0.12500        0.37500       -0.29167
 BRILLOUIN|   700           0.00116       -0.12500        0.37500       -0.20833
 BRILLOUIN|   701           0.00116       -0.12500        0.37500       -0.12500
 BRILLOUIN|   702           0.00116       -0.12500        0.37500       -0.04167
 BRILLOUIN|   703           0.00116       -0.12500        0.37500        0.04167
 BRILLOUIN|   704           0.00116       -0.12500        0.37500        0.12500
 BRILLOUIN|   705           0.00116       -0.12500        0.37500        0.20833
 BRILLOUIN|   706           0.00116       -0.12500        0.37500        0.29167
 BRILLOUIN|   707           0.00116       -0.12500        0.37500        0.37500
 BRILLOUIN|   708           0.00116       -0.12500        0.37500        0.45833
 BRILLOUIN|   709           0.00116       -0.12500        0.45833       -0.45833
 BRILLOUIN|   710           0.00116       -0.12500        0.45833       -0.37500
 BRILLOUIN|   711           0.00116       -0.12500        0.45833       -0.29167
 BRILLOUIN|   712           0.00116       -0.12500        0.45833       -0.20833
 BRILLOUIN|   713           0.00116       -0.12500        0.45833       -0.12500
 BRILLOUIN|   714           0.00116       -0.12500        0.45833       -0.04167
 BRILLOUIN|   715           0.00116       -0.12500        0.45833        0.04167
 BRILLOUIN|   716           0.00116       -0.12500        0.45833        0.12500
 BRILLOUIN|   717           0.00116       -0.12500        0.45833        0.20833
 BRILLOUIN|   718           0.00116       -0.12500        0.45833        0.29167
 BRILLOUIN|   719           0.00116       -0.12500        0.45833        0.37500
 BRILLOUIN|   720           0.00116       -0.12500        0.45833        0.45833
 BRILLOUIN|   721           0.00116       -0.04167       -0.45833       -0.45833
 BRILLOUIN|   722           0.00116       -0.04167       -0.45833       -0.37500
 BRILLOUIN|   723           0.00116       -0.04167       -0.45833       -0.29167
 BRILLOUIN|   724           0.00116       -0.04167       -0.45833       -0.20833
 BRILLOUIN|   725           0.00116       -0.04167       -0.45833       -0.12500
 BRILLOUIN|   726           0.00116       -0.04167       -0.45833       -0.04167
 BRILLOUIN|   727           0.00116       -0.04167       -0.45833        0.04167
 BRILLOUIN|   728           0.00116       -0.04167       -0.45833        0.12500
 BRILLOUIN|   729           0.00116       -0.04167       -0.45833        0.20833
 BRILLOUIN|   730           0.00116       -0.04167       -0.45833        0.29167
 BRILLOUIN|   731           0.00116       -0.04167       -0.45833        0.37500
 BRILLOUIN|   732           0.00116       -0.04167       -0.45833        0.45833
 BRILLOUIN|   733           0.00116       -0.04167       -0.37500       -0.45833
 BRILLOUIN|   734           0.00116       -0.04167       -0.37500       -0.37500
 BRILLOUIN|   735           0.00116       -0.04167       -0.37500       -0.29167
 BRILLOUIN|   736           0.00116       -0.04167       -0.37500       -0.20833
 BRILLOUIN|   737           0.00116       -0.04167       -0.37500       -0.12500
 BRILLOUIN|   738           0.00116       -0.04167       -0.37500       -0.04167
 BRILLOUIN|   739           0.00116       -0.04167       -0.37500        0.04167
 BRILLOUIN|   740           0.00116       -0.04167       -0.37500        0.12500
 BRILLOUIN|   741           0.00116       -0.04167       -0.37500        0.20833
 BRILLOUIN|   742           0.00116       -0.04167       -0.37500        0.29167
 BRILLOUIN|   743           0.00116       -0.04167       -0.37500        0.37500
 BRILLOUIN|   744           0.00116       -0.04167       -0.37500        0.45833
 BRILLOUIN|   745           0.00116       -0.04167       -0.29167       -0.45833
 BRILLOUIN|   746           0.00116       -0.04167       -0.29167       -0.37500
 BRILLOUIN|   747           0.00116       -0.04167       -0.29167       -0.29167
 BRILLOUIN|   748           0.00116       -0.04167       -0.29167       -0.20833
 BRILLOUIN|   749           0.00116       -0.04167       -0.29167       -0.12500
 BRILLOUIN|   750           0.00116       -0.04167       -0.29167       -0.04167
 BRILLOUIN|   751           0.00116       -0.04167       -0.29167        0.04167
 BRILLOUIN|   752           0.00116       -0.04167       -0.29167        0.12500
 BRILLOUIN|   753           0.00116       -0.04167       -0.29167        0.20833
 BRILLOUIN|   754           0.00116       -0.04167       -0.29167        0.29167
 BRILLOUIN|   755           0.00116       -0.04167       -0.29167        0.37500
 BRILLOUIN|   756           0.00116       -0.04167       -0.29167        0.45833
 BRILLOUIN|   757           0.00116       -0.04167       -0.20833       -0.45833
 BRILLOUIN|   758           0.00116       -0.04167       -0.20833       -0.37500
 BRILLOUIN|   759           0.00116       -0.04167       -0.20833       -0.29167
 BRILLOUIN|   760           0.00116       -0.04167       -0.20833       -0.20833
 BRILLOUIN|   761           0.00116       -0.04167       -0.20833       -0.12500
 BRILLOUIN|   762           0.00116       -0.04167       -0.20833       -0.04167
 BRILLOUIN|   763           0.00116       -0.04167       -0.20833        0.04167
 BRILLOUIN|   764           0.00116       -0.04167       -0.20833        0.12500
 BRILLOUIN|   765           0.00116       -0.04167       -0.20833        0.20833
 BRILLOUIN|   766           0.00116       -0.04167       -0.20833        0.29167
 BRILLOUIN|   767           0.00116       -0.04167       -0.20833        0.37500
 BRILLOUIN|   768           0.00116       -0.04167       -0.20833        0.45833
 BRILLOUIN|   769           0.00116       -0.04167       -0.12500       -0.45833
 BRILLOUIN|   770           0.00116       -0.04167       -0.12500       -0.37500
 BRILLOUIN|   771           0.00116       -0.04167       -0.12500       -0.29167
 BRILLOUIN|   772           0.00116       -0.04167       -0.12500       -0.20833
 BRILLOUIN|   773           0.00116       -0.04167       -0.12500       -0.12500
 BRILLOUIN|   774           0.00116       -0.04167       -0.12500       -0.04167
 BRILLOUIN|   775           0.00116       -0.04167       -0.12500        0.04167
 BRILLOUIN|   776           0.00116       -0.04167       -0.12500        0.12500
 BRILLOUIN|   777           0.00116       -0.04167       -0.12500        0.20833
 BRILLOUIN|   778           0.00116       -0.04167       -0.12500        0.29167
 BRILLOUIN|   779           0.00116       -0.04167       -0.12500        0.37500
 BRILLOUIN|   780           0.00116       -0.04167       -0.12500        0.45833
 BRILLOUIN|   781           0.00116       -0.04167       -0.04167       -0.45833
 BRILLOUIN|   782           0.00116       -0.04167       -0.04167       -0.37500
 BRILLOUIN|   783           0.00116       -0.04167       -0.04167       -0.29167
 BRILLOUIN|   784           0.00116       -0.04167       -0.04167       -0.20833
 BRILLOUIN|   785           0.00116       -0.04167       -0.04167       -0.12500
 BRILLOUIN|   786           0.00116       -0.04167       -0.04167       -0.04167
 BRILLOUIN|   787           0.00116       -0.04167       -0.04167        0.04167
 BRILLOUIN|   788           0.00116       -0.04167       -0.04167        0.12500
 BRILLOUIN|   789           0.00116       -0.04167       -0.04167        0.20833
 BRILLOUIN|   790           0.00116       -0.04167       -0.04167        0.29167
 BRILLOUIN|   791           0.00116       -0.04167       -0.04167        0.37500
 BRILLOUIN|   792           0.00116       -0.04167       -0.04167        0.45833
 BRILLOUIN|   793           0.00116       -0.04167        0.04167       -0.45833
 BRILLOUIN|   794           0.00116       -0.04167        0.04167       -0.37500
 BRILLOUIN|   795           0.00116       -0.04167        0.04167       -0.29167
 BRILLOUIN|   796           0.00116       -0.04167        0.04167       -0.20833
 BRILLOUIN|   797           0.00116       -0.04167        0.04167       -0.12500
 BRILLOUIN|   798           0.00116       -0.04167        0.04167       -0.04167
 BRILLOUIN|   799           0.00116       -0.04167        0.04167        0.04167
 BRILLOUIN|   800           0.00116       -0.04167        0.04167        0.12500
 BRILLOUIN|   801           0.00116       -0.04167        0.04167        0.20833
 BRILLOUIN|   802           0.00116       -0.04167        0.04167        0.29167
 BRILLOUIN|   803           0.00116       -0.04167        0.04167        0.37500
 BRILLOUIN|   804           0.00116       -0.04167        0.04167        0.45833
 BRILLOUIN|   805           0.00116       -0.04167        0.12500       -0.45833
 BRILLOUIN|   806           0.00116       -0.04167        0.12500       -0.37500
 BRILLOUIN|   807           0.00116       -0.04167        0.12500       -0.29167
 BRILLOUIN|   808           0.00116       -0.04167        0.12500       -0.20833
 BRILLOUIN|   809           0.00116       -0.04167        0.12500       -0.12500
 BRILLOUIN|   810           0.00116       -0.04167        0.12500       -0.04167
 BRILLOUIN|   811           0.00116       -0.04167        0.12500        0.04167
 BRILLOUIN|   812           0.00116       -0.04167        0.12500        0.12500
 BRILLOUIN|   813           0.00116       -0.04167        0.12500        0.20833
 BRILLOUIN|   814           0.00116       -0.04167        0.12500        0.29167
 BRILLOUIN|   815           0.00116       -0.04167        0.12500        0.37500
 BRILLOUIN|   816           0.00116       -0.04167        0.12500        0.45833
 BRILLOUIN|   817           0.00116       -0.04167        0.20833       -0.45833
 BRILLOUIN|   818           0.00116       -0.04167        0.20833       -0.37500
 BRILLOUIN|   819           0.00116       -0.04167        0.20833       -0.29167
 BRILLOUIN|   820           0.00116       -0.04167        0.20833       -0.20833
 BRILLOUIN|   821           0.00116       -0.04167        0.20833       -0.12500
 BRILLOUIN|   822           0.00116       -0.04167        0.20833       -0.04167
 BRILLOUIN|   823           0.00116       -0.04167        0.20833        0.04167
 BRILLOUIN|   824           0.00116       -0.04167        0.20833        0.12500
 BRILLOUIN|   825           0.00116       -0.04167        0.20833        0.20833
 BRILLOUIN|   826           0.00116       -0.04167        0.20833        0.29167
 BRILLOUIN|   827           0.00116       -0.04167        0.20833        0.37500
 BRILLOUIN|   828           0.00116       -0.04167        0.20833        0.45833
 BRILLOUIN|   829           0.00116       -0.04167        0.29167       -0.45833
 BRILLOUIN|   830           0.00116       -0.04167        0.29167       -0.37500
 BRILLOUIN|   831           0.00116       -0.04167        0.29167       -0.29167
 BRILLOUIN|   832           0.00116       -0.04167        0.29167       -0.20833
 BRILLOUIN|   833           0.00116       -0.04167        0.29167       -0.12500
 BRILLOUIN|   834           0.00116       -0.04167        0.29167       -0.04167
 BRILLOUIN|   835           0.00116       -0.04167        0.29167        0.04167
 BRILLOUIN|   836           0.00116       -0.04167        0.29167        0.12500
 BRILLOUIN|   837           0.00116       -0.04167        0.29167        0.20833
[...]

 -------------------------------------------------------------------------------
 -                                                                             -
 -                                DBM STATISTICS                               -
 -                                                                             -
 -------------------------------------------------------------------------------
    M  x    N  x    K                                          COUNT     PERCENT
 -------------------------------------------------------------------------------

 -------------------------------------------------------------------------------
 -                                                                             -
 -                                GRID STATISTICS                              -
 -                                                                             -
 -------------------------------------------------------------------------------
 LP    KERNEL             BACKEND                              COUNT     PERCENT
 6     collocate general  CPU                                 713804      50.68%
 6     integrate general  CPU                                 694512      49.31%
 0     collocate general  CPU                                      4       0.00%
 0     integrate general  CPU                                      2       0.00%
 -------------------------------------------------------------------------------

 MEMORY| Estimated peak process memory [MiB]                                1495

 -------------------------------------------------------------------------------
 ----                             MULTIGRID INFO                            ----
 -------------------------------------------------------------------------------
 count for grid        1:          19340          cutoff [a.u.]          500.00
 count for grid        2:          61814          cutoff [a.u.]          166.67
 count for grid        3:          38676          cutoff [a.u.]           55.56
 count for grid        4:          27350          cutoff [a.u.]           18.52
 total gridlevel count  :         147180

 -------------------------------------------------------------------------------
 -                                                                             -
 -                         MESSAGE PASSING PERFORMANCE                         -
 -                                                                             -
 -------------------------------------------------------------------------------

 ROUTINE             CALLS      AVE VOLUME [Bytes]
 MP_Group                5
 MP_Bcast          1120865                   4063.
 MP_Allreduce       249217                     85.
 MP_Sync                 4
 MP_Alltoall           653                3092809.
 MP_SendRecv          1050                 177361.
 MP_ISendRecv         1015                 174866.
 MP_Wait            770839
 MP_comm_split           3
 MP_ISend           816480                   1068.
 MP_IRecv          1306368                    670.
 -------------------------------------------------------------------------------


 -------------------------------------------------------------------------------
 -                                                                             -
 -                           R E F E R E N C E S                               -
 -                                                                             -
 -------------------------------------------------------------------------------
 
 CP2K version 2025.1 (Development Version), the CP2K developers group (2025).
 CP2K is freely available from https://www.cp2k.org/ .
 
 T. D. Kuehne, M. Iannuzzi, M. Del Ben, V. V. Rybkin, P. Seewald, F. Stein, T. 
 Laino, R. Z. Khaliullin, O. Schuett, F. Schiffmann, D. Golze, J. Wilhelm, S. 
 Chulkov, M. H. Bani-Hashemian, V. Weber, U. Borstnik, M. Taillefumier, A. S. 
 Jakobovits, A. Lazzaro, H. Pabst, T. Mueller, R. Schade, M. Guidon, S. 
 Andermatt, N. Holmberg, G. K. Schenter, A. Hehn, A. Bussy, F. Belleflamme, G. 
 Tabacchi, A. Gloess, M. Lass, I. Bethune, C. J. Mundy, C. Plessl, M. Watkins, 
 J. VandeVondele, M. Krack, J. Hutter.
 J. Chem. Phys. 152, 194103 (2020).
 CP2K: An electronic structure and molecular dynamics software package - 
 Quickstep: Efficient and accurate electronic structure calculations.
 https://doi.org/10.1063/5.0007045

 O. Schuett, P. Messmer, J. Hutter, J. VandeVondele.
 Electronic Structure Calculations on Graphics Processing Units, 173-190 (2016).
 GPU-Accelerated Sparse Matrix-Matrix Multiplication for Linear Scaling Density 
 Functional Theory.
 https://doi.org/10.1002/9781118670712.ch8

 J. Hutter, M. Iannuzzi, F. Schiffmann, J. VandeVondele.
 WIREs Comput Mol Sci. 4, 15-25 (2014).
 CP2K: atomistic simulations of condensed matter systems.
 https://doi.org/10.1002/wcms.1159

 U. Borstnik, J. VandeVondele, V. Weber, J. Hutter.
 Parallel Comput. 40, 47-58 (2014).
 Sparse matrix multiplication: The distributed block-compressed sparse row 
 library.
 https://doi.org/10.1016/j.parco.2014.03.012

 J. VandeVondele, J. Hutter.
 J. Chem. Phys. 127, 114105 (2007).
 Gaussian basis sets for accurate calculations on molecular systems in gas and 
 condensed phases.
 https://doi.org/10.1063/1.2770708

 J. VandeVondele, M. Krack, F. Mohamed, M. Parrinello, T. Chassaing, J. Hutter.
 Comput. Phys. Commun. 167, 103-128 (2005).
 QUICKSTEP: Fast and accurate density functional calculations using a mixed 
 Gaussian and plane waves approach.
 https://doi.org/10.1016/j.cpc.2004.12.014

 M. Krack.
 Theor. Chem. Acc. 114, 145-152 (2005).
 Pseudopotentials for H to Kr optimized for gradient-corrected 
 exchange-correlation functionals.
 https://doi.org/10.1007/s00214-005-0655-y

 M. Frigo, S. G. Johnson.
 Proc. IEEE 93, 216-231 (2005).
 The design and implementation of FFTW3.
 https://doi.org/10.1109/JPROC.2004.840301

 C. Hartwigsen, S. Goedecker, J. Hutter.
 Phys. Rev. B 58, 3641-3662 (1998).
 Relativistic separable dual-space Gaussian pseudopotentials from H to Rn.
 https://doi.org/10.1103/PhysRevB.58.3641

 G. Lippert, J. Hutter, M. Parrinello.
 Mol. Phys. 92, 477-487 (1997).
 A hybrid Gaussian and plane wave density functional scheme.
 https://doi.org/10.1080/002689797170220

 S. Goedecker, M. Teter, J. Hutter.
 Phys. Rev. B 54, 1703-1710 (1996).
 Separable dual-space Gaussian pseudopotentials.
 https://doi.org/10.1103/PhysRevB.54.1703

 J. P. Perdew, K. Burke, M. Ernzerhof.
 Phys. Rev. Lett. 77, 3865-3868 (1996).
 Generalized gradient approximation made simple.
 https://doi.org/10.1103/PhysRevLett.77.3865


 -------------------------------------------------------------------------------
 -                                                                             -
 -                                T I M I N G                                  -
 -                                                                             -
 -------------------------------------------------------------------------------
 SUBROUTINE                       CALLS  ASD         SELF TIME        TOTAL TIME
                                MAXIMUM       AVERAGE  MAXIMUM  AVERAGE  MAXIMUM
 CP2K                                 1  1.0    0.020    0.027 2062.228 2062.228
 qs_energies                          1  2.0    0.007    0.007 2060.995 2060.998
 mp_alltoall_i22                 500660  8.9 1494.166 1836.445 1494.166 1836.445
 scf_env_do_scf                       1  3.0    0.000    0.000 1830.026 1830.026
 scf_env_do_scf_inner_loop           36  4.0    0.069    0.073 1830.026 1830.026
 qs_scf_new_mos_kp                   36  5.0    0.000    0.000 1779.423 1786.734
 do_general_diag_kp                  36  6.0    0.683    0.863 1779.423 1786.734
 dbcsr_desymmetrize_deep         290814  7.6    4.452    5.833 1095.119 1339.582
 rskp_transform                   71588  7.1  235.002 1262.349  235.002 1262.349
 dbcsr_complete_redistribute     209846  8.4    7.093    8.697  485.477  582.249
 kpoint_density_transform            36  7.0    0.264    0.351  544.009  544.545
 copy_fm_to_dbcsr                 62208  8.0    0.367    0.446  439.816  535.723
 transform_dmat                   31104  8.0   95.965  517.011   95.965  517.011
 qs_energies_properties               1  3.0    0.000    0.000  225.862  225.864
 post_scf_bandstructure               1  4.0    0.000    0.000  225.862  225.864
 rsmat_to_kp                       9380  7.0    0.149    0.180  179.699  179.729
 soc                                  1  5.0    0.001    0.001  113.270  113.270
 H_KS_spinor_kp                       1  6.0    0.031    0.038  111.636  112.696
 create_and_init_bs_env               1  5.0    0.000    0.000   89.486   89.487
 compute_cfm_mo_coeff_kp_and_ei       1  6.0    0.024    0.027   89.483   89.483
 copy_dbcsr_to_fm                147638  7.1    1.481    1.747   73.242   74.056
 cp_cfm_heevd                     13404  7.9    0.018    0.019   44.289   44.424
 cp_cfm_heevd_base                13404  8.9   44.271   44.405   44.271   44.405
 qs_ks_update_qs_env                 36  5.0    0.000    0.000   11.879   43.830
 rebuild_ks_matrix                   36  6.0    0.000    0.000    9.173   41.124
 qs_ks_build_kohn_sham_matrix        36  7.0    0.130    0.132    9.172   41.123
 sum_up_and_integrate                36  8.0    0.000    0.000    7.779   39.652
 integrate_v_rspace                  36  9.0    0.083    0.443    7.777   39.651
 grid_integrate_task_list            36 10.0    7.341   38.934    7.341   38.934
 transfer_rs2pw                     150  8.0    0.002    0.002   28.331   34.874
 transfer_rs2pw_500                  39  8.9    0.073    0.077   28.276   34.817
 mp_sendrecv_dv                    1050 10.0   28.239   34.787   28.239   34.787
 qs_rho_update_rho_low               37  5.0    0.000    0.000   33.056   33.084
 calculate_rho_elec                  37  6.0    0.034    0.079   33.056   33.083
 density_rs2pw                       37  7.0    0.001    0.002   26.779   32.899
 grid_collocate_task_list            37  7.0    6.240   32.512    6.240   32.512
 cp_cfm_geeig_canon                5764  7.0    0.052    0.055   27.333   27.445
 dos_pdos_ldos                        1  5.0    0.018    0.018   23.106   23.110
 SOC_ev                            1876  6.0    0.040    0.043   21.924   21.948
 dbcsr_finalize                  612202  8.7    2.493    2.949   17.416   19.405
 mp_alltoall_d11v               1501980  9.5   17.444   18.710   17.444   18.710
 cp_fm_start_copy_general        186624  7.3    2.996    4.216   18.090   18.466
 hybrid_alltoall_any             290814  8.6    1.186    1.343   11.927   12.763
 mp_cart_sub                     295278  9.1   12.509   12.597   12.509   12.597
 dbcsr_merge_all                 216536 10.4    5.947    6.494   10.041   10.991
 cp_dbcsr_alloc_block_from_nbl    50196  6.8    1.719    8.516    1.899    9.197
 mp_allgather_i                  373248  8.3    8.311    8.965    8.311    8.965
 mp_alltoall_i11v                920352  9.1    8.504    8.787    8.504    8.787
 mp_cart_create                  147644  9.1    7.277    7.570    7.277    7.570
 V_SOC_xyz_from_pseudopotential       1  6.0    0.068    0.072    1.633    5.561
 dbcsr_work_create               507350  8.9    2.887    3.139    4.831    5.450
 mp_sum_iv                         3772  9.0    4.299    5.430    4.299    5.430
 dbcsr_create_new                944060  8.3    3.860    4.339    4.637    5.297
 mp_bcast_iv                     746652  8.3    4.472    5.079    4.472    5.079
 alloc_cfm_double_array_1d            1  7.0    0.006    0.006    4.008    5.069
 create_cfm_double                 1876  8.0    0.040    0.048    4.002    5.063
 cp_cfm_gemm                      26672  8.4    4.408    4.452    4.408    4.452
 dbcsr_iterator_start           1596495  9.1    3.226    3.330    3.679    3.924
 dbcsr_data_new                 5432481  9.8    3.142    3.882    3.142    3.882
 dbcsr_work_destroy_all          507350  9.9    2.328    2.378    3.493    3.556
 dbcsr_dot                       160561  8.0    0.752    1.390    3.262    3.422
 write_kpoints_restart               36  5.0    0.020    0.024    3.386    3.387
 copy_dbcsr_to_fm_bc             147638  8.1    1.431    1.519    3.194    3.326
 tree_to_linear_d                209846 11.4    3.184    3.314    3.184    3.314
 copy_fm_to_dbcsr_bc              62208  9.0    0.797    0.918    2.736    3.153
 kpoint_set_mo_occupation            36  7.0    2.773    2.788    2.927    3.016
 dbcsr_data_release             7610604 10.2    2.756    3.006    2.756    3.006
 dbcsr_copy                      231688  7.2    1.042    1.233    2.160    2.990
 parallel_gemm_cfm                 9380  7.0    0.010    0.010    2.869    2.917
 parallel_gemm_cfm_gemm            9380  8.0    0.010    0.010    2.859    2.908
 mp_sum_d                        161267  9.0    2.433    2.844    2.433    2.844
 qs_energies_init_hamiltonians        1  3.0    0.000    0.000    2.760    2.760
 evaluate_core_matrix_traces         36  6.0    0.000    0.000    2.706    2.706
 calculate_ptrace_kp                 72  7.0    0.120    0.124    2.706    2.706
 dbcsr_destroy                   776810  8.3    1.244    1.326    2.372    2.548
 dbcsr_iterator_stop            1596495  9.1    1.994    2.035    2.345    2.406
 build_core_hamiltonian_matrix        1  4.0    0.008    0.008    0.533    2.232
 self_consistency_check              36  5.0    0.114    0.118    2.062    2.175
 qs_env_update_s_mstruct              1  4.0    0.000    0.000    1.833    2.159
 calculate_rho_core                   1  5.0    0.001    0.003    1.713    2.137
 cp_sm_mix                        80280  6.0    0.257    0.599    1.813    1.962
 init_scf_run                         1  3.0    0.000    0.000    1.610    1.767
 scf_env_initial_rho_setup            1  4.0    0.000    0.000    1.610    1.767
 quick_finalize                  290814  9.6    0.745    0.995    1.223    1.695
 build_core_ppnl                      2  6.0    0.435    1.656    0.435    1.656
 mp_max_d                         80282  7.0    1.363    1.592    1.363    1.592
 mp_bcast_im                     373248  8.3    1.388    1.561    1.388    1.561
 cp_fm_finish_copy_general        77760  7.8    1.232    1.307    1.344    1.500
 dbcsr_copy_into_existing         64438  9.9    0.490    1.095    0.849    1.465
 kpoint_density_matrices             36  7.0    0.062    0.063    1.217    1.328
 cp_fm_write_unformatted           4460  6.0    0.892    1.227    0.908    1.294
 dbcsr_set                       536027  7.9    0.487    0.534    0.742    1.275
 parallel_gemm_fm                 15552  8.0    0.014    0.014    1.130    1.239
 mp_comm_free                    444829  9.1    1.040    1.227    1.040    1.227
 parallel_gemm_fm_gemm            15552  9.0    0.014    0.015    1.116    1.225
 add_to_DOS_PDOS                   3752  6.5    1.197    1.213    1.197    1.213
 cp_fm_gemm                       15552 10.0    1.102    1.211    1.102    1.211
 dbcsr_add_d                       6690  7.0    0.007    0.008    0.472    1.174
 dbcsr_add_anytype                 6690  8.0    0.024    0.091    0.465    1.167
 mp_waitall_1                    770839  8.3    0.535    1.156    0.535    1.156
 dbcsr_reserve_blocks            112404  9.6    0.431    0.970    0.499    1.075
 create_qs_kind_set                   1  2.0    0.000    0.000    1.029    1.029
 read_qs_kind                         1  3.0    0.625    0.632    1.029    1.029
 fft_wrap_pw1pw2                    653 10.0    0.005    0.006    0.873    0.917
 mixing_allocate                      1  3.0    0.013    0.013    0.202    0.875
 fft_wrap_pw1pw2_500                434 11.3    0.051    0.052    0.802    0.845
 calculate_first_density_matrix       1  5.0    0.001    0.002    0.685    0.842
 calculate_atomic_block_dm            1  6.0    0.001    0.001    0.680    0.838
 add_cfm_submat                   15008  7.0    0.127    0.133    0.804    0.819
 fft3d_ps                           653 12.0    0.239    0.274    0.726    0.775
 compute_proj_mo_on_kind           1876  6.0    0.042    0.045    0.711    0.773
 dbcsr_zero                      536027  8.9    0.255    0.741    0.255    0.741
 dbcsr_sort_indices              613064 11.1    0.354    0.641    0.354    0.641
 dbcsr_iterator_seek            1596495 10.1    0.453    0.610    0.453    0.610
 dbcsr_make_index_exist          944060  9.3    0.481    0.597    0.481    0.597
 qs_vxc_create                       36  8.0    0.001    0.001    0.559    0.560
 xc_vxc_pw_create                    36  9.0    0.021    0.021    0.559    0.560
 dbcsr_reserve_all_blocks         62208 10.0    0.090    0.115    0.433    0.532
 mp_alltoall_z22v                   653 14.0    0.433    0.493    0.433    0.493
 build_overlap_matrix_low             1  5.0    0.024    0.065    0.116    0.489
 build_kinetic_matrix_low             1  5.0    0.024    0.065    0.115    0.488
 parser_read_line                136811  4.0    0.046    0.048    0.474    0.477
 merge_index                     216536 11.4    0.424    0.467    0.424    0.467
 calculate_ecore_overlap              1  4.0    0.000    0.000    0.368    0.466
 mp_isend_dv                     186624  8.3    0.414    0.446    0.414    0.446
 gspace_mixing                       35  5.0    0.018    0.018    0.438    0.438
 qs_env_rebuild_rho                   1  5.0    0.000    0.000    0.110    0.436
 qs_rho_rebuild                       1  6.0    0.006    0.007    0.110    0.436
 parser_read_line_low               155  5.2    0.049    0.211    0.428    0.432
 cp_fm_to_fm_submat               30016  8.0    0.422    0.430    0.422    0.430
 qs_scf_ensure_work_matrices          1  3.0    0.000    0.000    0.337    0.415
 broadcast_input_information        155  6.2    0.103    0.112    0.379    0.408
 potential_pw2rs                     36 10.0    0.002    0.002    0.353    0.390
 dbcsr_data_copy_aa2             209846 11.2    0.184    0.378    0.184    0.378
 mp_irecv_iv                     746496  8.3    0.047    0.374    0.047    0.374
 xc_pw_derive                       216 11.0    0.001    0.001    0.363    0.370
 broyden_mixing                      35  6.0    0.346    0.352    0.358    0.361
 dbcsr_switch_data_area          290814 10.6    0.264    0.268    0.342    0.350
 xc_rho_set_and_dset_create          36 10.0    0.013    0.014    0.288    0.314
 yz_to_x                            293 12.8    0.017    0.018    0.260    0.309
 cp_fm_cleanup_copy_general      132192  7.1    0.187    0.191    0.284    0.288
 build_core_ppl                       1  5.0    0.051    0.279    0.051    0.279
 dbcsr_scale_anytype               6691  9.0    0.048    0.065    0.257    0.273
 mp_isend_iv                     419904  8.3    0.069    0.256    0.069    0.256
 xc_pw_divergence                    36 10.0    0.000    0.000    0.245    0.253
 mp_sum_dm3                          36  8.0    0.154    0.247    0.154    0.247
 x_to_yz                            360 13.2    0.032    0.036    0.222    0.232
 cp_cfm_scale_and_add_fm          45568  7.7    0.219    0.222    0.219    0.222
 dbcsr_get_data_size_used        507350  9.9    0.166    0.215    0.166    0.215
 -------------------------------------------------------------------------------

 The number of warnings for this run is : 1
 
 -------------------------------------------------------------------------------
  **** **** ******  **  PROGRAM ENDED AT                 2025-08-03 21:37:13.869
 ***** ** ***  *** **   PROGRAM RAN ON                              i04r11c01s10
 **    ****   ******    PROGRAM RAN BY                                   di38fab
 ***** **    ** ** **   PROGRAM PROCESS ID                                267363
  **** **  *******  **  PROGRAM STOPPED IN /hppfs/scratch/04/di38fab/09_GTH/Delt
                                           a_Set/Tl/TZVP-MOLOPT-PBE-GTH/12x12x12
