 DBCSR| CPU Multiplication driver                                           BLAS (U)
 DBCSR| Multrec recursion limit                                              512 (U)
 DBCSR| Multiplication stack size                                           1000 (D)
 DBCSR| Maximum elements for images                                    UNLIMITED (U)
 DBCSR| Multiplicative factor virtual images                                   1 (U)
 DBCSR| Use multiplication densification                                       T (D)
 DBCSR| Multiplication size stacks                                             3 (U)
 DBCSR| Use memory pool for CPU allocation                                     F (U)
 DBCSR| Number of 3D layers                                               SINGLE (U)
 DBCSR| Use MPI memory allocation                                              F (U)
 DBCSR| Use RMA algorithm                                                      F (U)
 DBCSR| Use Communication thread                                               T (U)
 DBCSR| Communication thread load                                             45 (D)
 DBCSR| MPI: My process id                                                     0
 DBCSR| MPI: Number of processes                                               8
 DBCSR| OMP: Current number of threads                                        12
 DBCSR| OMP: Max number of threads                                            12
 DBCSR| Split modifier for TAS multiplication algorithm                  1.0E+00 (U)


  **** **** ******  **  PROGRAM STARTED AT               2025-08-04 21:34:16.956
 ***** ** ***  *** **   PROGRAM STARTED ON                          i01r11c03s07
 **    ****   ******    PROGRAM STARTED BY                               di38fab
 ***** **    ** ** **   PROGRAM PROCESS ID                               3466400
  **** **  *******  **  PROGRAM STARTED IN /hppfs/scratch/04/di38fab/09_GTH/Delt
                                           a_Set/In/aug-DZVP-MOLOPT-GTH-tier-2/8
                                           x8x8

 CP2K| version string:                 CP2K version 2025.1 (Development Version)
 CP2K| source code revision number:                                  git:3130539
 CP2K| cp2kflags: omp libint fftw3 libxc parallel scalapack max_contr=4         
 CP2K| is freely available from                            https://www.cp2k.org/
 CP2K| Program compiled at                         Tue Jun  3 16:14:32 CEST 2025
 CP2K| Program compiled on                                               login01
 CP2K| Program compiled for                                        Supermuc-foss
 CP2K| Data directory path                  /hppfs/work/pn36zo/di38fab/cp2k/data
 CP2K| Input file name                                                    GW.inp

 GLOBAL| Force Environment number                                              1
 GLOBAL| Basis set file name            /hppfs/scratch/04/di38fab/09_GTH/BASIS_A
 GLOBAL| Potential file name            /hppfs/work/pn36zo/di38fab/cp2k/data/GTH
 GLOBAL| MM Potential file name                                     MM_POTENTIAL
 GLOBAL| Coordinate file name                                             In.cif
 GLOBAL| Method name                                                        CP2K
 GLOBAL| Project name                                                       WSe2
 GLOBAL| Run type                                                         ENERGY
 GLOBAL| FFT library                                                       FFTW3
 GLOBAL| Diagonalization library                                       ScaLAPACK
 GLOBAL| Cholesky decomposition library                                ScaLAPACK
 GLOBAL| DGEMM library                                                      BLAS
 GLOBAL| Orthonormality check for eigenvectors                          DISABLED
 GLOBAL| Matrix multiplication library                                 ScaLAPACK
 GLOBAL| All-to-all communication in single precision                          F
 GLOBAL| FFTs using library dependent lengths                                  F
 GLOBAL| Grid backend                                                       AUTO
 GLOBAL| Global print level                                               MEDIUM
 GLOBAL| MPI I/O enabled                                                       T
 GLOBAL| Total number of message passing processes                             8
 GLOBAL| Number of threads for this process                                   12
 GLOBAL| This output is from process                                           0
 GLOBAL| OpenMP stack size per thread (OMP_STACKSIZE)                    default
 GLOBAL| CPU model name             Intel(R) Xeon(R) Platinum 8174 CPU @ 3.10GHz

 MEMORY| system memory details [Kb]
 MEMORY|                        rank 0           min           max       average
 MEMORY| MemTotal             98436660      98436660      98436660      98436660
 MEMORY| MemFree              84661728      84661728      85736404      85199066
 MEMORY| Buffers                     0             0             0             0
 MEMORY| Cached                2369988       2369136       2369988       2369562
 MEMORY| Slab                  1317428       1167224       1317428       1242326
 MEMORY| SReclaimable           297296        272268        297296        284782
 MEMORY| MemLikelyFree        87329012      87329012      88377808      87853410


 *** Fundamental physical constants (SI units) ***

 *** Literature: B. J. Mohr and B. N. Taylor,
 ***             CODATA recommended values of the fundamental physical
 ***             constants: 2006, Web Version 5.1
 ***             http://physics.nist.gov/constants

 Speed of light in vacuum [m/s]                             2.99792458000000E+08
 Magnetic constant or permeability of vacuum [N/A**2]       1.25663706143592E-06
 Electric constant or permittivity of vacuum [F/m]          8.85418781762039E-12
 Planck constant (h) [J*s]                                  6.62606896000000E-34
 Planck constant (h-bar) [J*s]                              1.05457162825177E-34
 Elementary charge [C]                                      1.60217648700000E-19
 Electron mass [kg]                                         9.10938215000000E-31
 Electron g factor [ ]                                     -2.00231930436220E+00
 Proton mass [kg]                                           1.67262163700000E-27
 Fine-structure constant                                    7.29735253760000E-03
 Rydberg constant [1/m]                                     1.09737315685270E+07
 Avogadro constant [1/mol]                                  6.02214179000000E+23
 Boltzmann constant [J/K]                                   1.38065040000000E-23
 Atomic mass unit [kg]                                      1.66053878200000E-27
 Bohr radius [m]                                            5.29177208590000E-11

 *** Conversion factors ***

 [u] -> [a.u.]                                              1.82288848426455E+03
 [Angstrom] -> [Bohr] = [a.u.]                              1.88972613288564E+00
 [a.u.] = [Bohr] -> [Angstrom]                              5.29177208590000E-01
 [a.u.] -> [s]                                              2.41888432650478E-17
 [a.u.] -> [fs]                                             2.41888432650478E-02
 [a.u.] -> [J]                                              4.35974393937059E-18
 [a.u.] -> [N]                                              8.23872205491840E-08
 [a.u.] -> [K]                                              3.15774647902944E+05
 [a.u.] -> [kJ/mol]                                         2.62549961709828E+03
 [a.u.] -> [kcal/mol]                                       6.27509468713739E+02
 [a.u.] -> [Pa]                                             2.94210107994716E+13
 [a.u.] -> [bar]                                            2.94210107994716E+08
 [a.u.] -> [atm]                                            2.90362800883016E+08
 [a.u.] -> [eV]                                             2.72113838565563E+01
 [a.u.] -> [Hz]                                             6.57968392072181E+15
 [a.u.] -> [1/cm] (wave numbers)                            2.19474631370540E+05
 [a.u./Bohr**2] -> [1/cm]                                   5.14048714338585E+03
 

 CELL_TOP| Volume [angstrom^3]:                                        55.078165
 CELL_TOP| Vector a [angstrom     3.298     0.000     0.000   |a| =     3.298410
 CELL_TOP| Vector b [angstrom     0.000     3.298     0.000   |b| =     3.298410
 CELL_TOP| Vector c [angstrom     0.000     0.000     5.063   |c| =     5.062560
 CELL_TOP| Angle (b,c), alpha [degree]:                                90.000000
 CELL_TOP| Angle (a,c), beta  [degree]:                                90.000000
 CELL_TOP| Angle (a,b), gamma [degree]:                                90.000000
 CELL_TOP| Numerically orthorhombic:                                         YES
 CELL_TOP| Periodicity                                                       XYZ

 CELL_CIF| Volume [angstrom^3]:                                        55.078165
 CELL_CIF| Vector a [angstrom     3.298     0.000     0.000   |a| =     3.298410
 CELL_CIF| Vector b [angstrom     0.000     3.298     0.000   |b| =     3.298410
 CELL_CIF| Vector c [angstrom     0.000     0.000     5.063   |c| =     5.062560
 CELL_CIF| Angle (b,c), alpha [degree]:                                90.000000
 CELL_CIF| Angle (a,c), beta  [degree]:                                90.000000
 CELL_CIF| Angle (a,b), gamma [degree]:                                90.000000
 CELL_CIF| Numerically orthorhombic:                                         YES
 CELL_CIF| Periodicity                                                       XYZ

 GENERATE|  Preliminary Number of Bonds generated:                             0
 GENERATE|  Achieved consistency in connectivity generation.

 CELL| Volume [angstrom^3]:                                            55.078165
 CELL| Vector a [angstrom]:       3.298     0.000     0.000   |a| =     3.298410
 CELL| Vector b [angstrom]:       0.000     3.298     0.000   |b| =     3.298410
 CELL| Vector c [angstrom]:       0.000     0.000     5.063   |c| =     5.062560
 CELL| Angle (b,c), alpha [degree]:                                    90.000000
 CELL| Angle (a,c), beta  [degree]:                                    90.000000
 CELL| Angle (a,b), gamma [degree]:                                    90.000000
 CELL| Numerically orthorhombic:                                             YES
 CELL| Periodicity                                                           XYZ

 CELL_REF| Volume [angstrom^3]:                                        55.078165
 CELL_REF| Vector a [angstrom     3.298     0.000     0.000   |a| =     3.298410
 CELL_REF| Vector b [angstrom     0.000     3.298     0.000   |b| =     3.298410
 CELL_REF| Vector c [angstrom     0.000     0.000     5.063   |c| =     5.062560
 CELL_REF| Angle (b,c), alpha [degree]:                                90.000000
 CELL_REF| Angle (a,c), beta  [degree]:                                90.000000
 CELL_REF| Angle (a,b), gamma [degree]:                                90.000000
 CELL_REF| Numerically orthorhombic:                                         YES
 CELL_REF| Periodicity                                                       XYZ

 *** WARNING in cryssym.F:180 :: Symmetry library SPGLIB not available ***


 *******************************************************************************
                                    Kpoints
 *******************************************************************************
 BRILLOUIN| K-point scheme                                        Monkhorst-Pack
 BRILLOUIN| K-Point grid                                             8    8    8
 BRILLOUIN| Accuracy in Symmetry determination                      0.100000E-05
 BRILLOUIN| K-Point point group symmetrization                               OFF
 BRILLOUIN| Wavefunction type                                            COMPLEX
 BRILLOUIN| List of Kpoints [2 Pi/Bohr]                                      256
 BRILLOUIN| Number           Weight            X              Y              Z
 BRILLOUIN|     1           0.00391       -0.43750       -0.43750       -0.43750
 BRILLOUIN|     2           0.00391       -0.43750       -0.43750       -0.31250
 BRILLOUIN|     3           0.00391       -0.43750       -0.43750       -0.18750
 BRILLOUIN|     4           0.00391       -0.43750       -0.43750       -0.06250
 BRILLOUIN|     5           0.00391       -0.43750       -0.43750        0.06250
 BRILLOUIN|     6           0.00391       -0.43750       -0.43750        0.18750
 BRILLOUIN|     7           0.00391       -0.43750       -0.43750        0.31250
 BRILLOUIN|     8           0.00391       -0.43750       -0.43750        0.43750
 BRILLOUIN|     9           0.00391       -0.43750       -0.31250       -0.43750
 BRILLOUIN|    10           0.00391       -0.43750       -0.31250       -0.31250
 BRILLOUIN|    11           0.00391       -0.43750       -0.31250       -0.18750
 BRILLOUIN|    12           0.00391       -0.43750       -0.31250       -0.06250
 BRILLOUIN|    13           0.00391       -0.43750       -0.31250        0.06250
 BRILLOUIN|    14           0.00391       -0.43750       -0.31250        0.18750
 BRILLOUIN|    15           0.00391       -0.43750       -0.31250        0.31250
 BRILLOUIN|    16           0.00391       -0.43750       -0.31250        0.43750
 BRILLOUIN|    17           0.00391       -0.43750       -0.18750       -0.43750
 BRILLOUIN|    18           0.00391       -0.43750       -0.18750       -0.31250
 BRILLOUIN|    19           0.00391       -0.43750       -0.18750       -0.18750
 BRILLOUIN|    20           0.00391       -0.43750       -0.18750       -0.06250
 BRILLOUIN|    21           0.00391       -0.43750       -0.18750        0.06250
 BRILLOUIN|    22           0.00391       -0.43750       -0.18750        0.18750
 BRILLOUIN|    23           0.00391       -0.43750       -0.18750        0.31250
 BRILLOUIN|    24           0.00391       -0.43750       -0.18750        0.43750
 BRILLOUIN|    25           0.00391       -0.43750       -0.06250       -0.43750
 BRILLOUIN|    26           0.00391       -0.43750       -0.06250       -0.31250
 BRILLOUIN|    27           0.00391       -0.43750       -0.06250       -0.18750
 BRILLOUIN|    28           0.00391       -0.43750       -0.06250       -0.06250
 BRILLOUIN|    29           0.00391       -0.43750       -0.06250        0.06250
 BRILLOUIN|    30           0.00391       -0.43750       -0.06250        0.18750
 BRILLOUIN|    31           0.00391       -0.43750       -0.06250        0.31250
 BRILLOUIN|    32           0.00391       -0.43750       -0.06250        0.43750
 BRILLOUIN|    33           0.00391       -0.43750        0.06250       -0.43750
 BRILLOUIN|    34           0.00391       -0.43750        0.06250       -0.31250
 BRILLOUIN|    35           0.00391       -0.43750        0.06250       -0.18750
 BRILLOUIN|    36           0.00391       -0.43750        0.06250       -0.06250
 BRILLOUIN|    37           0.00391       -0.43750        0.06250        0.06250
 BRILLOUIN|    38           0.00391       -0.43750        0.06250        0.18750
 BRILLOUIN|    39           0.00391       -0.43750        0.06250        0.31250
 BRILLOUIN|    40           0.00391       -0.43750        0.06250        0.43750
 BRILLOUIN|    41           0.00391       -0.43750        0.18750       -0.43750
 BRILLOUIN|    42           0.00391       -0.43750        0.18750       -0.31250
 BRILLOUIN|    43           0.00391       -0.43750        0.18750       -0.18750
 BRILLOUIN|    44           0.00391       -0.43750        0.18750       -0.06250
 BRILLOUIN|    45           0.00391       -0.43750        0.18750        0.06250
 BRILLOUIN|    46           0.00391       -0.43750        0.18750        0.18750
 BRILLOUIN|    47           0.00391       -0.43750        0.18750        0.31250
 BRILLOUIN|    48           0.00391       -0.43750        0.18750        0.43750
 BRILLOUIN|    49           0.00391       -0.43750        0.31250       -0.43750
 BRILLOUIN|    50           0.00391       -0.43750        0.31250       -0.31250
 BRILLOUIN|    51           0.00391       -0.43750        0.31250       -0.18750
 BRILLOUIN|    52           0.00391       -0.43750        0.31250       -0.06250
 BRILLOUIN|    53           0.00391       -0.43750        0.31250        0.06250
 BRILLOUIN|    54           0.00391       -0.43750        0.31250        0.18750
 BRILLOUIN|    55           0.00391       -0.43750        0.31250        0.31250
 BRILLOUIN|    56           0.00391       -0.43750        0.31250        0.43750
 BRILLOUIN|    57           0.00391       -0.43750        0.43750       -0.43750
 BRILLOUIN|    58           0.00391       -0.43750        0.43750       -0.31250
 BRILLOUIN|    59           0.00391       -0.43750        0.43750       -0.18750
 BRILLOUIN|    60           0.00391       -0.43750        0.43750       -0.06250
 BRILLOUIN|    61           0.00391       -0.43750        0.43750        0.06250
 BRILLOUIN|    62           0.00391       -0.43750        0.43750        0.18750
 BRILLOUIN|    63           0.00391       -0.43750        0.43750        0.31250
 BRILLOUIN|    64           0.00391       -0.43750        0.43750        0.43750
 BRILLOUIN|    65           0.00391       -0.31250       -0.43750       -0.43750
 BRILLOUIN|    66           0.00391       -0.31250       -0.43750       -0.31250
 BRILLOUIN|    67           0.00391       -0.31250       -0.43750       -0.18750
 BRILLOUIN|    68           0.00391       -0.31250       -0.43750       -0.06250
 BRILLOUIN|    69           0.00391       -0.31250       -0.43750        0.06250
 BRILLOUIN|    70           0.00391       -0.31250       -0.43750        0.18750
 BRILLOUIN|    71           0.00391       -0.31250       -0.43750        0.31250
 BRILLOUIN|    72           0.00391       -0.31250       -0.43750        0.43750
 BRILLOUIN|    73           0.00391       -0.31250       -0.31250       -0.43750
 BRILLOUIN|    74           0.00391       -0.31250       -0.31250       -0.31250
 BRILLOUIN|    75           0.00391       -0.31250       -0.31250       -0.18750
 BRILLOUIN|    76           0.00391       -0.31250       -0.31250       -0.06250
 BRILLOUIN|    77           0.00391       -0.31250       -0.31250        0.06250
 BRILLOUIN|    78           0.00391       -0.31250       -0.31250        0.18750
 BRILLOUIN|    79           0.00391       -0.31250       -0.31250        0.31250
 BRILLOUIN|    80           0.00391       -0.31250       -0.31250        0.43750
 BRILLOUIN|    81           0.00391       -0.31250       -0.18750       -0.43750
 BRILLOUIN|    82           0.00391       -0.31250       -0.18750       -0.31250
 BRILLOUIN|    83           0.00391       -0.31250       -0.18750       -0.18750
 BRILLOUIN|    84           0.00391       -0.31250       -0.18750       -0.06250
 BRILLOUIN|    85           0.00391       -0.31250       -0.18750        0.06250
 BRILLOUIN|    86           0.00391       -0.31250       -0.18750        0.18750
 BRILLOUIN|    87           0.00391       -0.31250       -0.18750        0.31250
 BRILLOUIN|    88           0.00391       -0.31250       -0.18750        0.43750
 BRILLOUIN|    89           0.00391       -0.31250       -0.06250       -0.43750
 BRILLOUIN|    90           0.00391       -0.31250       -0.06250       -0.31250
 BRILLOUIN|    91           0.00391       -0.31250       -0.06250       -0.18750
 BRILLOUIN|    92           0.00391       -0.31250       -0.06250       -0.06250
 BRILLOUIN|    93           0.00391       -0.31250       -0.06250        0.06250
 BRILLOUIN|    94           0.00391       -0.31250       -0.06250        0.18750
 BRILLOUIN|    95           0.00391       -0.31250       -0.06250        0.31250
 BRILLOUIN|    96           0.00391       -0.31250       -0.06250        0.43750
 BRILLOUIN|    97           0.00391       -0.31250        0.06250       -0.43750
 BRILLOUIN|    98           0.00391       -0.31250        0.06250       -0.31250
 BRILLOUIN|    99           0.00391       -0.31250        0.06250       -0.18750
 BRILLOUIN|   100           0.00391       -0.31250        0.06250       -0.06250
 BRILLOUIN|   101           0.00391       -0.31250        0.06250        0.06250
 BRILLOUIN|   102           0.00391       -0.31250        0.06250        0.18750
 BRILLOUIN|   103           0.00391       -0.31250        0.06250        0.31250
 BRILLOUIN|   104           0.00391       -0.31250        0.06250        0.43750
 BRILLOUIN|   105           0.00391       -0.31250        0.18750       -0.43750
 BRILLOUIN|   106           0.00391       -0.31250        0.18750       -0.31250
 BRILLOUIN|   107           0.00391       -0.31250        0.18750       -0.18750
 BRILLOUIN|   108           0.00391       -0.31250        0.18750       -0.06250
 BRILLOUIN|   109           0.00391       -0.31250        0.18750        0.06250
 BRILLOUIN|   110           0.00391       -0.31250        0.18750        0.18750
 BRILLOUIN|   111           0.00391       -0.31250        0.18750        0.31250
 BRILLOUIN|   112           0.00391       -0.31250        0.18750        0.43750
 BRILLOUIN|   113           0.00391       -0.31250        0.31250       -0.43750
 BRILLOUIN|   114           0.00391       -0.31250        0.31250       -0.31250
 BRILLOUIN|   115           0.00391       -0.31250        0.31250       -0.18750
 BRILLOUIN|   116           0.00391       -0.31250        0.31250       -0.06250
 BRILLOUIN|   117           0.00391       -0.31250        0.31250        0.06250
 BRILLOUIN|   118           0.00391       -0.31250        0.31250        0.18750
 BRILLOUIN|   119           0.00391       -0.31250        0.31250        0.31250
 BRILLOUIN|   120           0.00391       -0.31250        0.31250        0.43750
 BRILLOUIN|   121           0.00391       -0.31250        0.43750       -0.43750
 BRILLOUIN|   122           0.00391       -0.31250        0.43750       -0.31250
 BRILLOUIN|   123           0.00391       -0.31250        0.43750       -0.18750
 BRILLOUIN|   124           0.00391       -0.31250        0.43750       -0.06250
 BRILLOUIN|   125           0.00391       -0.31250        0.43750        0.06250
 BRILLOUIN|   126           0.00391       -0.31250        0.43750        0.18750
 BRILLOUIN|   127           0.00391       -0.31250        0.43750        0.31250
 BRILLOUIN|   128           0.00391       -0.31250        0.43750        0.43750
 BRILLOUIN|   129           0.00391       -0.18750       -0.43750       -0.43750
 BRILLOUIN|   130           0.00391       -0.18750       -0.43750       -0.31250
 BRILLOUIN|   131           0.00391       -0.18750       -0.43750       -0.18750
 BRILLOUIN|   132           0.00391       -0.18750       -0.43750       -0.06250
 BRILLOUIN|   133           0.00391       -0.18750       -0.43750        0.06250
 BRILLOUIN|   134           0.00391       -0.18750       -0.43750        0.18750
 BRILLOUIN|   135           0.00391       -0.18750       -0.43750        0.31250
 BRILLOUIN|   136           0.00391       -0.18750       -0.43750        0.43750
 BRILLOUIN|   137           0.00391       -0.18750       -0.31250       -0.43750
 BRILLOUIN|   138           0.00391       -0.18750       -0.31250       -0.31250
 BRILLOUIN|   139           0.00391       -0.18750       -0.31250       -0.18750
 BRILLOUIN|   140           0.00391       -0.18750       -0.31250       -0.06250
 BRILLOUIN|   141           0.00391       -0.18750       -0.31250        0.06250
 BRILLOUIN|   142           0.00391       -0.18750       -0.31250        0.18750
 BRILLOUIN|   143           0.00391       -0.18750       -0.31250        0.31250
 BRILLOUIN|   144           0.00391       -0.18750       -0.31250        0.43750
 BRILLOUIN|   145           0.00391       -0.18750       -0.18750       -0.43750
 BRILLOUIN|   146           0.00391       -0.18750       -0.18750       -0.31250
 BRILLOUIN|   147           0.00391       -0.18750       -0.18750       -0.18750
 BRILLOUIN|   148           0.00391       -0.18750       -0.18750       -0.06250
 BRILLOUIN|   149           0.00391       -0.18750       -0.18750        0.06250
 BRILLOUIN|   150           0.00391       -0.18750       -0.18750        0.18750
 BRILLOUIN|   151           0.00391       -0.18750       -0.18750        0.31250
 BRILLOUIN|   152           0.00391       -0.18750       -0.18750        0.43750
 BRILLOUIN|   153           0.00391       -0.18750       -0.06250       -0.43750
 BRILLOUIN|   154           0.00391       -0.18750       -0.06250       -0.31250
 BRILLOUIN|   155           0.00391       -0.18750       -0.06250       -0.18750
 BRILLOUIN|   156           0.00391       -0.18750       -0.06250       -0.06250
 BRILLOUIN|   157           0.00391       -0.18750       -0.06250        0.06250
 BRILLOUIN|   158           0.00391       -0.18750       -0.06250        0.18750
 BRILLOUIN|   159           0.00391       -0.18750       -0.06250        0.31250
 BRILLOUIN|   160           0.00391       -0.18750       -0.06250        0.43750
 BRILLOUIN|   161           0.00391       -0.18750        0.06250       -0.43750
 BRILLOUIN|   162           0.00391       -0.18750        0.06250       -0.31250
 BRILLOUIN|   163           0.00391       -0.18750        0.06250       -0.18750
 BRILLOUIN|   164           0.00391       -0.18750        0.06250       -0.06250
 BRILLOUIN|   165           0.00391       -0.18750        0.06250        0.06250
 BRILLOUIN|   166           0.00391       -0.18750        0.06250        0.18750
 BRILLOUIN|   167           0.00391       -0.18750        0.06250        0.31250
 BRILLOUIN|   168           0.00391       -0.18750        0.06250        0.43750
 BRILLOUIN|   169           0.00391       -0.18750        0.18750       -0.43750
 BRILLOUIN|   170           0.00391       -0.18750        0.18750       -0.31250
 BRILLOUIN|   171           0.00391       -0.18750        0.18750       -0.18750
 BRILLOUIN|   172           0.00391       -0.18750        0.18750       -0.06250
 BRILLOUIN|   173           0.00391       -0.18750        0.18750        0.06250
 BRILLOUIN|   174           0.00391       -0.18750        0.18750        0.18750
 BRILLOUIN|   175           0.00391       -0.18750        0.18750        0.31250
 BRILLOUIN|   176           0.00391       -0.18750        0.18750        0.43750
 BRILLOUIN|   177           0.00391       -0.18750        0.31250       -0.43750
 BRILLOUIN|   178           0.00391       -0.18750        0.31250       -0.31250
 BRILLOUIN|   179           0.00391       -0.18750        0.31250       -0.18750
 BRILLOUIN|   180           0.00391       -0.18750        0.31250       -0.06250
 BRILLOUIN|   181           0.00391       -0.18750        0.31250        0.06250
 BRILLOUIN|   182           0.00391       -0.18750        0.31250        0.18750
 BRILLOUIN|   183           0.00391       -0.18750        0.31250        0.31250
 BRILLOUIN|   184           0.00391       -0.18750        0.31250        0.43750
 BRILLOUIN|   185           0.00391       -0.18750        0.43750       -0.43750
 BRILLOUIN|   186           0.00391       -0.18750        0.43750       -0.31250
 BRILLOUIN|   187           0.00391       -0.18750        0.43750       -0.18750
 BRILLOUIN|   188           0.00391       -0.18750        0.43750       -0.06250
 BRILLOUIN|   189           0.00391       -0.18750        0.43750        0.06250
 BRILLOUIN|   190           0.00391       -0.18750        0.43750        0.18750
 BRILLOUIN|   191           0.00391       -0.18750        0.43750        0.31250
 BRILLOUIN|   192           0.00391       -0.18750        0.43750        0.43750
 BRILLOUIN|   193           0.00391       -0.06250       -0.43750       -0.43750
 BRILLOUIN|   194           0.00391       -0.06250       -0.43750       -0.31250
 BRILLOUIN|   195           0.00391       -0.06250       -0.43750       -0.18750
 BRILLOUIN|   196           0.00391       -0.06250       -0.43750       -0.06250
 BRILLOUIN|   197           0.00391       -0.06250       -0.43750        0.06250
 BRILLOUIN|   198           0.00391       -0.06250       -0.43750        0.18750
 BRILLOUIN|   199           0.00391       -0.06250       -0.43750        0.31250
 BRILLOUIN|   200           0.00391       -0.06250       -0.43750        0.43750
 BRILLOUIN|   201           0.00391       -0.06250       -0.31250       -0.43750
 BRILLOUIN|   202           0.00391       -0.06250       -0.31250       -0.31250
 BRILLOUIN|   203           0.00391       -0.06250       -0.31250       -0.18750
 BRILLOUIN|   204           0.00391       -0.06250       -0.31250       -0.06250
 BRILLOUIN|   205           0.00391       -0.06250       -0.31250        0.06250
 BRILLOUIN|   206           0.00391       -0.06250       -0.31250        0.18750
 BRILLOUIN|   207           0.00391       -0.06250       -0.31250        0.31250
 BRILLOUIN|   208           0.00391       -0.06250       -0.31250        0.43750
 BRILLOUIN|   209           0.00391       -0.06250       -0.18750       -0.43750
 BRILLOUIN|   210           0.00391       -0.06250       -0.18750       -0.31250
 BRILLOUIN|   211           0.00391       -0.06250       -0.18750       -0.18750
 BRILLOUIN|   212           0.00391       -0.06250       -0.18750       -0.06250
 BRILLOUIN|   213           0.00391       -0.06250       -0.18750        0.06250
 BRILLOUIN|   214           0.00391       -0.06250       -0.18750        0.18750
 BRILLOUIN|   215           0.00391       -0.06250       -0.18750        0.31250
 BRILLOUIN|   216           0.00391       -0.06250       -0.18750        0.43750
 BRILLOUIN|   217           0.00391       -0.06250       -0.06250       -0.43750
 BRILLOUIN|   218           0.00391       -0.06250       -0.06250       -0.31250
 BRILLOUIN|   219           0.00391       -0.06250       -0.06250       -0.18750
 BRILLOUIN|   220           0.00391       -0.06250       -0.06250       -0.06250
 BRILLOUIN|   221           0.00391       -0.06250       -0.06250        0.06250
 BRILLOUIN|   222           0.00391       -0.06250       -0.06250        0.18750
 BRILLOUIN|   223           0.00391       -0.06250       -0.06250        0.31250
 BRILLOUIN|   224           0.00391       -0.06250       -0.06250        0.43750
 BRILLOUIN|   225           0.00391       -0.06250        0.06250       -0.43750
 BRILLOUIN|   226           0.00391       -0.06250        0.06250       -0.31250
 BRILLOUIN|   227           0.00391       -0.06250        0.06250       -0.18750
 BRILLOUIN|   228           0.00391       -0.06250        0.06250       -0.06250
 BRILLOUIN|   229           0.00391       -0.06250        0.06250        0.06250
 BRILLOUIN|   230           0.00391       -0.06250        0.06250        0.18750
 BRILLOUIN|   231           0.00391       -0.06250        0.06250        0.31250
 BRILLOUIN|   232           0.00391       -0.06250        0.06250        0.43750
 BRILLOUIN|   233           0.00391       -0.06250        0.18750       -0.43750
 BRILLOUIN|   234           0.00391       -0.06250        0.18750       -0.31250
 BRILLOUIN|   235           0.00391       -0.06250        0.18750       -0.18750
 BRILLOUIN|   236           0.00391       -0.06250        0.18750       -0.06250
 BRILLOUIN|   237           0.00391       -0.06250        0.18750        0.06250
 BRILLOUIN|   238           0.00391       -0.06250        0.18750        0.18750
 BRILLOUIN|   239           0.00391       -0.06250        0.18750        0.31250
 BRILLOUIN|   240           0.00391       -0.06250        0.18750        0.43750
 BRILLOUIN|   241           0.00391       -0.06250        0.31250       -0.43750
 BRILLOUIN|   242           0.00391       -0.06250        0.31250       -0.31250
 BRILLOUIN|   243           0.00391       -0.06250        0.31250       -0.18750
 BRILLOUIN|   244           0.00391       -0.06250        0.31250       -0.06250
 BRILLOUIN|   245           0.00391       -0.06250        0.31250        0.06250
 BRILLOUIN|   246           0.00391       -0.06250        0.31250        0.18750
 BRILLOUIN|   247           0.00391       -0.06250        0.31250        0.31250
 BRILLOUIN|   248           0.00391       -0.06250        0.31250        0.43750
 BRILLOUIN|   249           0.00391       -0.06250        0.43750       -0.43750
 BRILLOUIN|   250           0.00391       -0.06250        0.43750       -0.31250
 BRILLOUIN|   251           0.00391       -0.06250        0.43750       -0.18750
 BRILLOUIN|   252           0.00391       -0.06250        0.43750       -0.06250
 BRILLOUIN|   253           0.00391       -0.06250        0.43750        0.06250
 BRILLOUIN|   254           0.00391       -0.06250        0.43750        0.18750
 BRILLOUIN|   255           0.00391       -0.06250        0.43750        0.31250
 BRILLOUIN|   256           0.00391       -0.06250        0.43750        0.43750
 *******************************************************************************

 *******************************************************************************
 *******************************************************************************
 **                                                                           **
 **     #####                         ##              ##                      **
 **    ##   ##            ##          ##              ##                      **
 **   ##     ##                       ##            ######                    **
 **   ##     ##  ##   ##  ##   #####  ##  ##   ####   ##    #####    #####    **
 **   ##     ##  ##   ##  ##  ##      ## ##   ##      ##   ##   ##  ##   ##   **
 **   ##  ## ##  ##   ##  ##  ##      ####     ###    ##   ######   ######    **
 **    ##  ###   ##   ##  ##  ##      ## ##      ##   ##   ##       ##        **
 **     #######   #####   ##   #####  ##  ##  ####    ##    #####   ##        **
 **           ##                                                    ##        **
 **                                                                           **
 **                                                ... make the atoms dance   **
 **                                                                           **
 **            Copyright (C) by CP2K developers group (2000-2025)             **
 **                      J. Chem. Phys. 152, 194103 (2020)                    **
 **                                                                           **
 *******************************************************************************

 DFT| Spin restricted Kohn-Sham (RKS) calculation                            RKS
 DFT| Multiplicity                                                             1
 DFT| Number of spin states                                                    1
 DFT| Charge                                                                   0
 DFT| Self-interaction correction (SIC)                                       NO
 DFT| Cutoffs: density                                              1.000000E-10
 DFT|          gradient                                             1.000000E-10
 DFT|          tau                                                  1.000000E-10
 DFT|          cutoff_smoothing_range                               0.000000E+00
 DFT| XC density smoothing                                                  NONE
 DFT| XC derivatives                                                          PW

 FUNCTIONAL| PBE:
 FUNCTIONAL| J.P.Perdew, K.Burke, M.Ernzerhof, Phys. Rev. Letter, vol. 77, n 18,
 FUNCTIONAL|  pp. 3865-3868, (1996) {spin unpolarized}                          


 QS| Method:                                                                 GPW
 QS| Density plane wave grid type                        NON-SPHERICAL FULLSPACE
 QS| Number of grid levels:                                                    4
 QS| Density cutoff [a.u.]:                                                500.0
 QS| Multi grid cutoff [a.u.]: 1) grid level                               500.0
 QS|                           2) grid level                               166.7
 QS|                           3) grid level                                55.6
 QS|                           4) grid level                                18.5
 QS| Grid level progression factor:                                          3.0
 QS| Relative density cutoff [a.u.]:                                        50.0
 QS| Interaction thresholds: eps_pgf_orb:                                1.0E-16
 QS|                         eps_filter_matrix:                          0.0E+00
 QS|                         eps_core_charge:                            1.0E-18
 QS|                         eps_rho_gspace:                             1.0E-16
 QS|                         eps_rho_rspace:                             1.0E-16
 QS|                         eps_gvg_rspace:                             1.0E-08
 QS|                         eps_ppl:                                    1.0E-02
 QS|                         eps_ppnl:                                   1.0E-10


 ATOMIC KIND INFORMATION

  1. Atomic kind: In                                    Number of atoms:       2

     Orbital Basis Set                                aug-DZVP-MOLOPT-GTH-tier-2

       Number of orbital shell sets:                                           1
       Number of orbital shells:                                              12
       Number of primitive Cartesian functions:                                7
       Number of Cartesian basis functions:                                   65
       Number of spherical basis functions:                                   50
       Norm type:                                                              2

       Normalised Cartesian orbitals:

                        Set   Shell   Orbital            Exponent    Coefficient

                          1       1    2s                0.059413      -0.030028
                                                         0.098319       0.000000
                                                         0.162701      -0.148605
                                                         0.389454      -0.031476
                                                         0.898324       0.319931
                                                         1.829866      -0.080645
                                                         3.101675      -0.027475

                          1       2    3s                0.059413       0.168798
                                                         0.098319       0.000000
                                                         0.162701      -0.351923
                                                         0.389454       0.120732
                                                         0.898324       0.261923
                                                         1.829866       0.174866
                                                         3.101675      -0.186543

                          1       3    4s                0.059413      -0.008721
                                                         0.098319       0.082078
                                                         0.162701       0.012290
                                                         0.389454       0.164991
                                                         0.898324      -0.026022
                                                         1.829866       0.000000
                                                         3.101675       0.000000

                          1       4    3px               0.059413       0.017650
                                                         0.098319       0.000000
                                                         0.162701       0.088644
                                                         0.389454       0.067612
                                                         0.898324      -0.244841
                                                         1.829866       0.104699
                                                         3.101675      -0.015055
                          1       4    3py               0.059413       0.017650
                                                         0.098319       0.000000
                                                         0.162701       0.088644
                                                         0.389454       0.067612
                                                         0.898324      -0.244841
                                                         1.829866       0.104699
                                                         3.101675      -0.015055
                          1       4    3pz               0.059413       0.017650
                                                         0.098319       0.000000
                                                         0.162701       0.088644
                                                         0.389454       0.067612
                                                         0.898324      -0.244841
                                                         1.829866       0.104699
                                                         3.101675      -0.015055

                          1       5    4px               0.059413      -0.062028
                                                         0.098319       0.000000
                                                         0.162701       0.194293
                                                         0.389454       0.010700
                                                         0.898324      -0.128595
                                                         1.829866      -0.344804
                                                         3.101675       0.318158
                          1       5    4py               0.059413      -0.062028
                                                         0.098319       0.000000
                                                         0.162701       0.194293
                                                         0.389454       0.010700
                                                         0.898324      -0.128595
                                                         1.829866      -0.344804
                                                         3.101675       0.318158
                          1       5    4pz               0.059413      -0.062028
                                                         0.098319       0.000000
                                                         0.162701       0.194293
                                                         0.389454       0.010700
                                                         0.898324      -0.128595
                                                         1.829866      -0.344804
                                                         3.101675       0.318158

                          1       6    5px               0.059413       0.037573
                                                         0.098319       0.017505
                                                         0.162701      -0.026741
                                                         0.389454       0.021985
                                                         0.898324       0.063298
                                                         1.829866       0.000000
                                                         3.101675       0.000000
                          1       6    5py               0.059413       0.037573
                                                         0.098319       0.017505
                                                         0.162701      -0.026741
                                                         0.389454       0.021985
                                                         0.898324       0.063298
                                                         1.829866       0.000000
                                                         3.101675       0.000000
                          1       6    5pz               0.059413       0.037573
                                                         0.098319       0.017505
                                                         0.162701      -0.026741
                                                         0.389454       0.021985
                                                         0.898324       0.063298
                                                         1.829866       0.000000
                                                         3.101675       0.000000

                          1       7    4dx2              0.059413      -0.000002
                                                         0.098319       0.000000
                                                         0.162701       0.003111
                                                         0.389454       0.071889
                                                         0.898324       0.523983
                                                         1.829866       1.617792
                                                         3.101675       2.308167
                          1       7    4dxy              0.059413      -0.000004
                                                         0.098319       0.000000
                                                         0.162701       0.005389
                                                         0.389454       0.124516
                                                         0.898324       0.907564
                                                         1.829866       2.802097
                                                         3.101675       3.997863
                          1       7    4dxz              0.059413      -0.000004
                                                         0.098319       0.000000
                                                         0.162701       0.005389
                                                         0.389454       0.124516
                                                         0.898324       0.907564
                                                         1.829866       2.802097
                                                         3.101675       3.997863
                          1       7    4dy2              0.059413      -0.000002
                                                         0.098319       0.000000
                                                         0.162701       0.003111
                                                         0.389454       0.071889
                                                         0.898324       0.523983
                                                         1.829866       1.617792
                                                         3.101675       2.308167
                          1       7    4dyz              0.059413      -0.000004
                                                         0.098319       0.000000
                                                         0.162701       0.005389
                                                         0.389454       0.124516
                                                         0.898324       0.907564
                                                         1.829866       2.802097
                                                         3.101675       3.997863
                          1       7    4dz2              0.059413      -0.000002
                                                         0.098319       0.000000
                                                         0.162701       0.003111
                                                         0.389454       0.071889
                                                         0.898324       0.523983
                                                         1.829866       1.617792
                                                         3.101675       2.308167

                          1       8    5dx2              0.059413       0.007660
                                                         0.098319       0.000000
                                                         0.162701       0.021907
                                                         0.389454       0.084747
                                                         0.898324      -0.218186
                                                         1.829866      -0.416948
                                                         3.101675      -0.116965
                          1       8    5dxy              0.059413       0.013268
                                                         0.098319       0.000000
                                                         0.162701       0.037945
                                                         0.389454       0.146786
                                                         0.898324      -0.377909
                                                         1.829866      -0.722176
                                                         3.101675      -0.202589
                          1       8    5dxz              0.059413       0.013268
                                                         0.098319       0.000000
                                                         0.162701       0.037945
                                                         0.389454       0.146786
                                                         0.898324      -0.377909
                                                         1.829866      -0.722176
                                                         3.101675      -0.202589
                          1       8    5dy2              0.059413       0.007660
                                                         0.098319       0.000000
                                                         0.162701       0.021907
                                                         0.389454       0.084747
                                                         0.898324      -0.218186
                                                         1.829866      -0.416948
                                                         3.101675      -0.116965
                          1       8    5dyz              0.059413       0.013268
                                                         0.098319       0.000000
                                                         0.162701       0.037945
                                                         0.389454       0.146786
                                                         0.898324      -0.377909
                                                         1.829866      -0.722176
                                                         3.101675      -0.202589
                          1       8    5dz2              0.059413       0.007660
                                                         0.098319       0.000000
                                                         0.162701       0.021907
                                                         0.389454       0.084747
                                                         0.898324      -0.218186
                                                         1.829866      -0.416948
                                                         3.101675      -0.116965

                          1       9    6dx2              0.059413       0.012048
                                                         0.098319      -0.004297
                                                         0.162701       0.012487
                                                         0.389454      -0.010530
                                                         0.898324      -0.001812
                                                         1.829866       0.000000
                                                         3.101675       0.000000
                          1       9    6dxy              0.059413       0.020868
                                                         0.098319      -0.007443
                                                         0.162701       0.021628
                                                         0.389454      -0.018238
                                                         0.898324      -0.003139
                                                         1.829866       0.000000
                                                         3.101675       0.000000
                          1       9    6dxz              0.059413       0.020868
                                                         0.098319      -0.007443
                                                         0.162701       0.021628
                                                         0.389454      -0.018238
                                                         0.898324      -0.003139
                                                         1.829866       0.000000
                                                         3.101675       0.000000
                          1       9    6dy2              0.059413       0.012048
                                                         0.098319      -0.004297
                                                         0.162701       0.012487
                                                         0.389454      -0.010530
                                                         0.898324      -0.001812
                                                         1.829866       0.000000
                                                         3.101675       0.000000
                          1       9    6dyz              0.059413       0.020868
                                                         0.098319      -0.007443
                                                         0.162701       0.021628
                                                         0.389454      -0.018238
                                                         0.898324      -0.003139
                                                         1.829866       0.000000
                                                         3.101675       0.000000
                          1       9    6dz2              0.059413       0.012048
                                                         0.098319      -0.004297
                                                         0.162701       0.012487
                                                         0.389454      -0.010530
                                                         0.898324      -0.001812
                                                         1.829866       0.000000
                                                         3.101675       0.000000

                          1      10    5fx3              0.059413       0.001480
                                                         0.098319       0.000000
                                                         0.162701       0.004947
                                                         0.389454       0.081988
                                                         0.898324       0.095101
                                                         1.829866      -0.142557
                                                         3.101675       0.256084
                          1      10    5fx2y             0.059413       0.003309
                                                         0.098319       0.000000
                                                         0.162701       0.011061
                                                         0.389454       0.183332
                                                         0.898324       0.212652
                                                         1.829866      -0.318768
                                                         3.101675       0.572621
                          1      10    5fx2z             0.059413       0.003309
                                                         0.098319       0.000000
                                                         0.162701       0.011061
                                                         0.389454       0.183332
                                                         0.898324       0.212652
                                                         1.829866      -0.318768
                                                         3.101675       0.572621
                          1      10    5fxy2             0.059413       0.003309
                                                         0.098319       0.000000
                                                         0.162701       0.011061
                                                         0.389454       0.183332
                                                         0.898324       0.212652
                                                         1.829866      -0.318768
                                                         3.101675       0.572621
                          1      10    5fxyz             0.059413       0.005732
                                                         0.098319       0.000000
                                                         0.162701       0.019159
                                                         0.389454       0.317540
                                                         0.898324       0.368324
                                                         1.829866      -0.552122
                                                         3.101675       0.991809
                          1      10    5fxz2             0.059413       0.003309
                                                         0.098319       0.000000
                                                         0.162701       0.011061
                                                         0.389454       0.183332
                                                         0.898324       0.212652
                                                         1.829866      -0.318768
                                                         3.101675       0.572621
                          1      10    5fy3              0.059413       0.001480
                                                         0.098319       0.000000
                                                         0.162701       0.004947
                                                         0.389454       0.081988
                                                         0.898324       0.095101
                                                         1.829866      -0.142557
                                                         3.101675       0.256084
                          1      10    5fy2z             0.059413       0.003309
                                                         0.098319       0.000000
                                                         0.162701       0.011061
                                                         0.389454       0.183332
                                                         0.898324       0.212652
                                                         1.829866      -0.318768
                                                         3.101675       0.572621
                          1      10    5fyz2             0.059413       0.003309
                                                         0.098319       0.000000
                                                         0.162701       0.011061
                                                         0.389454       0.183332
                                                         0.898324       0.212652
                                                         1.829866      -0.318768
                                                         3.101675       0.572621
                          1      10    5fz3              0.059413       0.001480
                                                         0.098319       0.000000
                                                         0.162701       0.004947
                                                         0.389454       0.081988
                                                         0.898324       0.095101
                                                         1.829866      -0.142557
                                                         3.101675       0.256084

                          1      11    6fx3              0.059413       0.000838
                                                         0.098319      -0.004896
                                                         0.162701      -0.011843
                                                         0.389454      -0.050440
                                                         0.898324       0.103500
                                                         1.829866       0.000000
                                                         3.101675       0.000000
                          1      11    6fx2y             0.059413       0.001873
                                                         0.098319      -0.010949
                                                         0.162701      -0.026481
                                                         0.389454      -0.112787
                                                         0.898324       0.231432
                                                         1.829866       0.000000
                                                         3.101675       0.000000
                          1      11    6fx2z             0.059413       0.001873
                                                         0.098319      -0.010949
                                                         0.162701      -0.026481
                                                         0.389454      -0.112787
                                                         0.898324       0.231432
                                                         1.829866       0.000000
                                                         3.101675       0.000000
                          1      11    6fxy2             0.059413       0.001873
                                                         0.098319      -0.010949
                                                         0.162701      -0.026481
                                                         0.389454      -0.112787
                                                         0.898324       0.231432
                                                         1.829866       0.000000
                                                         3.101675       0.000000
                          1      11    6fxyz             0.059413       0.003244
                                                         0.098319      -0.018963
                                                         0.162701      -0.045867
                                                         0.389454      -0.195353
                                                         0.898324       0.400853
                                                         1.829866       0.000000
                                                         3.101675       0.000000
                          1      11    6fxz2             0.059413       0.001873
                                                         0.098319      -0.010949
                                                         0.162701      -0.026481
                                                         0.389454      -0.112787
                                                         0.898324       0.231432
                                                         1.829866       0.000000
                                                         3.101675       0.000000
                          1      11    6fy3              0.059413       0.000838
                                                         0.098319      -0.004896
                                                         0.162701      -0.011843
                                                         0.389454      -0.050440
                                                         0.898324       0.103500
                                                         1.829866       0.000000
                                                         3.101675       0.000000
                          1      11    6fy2z             0.059413       0.001873
                                                         0.098319      -0.010949
                                                         0.162701      -0.026481
                                                         0.389454      -0.112787
                                                         0.898324       0.231432
                                                         1.829866       0.000000
                                                         3.101675       0.000000
                          1      11    6fyz2             0.059413       0.001873
                                                         0.098319      -0.010949
                                                         0.162701      -0.026481
                                                         0.389454      -0.112787
                                                         0.898324       0.231432
                                                         1.829866       0.000000
                                                         3.101675       0.000000
                          1      11    6fz3              0.059413       0.000838
                                                         0.098319      -0.004896
                                                         0.162701      -0.011843
                                                         0.389454      -0.050440
                                                         0.898324       0.103500
                                                         1.829866       0.000000
                                                         3.101675       0.000000

                          1      12    6gx4              0.059413      -0.000019
                                                         0.098319       0.000348
                                                         0.162701       0.005013
                                                         0.389454       0.018047
                                                         0.898324       0.140915
                                                         1.829866       0.000000
                                                         3.101675       0.000000
                          1      12    6gx3y             0.059413      -0.000052
                                                         0.098319       0.000921
                                                         0.162701       0.013264
                                                         0.389454       0.047749
                                                         0.898324       0.372826
                                                         1.829866       0.000000
                                                         3.101675       0.000000
                          1      12    6gx3z             0.059413      -0.000052
                                                         0.098319       0.000921
                                                         0.162701       0.013264
                                                         0.389454       0.047749
                                                         0.898324       0.372826
                                                         1.829866       0.000000
                                                         3.101675       0.000000
                          1      12    6gx2y2            0.059413      -0.000067
                                                         0.098319       0.001188
                                                         0.162701       0.017123
                                                         0.389454       0.061643
                                                         0.898324       0.481316
                                                         1.829866       0.000000
                                                         3.101675       0.000000
                          1      12    6gx2yz            0.059413      -0.000115
                                                         0.098319       0.002058
                                                         0.162701       0.029658
                                                         0.389454       0.106769
                                                         0.898324       0.833663
                                                         1.829866       0.000000
                                                         3.101675       0.000000
                          1      12    6gx2z2            0.059413      -0.000067
                                                         0.098319       0.001188
                                                         0.162701       0.017123
                                                         0.389454       0.061643
                                                         0.898324       0.481316
                                                         1.829866       0.000000
                                                         3.101675       0.000000
                          1      12    6gxy3             0.059413      -0.000052
                                                         0.098319       0.000921
                                                         0.162701       0.013264
                                                         0.389454       0.047749
                                                         0.898324       0.372826
                                                         1.829866       0.000000
                                                         3.101675       0.000000
                          1      12    6gxy2z            0.059413      -0.000115
                                                         0.098319       0.002058
                                                         0.162701       0.029658
                                                         0.389454       0.106769
                                                         0.898324       0.833663
                                                         1.829866       0.000000
                                                         3.101675       0.000000
                          1      12    6gxyz2            0.059413      -0.000115
                                                         0.098319       0.002058
                                                         0.162701       0.029658
                                                         0.389454       0.106769
                                                         0.898324       0.833663
                                                         1.829866       0.000000
                                                         3.101675       0.000000
                          1      12    6gxz3             0.059413      -0.000052
                                                         0.098319       0.000921
                                                         0.162701       0.013264
                                                         0.389454       0.047749
                                                         0.898324       0.372826
                                                         1.829866       0.000000
                                                         3.101675       0.000000
                          1      12    6gy4              0.059413      -0.000019
                                                         0.098319       0.000348
                                                         0.162701       0.005013
                                                         0.389454       0.018047
                                                         0.898324       0.140915
                                                         1.829866       0.000000
                                                         3.101675       0.000000
                          1      12    6gy3z             0.059413      -0.000052
                                                         0.098319       0.000921
                                                         0.162701       0.013264
                                                         0.389454       0.047749
                                                         0.898324       0.372826
                                                         1.829866       0.000000
                                                         3.101675       0.000000
                          1      12    6gy2z2            0.059413      -0.000067
                                                         0.098319       0.001188
                                                         0.162701       0.017123
                                                         0.389454       0.061643
                                                         0.898324       0.481316
                                                         1.829866       0.000000
                                                         3.101675       0.000000
                          1      12    6gyz3             0.059413      -0.000052
                                                         0.098319       0.000921
                                                         0.162701       0.013264
                                                         0.389454       0.047749
                                                         0.898324       0.372826
                                                         1.829866       0.000000
                                                         3.101675       0.000000
                          1      12    6gz4              0.059413      -0.000019
                                                         0.098319       0.000348
                                                         0.162701       0.005013
                                                         0.389454       0.018047
                                                         0.898324       0.140915
                                                         1.829866       0.000000
                                                         3.101675       0.000000

       Atomic covalent radius [Angstrom]:                                  1.440

       Atomic van der Waals radius [Angstrom]:                             1.930

     GTH Potential information for                                       GTH-PBE

       Description:                       Goedecker-Teter-Hutter pseudopotential
                                           Goedecker et al., PRB 54, 1703 (1996)
                                          Hartwigsen et al., PRB 58, 3641 (1998)
                                                      Krack, TCA 114, 145 (2005)

       Gaussian exponent of the core charge distribution:               1.779993
       Electronic configuration (s p d ...):                           2   1  10

       Parameters of the local part of the GTH pseudopotential:

                          rloc        C1          C2          C3          C4
                        0.530000    3.324785

       Parameters of the non-local part of the GTH (SOC) pseudopotential:

                   l      r(l)      h(i,j,l)
                                    k(i,j,l)
                   0    0.479495   11.117160   -6.573507    1.506863
                                   -6.573507   10.937275   -3.890704
                                    1.506863   -3.890704    3.088151
                   1    0.569933    4.700614   -2.217064
                                   -2.217064    2.623266
                                    0.341772   -0.541994
                                   -0.541994    0.641296
                   2    0.377069   -4.002288   -0.840128
                                   -0.840128    0.952616
                                   -0.077551    0.133279
                                    0.133279   -0.151124


 MOLECULE KIND INFORMATION


 All atoms are their own molecule, skipping detailed information


 TOTAL NUMBERS AND MAXIMUM NUMBERS

  Total number of            - Atomic kinds:                                   1
                             - Atoms:                                          2
                             - Shell sets:                                     2
                             - Shells:                                        24
                             - Primitive Cartesian functions:                 14
                             - Cartesian basis functions:                    130
                             - Spherical basis functions:                    100

  Maximum angular momentum of- Orbital basis functions:                        4
                             - Local part of the GTH pseudopotential:          0
                             - Non-local part of the GTH pseudopotential:      4


 MODULE QUICKSTEP: ATOMIC COORDINATES IN ANGSTROM

   Atom Kind Element         X             Y             Z       Z(eff)     Mass
      1    1 In   49      0.000000      0.000000      0.000000  13.0000 114.8180
      2    1 In   49      1.649205      1.649205      2.531280  13.0000 114.8180



 SCF PARAMETERS         Density guess:                                    ATOMIC
                        --------------------------------------------------------
                        max_scf:                                             500
                        max_scf_history:                                       0
                        max_diis:                                              4
                        --------------------------------------------------------
                        eps_scf:                                        1.00E-09
                        eps_scf_history:                                0.00E+00
                        eps_diis:                                       1.00E-01
                        eps_eigval:                                     1.00E-05
                        --------------------------------------------------------
                        level_shift [a.u.]:                             0.000000
                        added MOs                                        87    0
                        --------------------------------------------------------
                        Mixing method:                            BROYDEN_MIXING
                                                charge density mixing in g-space
                        --------------------------------------------------------
                        Smear method:                                FERMI_DIRAC
                        Electronic temperature [K]:                        300.0
                        Electronic temperature [a.u.]:                  9.50E-04
                        Accuracy threshold:                             1.00E-10
                        --------------------------------------------------------
                        No outer SCF

 PW_GRID| Information for grid number                                          1
 PW_GRID| Grid distributed over                                     8 processors
 PW_GRID| Real space group dimensions                                     8    1
 PW_GRID| the grid is blocked:                                                NO
 PW_GRID| Cutoff [a.u.]                                                    500.0
[...]
 COUNTER                                    TOTAL       BLAS       SMM       ACC
 flops inhomo. stacks                           0       0.0%      0.0%      0.0%
 flops total                         0.000000E+00       0.0%      0.0%      0.0%
 flops max/rank                      0.000000E+00       0.0%      0.0%      0.0%
 matmuls inhomo. stacks                         0       0.0%      0.0%      0.0%
 matmuls total                                  0       0.0%      0.0%      0.0%
 number of processed stacks                     0       0.0%      0.0%      0.0%
 average stack size                                     0.0       0.0       0.0
 marketing flops                     0.000000E+00
 -------------------------------------------------------------------------------
 -                                                                             -
 -                      DBCSR MESSAGE PASSING PERFORMANCE                      -
 -                                                                             -
 -------------------------------------------------------------------------------
 ROUTINE             CALLS      AVE VOLUME [Bytes]
 MP_Bcast                1                     12.
 MP_Allreduce           19                     21.
 MP_Alltoall        581972                  15742.
 -------------------------------------------------------------------------------

 -------------------------------------------------------------------------------
 -                                                                             -
 -                                DBM STATISTICS                               -
 -                                                                             -
 -------------------------------------------------------------------------------
    M  x    N  x    K                                          COUNT     PERCENT
 -------------------------------------------------------------------------------

 -------------------------------------------------------------------------------
 -                                                                             -
 -                                GRID STATISTICS                              -
 -                                                                             -
 -------------------------------------------------------------------------------
 LP    KERNEL             BACKEND                              COUNT     PERCENT
 8     collocate ortho    CPU                                 768300      50.98%
 8     integrate ortho    CPU                                 738750      49.02%
 0     collocate general  CPU                                      4       0.00%
 0     integrate general  CPU                                      2       0.00%
 -------------------------------------------------------------------------------

 MEMORY| Estimated peak process memory [MiB]                                1020

 -------------------------------------------------------------------------------
 ----                             MULTIGRID INFO                            ----
 -------------------------------------------------------------------------------
 count for grid        1:          37224          cutoff [a.u.]          500.00
 count for grid        2:          96458          cutoff [a.u.]          166.67
 count for grid        3:          72850          cutoff [a.u.]           55.56
 count for grid        4:          67490          cutoff [a.u.]           18.52
 total gridlevel count  :         274022

 -------------------------------------------------------------------------------
 -                                                                             -
 -                         MESSAGE PASSING PERFORMANCE                         -
 -                                                                             -
 -------------------------------------------------------------------------------

 ROUTINE             CALLS      AVE VOLUME [Bytes]
 MP_Group                6
 MP_Bcast           235328                   2120.
 MP_Allreduce       137954                     49.
 MP_Sync                 4
 MP_Alltoall           455                2284375.
 MP_SendRecv           742                 138007.
 MP_ISendRecv          707                 135525.
 MP_Wait            163047
 MP_comm_split           4
 MP_ISend           173516                   2270.
 MP_IRecv           274316                   1438.
 -------------------------------------------------------------------------------


 -------------------------------------------------------------------------------
 -                                                                             -
 -                           R E F E R E N C E S                               -
 -                                                                             -
 -------------------------------------------------------------------------------
 
 CP2K version 2025.1 (Development Version), the CP2K developers group (2025).
 CP2K is freely available from https://www.cp2k.org/ .
 
 T. D. Kuehne, M. Iannuzzi, M. Del Ben, V. V. Rybkin, P. Seewald, F. Stein, T. 
 Laino, R. Z. Khaliullin, O. Schuett, F. Schiffmann, D. Golze, J. Wilhelm, S. 
 Chulkov, M. H. Bani-Hashemian, V. Weber, U. Borstnik, M. Taillefumier, A. S. 
 Jakobovits, A. Lazzaro, H. Pabst, T. Mueller, R. Schade, M. Guidon, S. 
 Andermatt, N. Holmberg, G. K. Schenter, A. Hehn, A. Bussy, F. Belleflamme, G. 
 Tabacchi, A. Gloess, M. Lass, I. Bethune, C. J. Mundy, C. Plessl, M. Watkins, 
 J. VandeVondele, M. Krack, J. Hutter.
 J. Chem. Phys. 152, 194103 (2020).
 CP2K: An electronic structure and molecular dynamics software package - 
 Quickstep: Efficient and accurate electronic structure calculations.
 https://doi.org/10.1063/5.0007045

 O. Schuett, P. Messmer, J. Hutter, J. VandeVondele.
 Electronic Structure Calculations on Graphics Processing Units, 173-190 (2016).
 GPU-Accelerated Sparse Matrix-Matrix Multiplication for Linear Scaling Density 
 Functional Theory.
 https://doi.org/10.1002/9781118670712.ch8

 J. Hutter, M. Iannuzzi, F. Schiffmann, J. VandeVondele.
 WIREs Comput Mol Sci. 4, 15-25 (2014).
 CP2K: atomistic simulations of condensed matter systems.
 https://doi.org/10.1002/wcms.1159

 U. Borstnik, J. VandeVondele, V. Weber, J. Hutter.
 Parallel Comput. 40, 47-58 (2014).
 Sparse matrix multiplication: The distributed block-compressed sparse row 
 library.
 https://doi.org/10.1016/j.parco.2014.03.012

 J. VandeVondele, J. Hutter.
 J. Chem. Phys. 127, 114105 (2007).
 Gaussian basis sets for accurate calculations on molecular systems in gas and 
 condensed phases.
 https://doi.org/10.1063/1.2770708

 J. VandeVondele, M. Krack, F. Mohamed, M. Parrinello, T. Chassaing, J. Hutter.
 Comput. Phys. Commun. 167, 103-128 (2005).
 QUICKSTEP: Fast and accurate density functional calculations using a mixed 
 Gaussian and plane waves approach.
 https://doi.org/10.1016/j.cpc.2004.12.014

 M. Krack.
 Theor. Chem. Acc. 114, 145-152 (2005).
 Pseudopotentials for H to Kr optimized for gradient-corrected 
 exchange-correlation functionals.
 https://doi.org/10.1007/s00214-005-0655-y

 M. Frigo, S. G. Johnson.
 Proc. IEEE 93, 216-231 (2005).
 The design and implementation of FFTW3.
 https://doi.org/10.1109/JPROC.2004.840301

 C. Hartwigsen, S. Goedecker, J. Hutter.
 Phys. Rev. B 58, 3641-3662 (1998).
 Relativistic separable dual-space Gaussian pseudopotentials from H to Rn.
 https://doi.org/10.1103/PhysRevB.58.3641

 G. Lippert, J. Hutter, M. Parrinello.
 Mol. Phys. 92, 477-487 (1997).
 A hybrid Gaussian and plane wave density functional scheme.
 https://doi.org/10.1080/002689797170220

 S. Goedecker, M. Teter, J. Hutter.
 Phys. Rev. B 54, 1703-1710 (1996).
 Separable dual-space Gaussian pseudopotentials.
 https://doi.org/10.1103/PhysRevB.54.1703

 J. P. Perdew, K. Burke, M. Ernzerhof.
 Phys. Rev. Lett. 77, 3865-3868 (1996).
 Generalized gradient approximation made simple.
 https://doi.org/10.1103/PhysRevLett.77.3865


 -------------------------------------------------------------------------------
 -                                                                             -
 -                                T I M I N G                                  -
 -                                                                             -
 -------------------------------------------------------------------------------
 SUBROUTINE                       CALLS  ASD         SELF TIME        TOTAL TIME
                                MAXIMUM       AVERAGE  MAXIMUM  AVERAGE  MAXIMUM
 CP2K                                 1  1.0    0.017    0.020  741.904  741.904
 qs_energies                          1  2.0    0.025    0.150  741.549  741.675
 scf_env_do_scf                       1  3.0    0.000    0.000  720.413  720.413
 scf_env_do_scf_inner_loop           25  4.0    0.040    0.044  720.413  720.413
 do_general_diag_kp                  26  5.9    0.152    0.195  688.706  697.281
 qs_scf_new_mos_kp                   25  5.0    0.000    0.000  673.149  681.724
 mp_alltoall_i22                  99260  8.7  537.799  660.990  537.799  660.990
 dbcsr_desymmetrize_deep          56424  7.4    0.927    1.444  382.012  468.582
 rskp_transform                   13194  6.9   77.444  413.965   77.444  413.965
 dbcsr_complete_redistribute      42836  8.2    1.577    2.085  175.605  212.354
 kpoint_density_transform            25  7.0    0.077    0.098  204.833  205.540
 copy_fm_to_dbcsr                 12800  8.0    0.076    0.091  165.541  202.035
 transform_dmat                    6400  8.0   36.621  197.417   36.621  197.417
 qs_ks_update_qs_env                 25  5.0    0.000    0.000   11.846   49.616
 rebuild_ks_matrix                   25  6.0    0.000    0.000    9.781   47.551
 qs_ks_build_kohn_sham_matrix        25  7.0    0.076    0.080    9.781   47.550
 sum_up_and_integrate                25  8.0    0.000    0.000    8.965   46.658
 integrate_v_rspace                  25  9.0    0.094    0.504    8.965   46.657
 grid_integrate_task_list            25 10.0    8.626   45.985    8.626   45.985
 transfer_rs2pw                     106  8.0    0.001    0.001   27.122   33.396
 transfer_rs2pw_500                  28  8.9    0.043    0.046   27.089   33.362
 mp_sendrecv_dv                     742 10.0   27.067   33.344   27.067   33.344
 qs_rho_update_rho_low               26  5.0    0.000    0.000   30.911   30.929
 calculate_rho_elec                  26  6.0    0.021    0.059   30.911   30.929
 density_rs2pw                       26  7.0    0.001    0.001   25.107   30.856
 grid_collocate_task_list            26  7.0    5.781   30.552    5.781   30.552
 copy_dbcsr_to_fm                 30036  6.8    0.309    0.357   18.109   18.438
 cp_cfm_geeig_canon                 997  6.4    0.010    0.010    7.504    7.580
 cp_cfm_heevd                      1994  7.4    0.003    0.003    6.835    6.902
 cp_cfm_heevd_base                 1994  8.4    6.832    6.899    6.832    6.899
 mp_alltoall_d11v                297780  9.3    4.769    5.197    4.769    5.197
 cp_fm_start_copy_general         39188  7.3    0.865    1.125    5.045    5.122
 dbcsr_finalize                  128748  8.1    0.630    0.746    4.209    4.534
 dbcsr_create_new                246243  7.9    2.284    3.153    2.457    3.360
 hybrid_alltoall_any              56424  8.4    0.231    0.264    3.107    3.311
 write_kpoints_restart               25  5.0    0.014    0.019    3.202    3.202
 qs_energies_init_hamiltonians        1  3.0    0.000    0.000    3.197    3.197
 dbcsr_merge_all                  42836 10.2    1.694    1.982    2.558    2.824
 mp_allgather_i                   78376  8.3    2.668    2.809    2.668    2.809
 build_core_hamiltonian_matrix        1  4.0    0.007    0.007    0.640    2.741
 qs_env_update_s_mstruct              1  4.0    0.000    0.000    2.208    2.681
 calculate_rho_core                   1  5.0    0.001    0.002    2.111    2.662
 dbcsr_dot                        91201  8.0    0.519    1.277    2.513    2.638
 mp_cart_sub                      60074  8.8    2.499    2.520    2.499    2.520
 mp_sum_d                         91819  9.0    2.070    2.456    2.070    2.456
 cp_dbcsr_alloc_block_from_nbl    12920  5.0    0.360    1.776    0.456    2.225
 evaluate_core_matrix_traces         25  6.0    0.000    0.000    2.065    2.065
 calculate_ptrace_kp                 50  7.0    0.068    0.075    2.065    2.065
 mp_alltoall_i11v                184932  8.9    1.918    2.053    1.918    2.053
 self_consistency_check              25  5.0    0.065    0.070    1.897    2.041
 cp_sm_mix                        45600  6.0    0.193    0.592    1.732    1.920
 init_scf_run                         1  3.0    0.000    0.000    1.771    1.891
 scf_env_initial_rho_setup            1  4.0    0.000    0.000    1.771    1.891
 mp_max_d                         45602  7.0    1.429    1.711    1.429    1.711
 mp_cart_create                   30043  8.8    1.554    1.636    1.554    1.636
 copy_fm_to_dbcsr_bc              12800  9.0    0.177    0.203    0.687    1.372
 cp_fm_write_unformatted           3648  6.0    0.773    1.162    0.904    1.279
 dbcsr_copy                      105824  6.8    0.582    0.715    0.928    1.225
 mp_bcast_iv                     156778  8.3    0.964    1.107    0.964    1.107
 dbcsr_work_create                99260  8.7    0.587    0.636    0.962    1.077
 kpoint_set_mo_occupation            25  7.0    0.846    0.852    0.942    1.001
 dbcsr_iterator_start            409231  8.8    0.771    0.788    0.881    0.933
 build_core_ppl                       1  5.0    0.161    0.826    0.161    0.826
 dbcsr_set                       171469  7.4    0.153    0.165    0.315    0.792
 dbcsr_work_destroy_all           99260  9.7    0.472    0.488    0.749    0.786
 dbcsr_data_new                 1081776  9.6    0.606    0.752    0.606    0.752
 copy_dbcsr_to_fm_bc              30036  7.8    0.320    0.333    0.714    0.734
 tree_to_linear_d                 42836 11.2    0.655    0.729    0.655    0.729
 dbcsr_data_release             1603855 10.0    0.595    0.675    0.595    0.675
 mixing_allocate                      1  3.0    0.010    0.011    0.158    0.670
 calculate_first_density_matrix       1  5.0    0.001    0.001    0.528    0.648
 calculate_atomic_block_dm            1  6.0    0.001    0.001    0.523    0.645
 cp_cfm_gemm                       2991  7.4    0.626    0.634    0.626    0.634
 dbcsr_zero                      171469  8.4    0.162    0.627    0.162    0.627
 kpoint_density_matrices             25  7.0    0.019    0.020    0.565    0.614
 cp_fm_finish_copy_general        16788  7.6    0.522    0.545    0.547    0.585
 parallel_gemm_fm                  3200  8.0    0.003    0.003    0.535    0.584
 parallel_gemm_fm_gemm             3200  9.0    0.003    0.003    0.533    0.581
 dbcsr_iterator_stop             409231  8.8    0.479    0.487    0.566    0.580
 cp_fm_gemm                        3200 10.0    0.530    0.579    0.530    0.579
 fft_wrap_pw1pw2                    455 10.0    0.004    0.004    0.530    0.554
 dbcsr_reserve_blocks             25720  8.5    0.154    0.515    0.169    0.543
 build_kinetic_matrix_low             1  5.0    0.052    0.213    0.122    0.532
 build_overlap_matrix_low             1  5.0    0.050    0.204    0.121    0.523
 dbcsr_destroy                   155043  7.8    0.253    0.278    0.457    0.517
 fft_wrap_pw1pw2_500                302 11.3    0.027    0.028    0.484    0.508
 build_core_ppnl                      1  5.0    0.130    0.480    0.130    0.480
 fft3d_ps                           455 12.0    0.147    0.151    0.451    0.475
 mp_send_dv                        3648  7.0    0.116    0.464    0.116    0.464
 calculate_ecore_overlap              1  4.0    0.000    0.000    0.332    0.410
 dbcsr_copy_into_existing         14624  9.5    0.114    0.256    0.196    0.345
 mp_bcast_im                      78376  8.3    0.298    0.342    0.298    0.342
 qs_env_rebuild_rho                   1  5.0    0.000    0.000    0.078    0.331
 qs_rho_rebuild                       1  6.0    0.005    0.005    0.078    0.331
 quick_finalize                   56424  9.4    0.145    0.189    0.240    0.328
 mp_sum_iv                           24  5.3    0.256    0.315    0.256    0.315
 qs_scf_ensure_work_matrices          1  3.0    0.000    0.000    0.255    0.315
 qs_vxc_create                       25  8.0    0.000    0.000    0.302    0.303
 xc_vxc_pw_create                    25  9.0    0.011    0.011    0.302    0.302
 mp_alltoall_z22v                   455 14.0    0.269    0.296    0.269    0.296
 mp_waitall_1                    163047  8.3    0.144    0.291    0.144    0.291
 potential_pw2rs                     25 10.0    0.001    0.002    0.244    0.267
 mp_comm_free                     90151  8.8    0.213    0.249    0.213    0.249
 gspace_mixing                       24  5.0    0.009    0.009    0.238    0.238
 xc_pw_derive                       150 11.0    0.000    0.000    0.197    0.198
 yz_to_x                            205 12.8    0.011    0.012    0.174    0.197
 broyden_mixing                      24  6.0    0.184    0.189    0.191    0.193
 mp_sum_dm3                          25  8.0    0.096    0.158    0.096    0.158
 xc_rho_set_and_dset_create          25 10.0    0.006    0.007    0.155    0.156
 mp_isend_dv                      39188  8.3    0.144    0.151    0.144    0.151
 dbcsr_iterator_seek             409231  9.8    0.110    0.145    0.110    0.145
 restraint_control                    1  2.0    0.000    0.000    0.125    0.144
 mp_sum_i                             4  2.8    0.125    0.144    0.125    0.144
 dbcsr_sort_indices              124980 10.8    0.074    0.139    0.074    0.139
 dbcsr_make_index_exist          246243  8.9    0.114    0.138    0.114    0.138
 dbcsr_data_copy_aa2              42836 10.9    0.059    0.136    0.059    0.136
 xc_pw_divergence                    25 10.0    0.000    0.000    0.134    0.135
 x_to_yz                            250 13.2    0.021    0.021    0.127    0.131
 dbcsr_reserve_all_blocks         12800 10.0    0.020    0.026    0.098    0.125
 mp_recv_dv                       10944  7.0    0.015    0.117    0.015    0.117
 transfer_pw2rs                     101 11.0    0.001    0.001    0.116    0.116
 parser_read_line                  7109  4.0    0.002    0.003    0.096    0.098
 qs_create_task_list                  1  5.0    0.000    0.000    0.018    0.098
 generate_qs_task_list                1  6.0    0.016    0.082    0.018    0.097
 parser_read_line_low                25  6.1    0.009    0.038    0.094    0.096
 broadcast_input_information         25  7.1    0.029    0.032    0.085    0.091
 merge_index                      42836 11.2    0.087    0.091    0.087    0.091
 transfer_pw2rs_500                  26 11.8    0.046    0.048    0.083    0.084
 mp_irecv_iv                     156752  8.3    0.010    0.081    0.010    0.081
 create_qs_kind_set                   1  2.0    0.000    0.000    0.075    0.075
 read_qs_kind                         1  3.0    0.036    0.039    0.075    0.075
 -------------------------------------------------------------------------------

 The number of warnings for this run is : 1
 
 -------------------------------------------------------------------------------
  **** **** ******  **  PROGRAM ENDED AT                 2025-08-04 21:46:39.244
 ***** ** ***  *** **   PROGRAM RAN ON                              i01r11c03s07
 **    ****   ******    PROGRAM RAN BY                                   di38fab
 ***** **    ** ** **   PROGRAM PROCESS ID                               3466400
  **** **  *******  **  PROGRAM STOPPED IN /hppfs/scratch/04/di38fab/09_GTH/Delt
                                           a_Set/In/aug-DZVP-MOLOPT-GTH-tier-2/8
                                           x8x8
