 DBCSR| CPU Multiplication driver                                           BLAS (U)
 DBCSR| Multrec recursion limit                                              512 (U)
 DBCSR| Multiplication stack size                                           1000 (D)
 DBCSR| Maximum elements for images                                    UNLIMITED (U)
 DBCSR| Multiplicative factor virtual images                                   1 (U)
 DBCSR| Use multiplication densification                                       T (D)
 DBCSR| Multiplication size stacks                                             3 (U)
 DBCSR| Use memory pool for CPU allocation                                     F (U)
 DBCSR| Number of 3D layers                                               SINGLE (U)
 DBCSR| Use MPI memory allocation                                              F (U)
 DBCSR| Use RMA algorithm                                                      F (U)
 DBCSR| Use Communication thread                                               T (U)
 DBCSR| Communication thread load                                             45 (D)
 DBCSR| MPI: My process id                                                     0
 DBCSR| MPI: Number of processes                                              16
 DBCSR| OMP: Current number of threads                                        12
 DBCSR| OMP: Max number of threads                                            12
 DBCSR| Split modifier for TAS multiplication algorithm                  1.0E+00 (U)


  **** **** ******  **  PROGRAM STARTED AT               2025-08-07 23:06:12.888
 ***** ** ***  *** **   PROGRAM STARTED ON                          i04r10c06s03
 **    ****   ******    PROGRAM STARTED BY                               di38fab
 ***** **    ** ** **   PROGRAM PROCESS ID                                672361
  **** **  *******  **  PROGRAM STARTED IN /hppfs/scratch/04/di38fab/09_GTH/Delt
                                           a_Set/Tl/aug-TZVP-MOLOPT-GTH-tier-1/8
                                           x8x8

 CP2K| version string:                 CP2K version 2025.1 (Development Version)
 CP2K| source code revision number:                                  git:3130539
 CP2K| cp2kflags: omp libint fftw3 libxc parallel scalapack max_contr=4         
 CP2K| is freely available from                            https://www.cp2k.org/
 CP2K| Program compiled at                         Tue Jun  3 16:14:32 CEST 2025
 CP2K| Program compiled on                                               login01
 CP2K| Program compiled for                                        Supermuc-foss
 CP2K| Data directory path                  /hppfs/work/pn36zo/di38fab/cp2k/data
 CP2K| Input file name                                                    GW.inp

 GLOBAL| Force Environment number                                              1
 GLOBAL| Basis set file name            /hppfs/scratch/04/di38fab/09_GTH/BASIS_A
 GLOBAL| Potential file name            /hppfs/work/pn36zo/di38fab/cp2k/data/GTH
 GLOBAL| MM Potential file name                                     MM_POTENTIAL
 GLOBAL| Coordinate file name                                             Tl.cif
 GLOBAL| Method name                                                        CP2K
 GLOBAL| Project name                                                       WSe2
 GLOBAL| Run type                                                         ENERGY
 GLOBAL| FFT library                                                       FFTW3
 GLOBAL| Diagonalization library                                       ScaLAPACK
 GLOBAL| Cholesky decomposition library                                ScaLAPACK
 GLOBAL| DGEMM library                                                      BLAS
 GLOBAL| Orthonormality check for eigenvectors                          DISABLED
 GLOBAL| Matrix multiplication library                                 ScaLAPACK
 GLOBAL| All-to-all communication in single precision                          F
 GLOBAL| FFTs using library dependent lengths                                  F
 GLOBAL| Grid backend                                                       AUTO
 GLOBAL| Global print level                                               MEDIUM
 GLOBAL| MPI I/O enabled                                                       T
 GLOBAL| Total number of message passing processes                            16
 GLOBAL| Number of threads for this process                                   12
 GLOBAL| This output is from process                                           0
 GLOBAL| OpenMP stack size per thread (OMP_STACKSIZE)                    default
 GLOBAL| CPU model name             Intel(R) Xeon(R) Platinum 8174 CPU @ 3.10GHz

 MEMORY| system memory details [Kb]
 MEMORY|                        rank 0           min           max       average
 MEMORY| MemTotal             98436664      98436660      98436664      98436662
 MEMORY| MemFree              84464372      84386688      84907092      84576128
 MEMORY| Buffers                     0             0             0             0
 MEMORY| Cached                2395676       2368492       2395676       2380300
 MEMORY| Slab                  1296872       1267092       1297332       1288048
 MEMORY| SReclaimable           283964        275532        285820        281669
 MEMORY| MemLikelyFree        87144012      87051244      87566748      87238097


 *** Fundamental physical constants (SI units) ***

 *** Literature: B. J. Mohr and B. N. Taylor,
 ***             CODATA recommended values of the fundamental physical
 ***             constants: 2006, Web Version 5.1
 ***             http://physics.nist.gov/constants

 Speed of light in vacuum [m/s]                             2.99792458000000E+08
 Magnetic constant or permeability of vacuum [N/A**2]       1.25663706143592E-06
 Electric constant or permittivity of vacuum [F/m]          8.85418781762039E-12
 Planck constant (h) [J*s]                                  6.62606896000000E-34
 Planck constant (h-bar) [J*s]                              1.05457162825177E-34
 Elementary charge [C]                                      1.60217648700000E-19
 Electron mass [kg]                                         9.10938215000000E-31
 Electron g factor [ ]                                     -2.00231930436220E+00
 Proton mass [kg]                                           1.67262163700000E-27
 Fine-structure constant                                    7.29735253760000E-03
 Rydberg constant [1/m]                                     1.09737315685270E+07
 Avogadro constant [1/mol]                                  6.02214179000000E+23
 Boltzmann constant [J/K]                                   1.38065040000000E-23
 Atomic mass unit [kg]                                      1.66053878200000E-27
 Bohr radius [m]                                            5.29177208590000E-11

 *** Conversion factors ***

 [u] -> [a.u.]                                              1.82288848426455E+03
 [Angstrom] -> [Bohr] = [a.u.]                              1.88972613288564E+00
 [a.u.] = [Bohr] -> [Angstrom]                              5.29177208590000E-01
 [a.u.] -> [s]                                              2.41888432650478E-17
 [a.u.] -> [fs]                                             2.41888432650478E-02
 [a.u.] -> [J]                                              4.35974393937059E-18
 [a.u.] -> [N]                                              8.23872205491840E-08
 [a.u.] -> [K]                                              3.15774647902944E+05
 [a.u.] -> [kJ/mol]                                         2.62549961709828E+03
 [a.u.] -> [kcal/mol]                                       6.27509468713739E+02
 [a.u.] -> [Pa]                                             2.94210107994716E+13
 [a.u.] -> [bar]                                            2.94210107994716E+08
 [a.u.] -> [atm]                                            2.90362800883016E+08
 [a.u.] -> [eV]                                             2.72113838565563E+01
 [a.u.] -> [Hz]                                             6.57968392072181E+15
 [a.u.] -> [1/cm] (wave numbers)                            2.19474631370540E+05
 [a.u./Bohr**2] -> [1/cm]                                   5.14048714338585E+03
 

 CELL_TOP| Volume [angstrom^3]:                                        63.061676
 CELL_TOP| Vector a [angstrom     3.593     0.000     0.000   |a| =     3.592550
 CELL_TOP| Vector b [angstrom     1.796     3.111     0.000   |b| =     3.592550
 CELL_TOP| Vector c [angstrom     0.000     0.000     5.642   |c| =     5.641950
 CELL_TOP| Angle (b,c), alpha [degree]:                                90.000000
 CELL_TOP| Angle (a,c), beta  [degree]:                                90.000000
 CELL_TOP| Angle (a,b), gamma [degree]:                                60.000000
 CELL_TOP| Numerically orthorhombic:                                          NO
 CELL_TOP| Periodicity                                                       XYZ

 CELL_CIF| Volume [angstrom^3]:                                        63.061676
 CELL_CIF| Vector a [angstrom     3.593     0.000     0.000   |a| =     3.592550
 CELL_CIF| Vector b [angstrom     1.796     3.111     0.000   |b| =     3.592550
 CELL_CIF| Vector c [angstrom     0.000     0.000     5.642   |c| =     5.641950
 CELL_CIF| Angle (b,c), alpha [degree]:                                90.000000
 CELL_CIF| Angle (a,c), beta  [degree]:                                90.000000
 CELL_CIF| Angle (a,b), gamma [degree]:                                60.000000
 CELL_CIF| Numerically orthorhombic:                                          NO
 CELL_CIF| Periodicity                                                       XYZ

 GENERATE|  Preliminary Number of Bonds generated:                             0
 GENERATE|  Achieved consistency in connectivity generation.

 CELL| Volume [angstrom^3]:                                            63.061676
 CELL| Vector a [angstrom]:       3.593     0.000     0.000   |a| =     3.592550
 CELL| Vector b [angstrom]:       1.796     3.111     0.000   |b| =     3.592550
 CELL| Vector c [angstrom]:       0.000     0.000     5.642   |c| =     5.641950
 CELL| Angle (b,c), alpha [degree]:                                    90.000000
 CELL| Angle (a,c), beta  [degree]:                                    90.000000
 CELL| Angle (a,b), gamma [degree]:                                    60.000000
 CELL| Numerically orthorhombic:                                              NO
 CELL| Periodicity                                                           XYZ

 CELL_REF| Volume [angstrom^3]:                                        63.061676
 CELL_REF| Vector a [angstrom     3.593     0.000     0.000   |a| =     3.592550
 CELL_REF| Vector b [angstrom     1.796     3.111     0.000   |b| =     3.592550
 CELL_REF| Vector c [angstrom     0.000     0.000     5.642   |c| =     5.641950
 CELL_REF| Angle (b,c), alpha [degree]:                                90.000000
 CELL_REF| Angle (a,c), beta  [degree]:                                90.000000
 CELL_REF| Angle (a,b), gamma [degree]:                                60.000000
 CELL_REF| Numerically orthorhombic:                                          NO
 CELL_REF| Periodicity                                                       XYZ

 *** WARNING in cryssym.F:180 :: Symmetry library SPGLIB not available ***


 *******************************************************************************
                                    Kpoints
 *******************************************************************************
 BRILLOUIN| K-point scheme                                        Monkhorst-Pack
 BRILLOUIN| K-Point grid                                             8    8    8
 BRILLOUIN| Accuracy in Symmetry determination                      0.100000E-05
 BRILLOUIN| K-Point point group symmetrization                               OFF
 BRILLOUIN| Wavefunction type                                            COMPLEX
 BRILLOUIN| List of Kpoints [2 Pi/Bohr]                                      256
 BRILLOUIN| Number           Weight            X              Y              Z
 BRILLOUIN|     1           0.00391       -0.43750       -0.43750       -0.43750
 BRILLOUIN|     2           0.00391       -0.43750       -0.43750       -0.31250
 BRILLOUIN|     3           0.00391       -0.43750       -0.43750       -0.18750
 BRILLOUIN|     4           0.00391       -0.43750       -0.43750       -0.06250
 BRILLOUIN|     5           0.00391       -0.43750       -0.43750        0.06250
 BRILLOUIN|     6           0.00391       -0.43750       -0.43750        0.18750
 BRILLOUIN|     7           0.00391       -0.43750       -0.43750        0.31250
 BRILLOUIN|     8           0.00391       -0.43750       -0.43750        0.43750
 BRILLOUIN|     9           0.00391       -0.43750       -0.31250       -0.43750
 BRILLOUIN|    10           0.00391       -0.43750       -0.31250       -0.31250
 BRILLOUIN|    11           0.00391       -0.43750       -0.31250       -0.18750
 BRILLOUIN|    12           0.00391       -0.43750       -0.31250       -0.06250
 BRILLOUIN|    13           0.00391       -0.43750       -0.31250        0.06250
 BRILLOUIN|    14           0.00391       -0.43750       -0.31250        0.18750
 BRILLOUIN|    15           0.00391       -0.43750       -0.31250        0.31250
 BRILLOUIN|    16           0.00391       -0.43750       -0.31250        0.43750
 BRILLOUIN|    17           0.00391       -0.43750       -0.18750       -0.43750
 BRILLOUIN|    18           0.00391       -0.43750       -0.18750       -0.31250
 BRILLOUIN|    19           0.00391       -0.43750       -0.18750       -0.18750
 BRILLOUIN|    20           0.00391       -0.43750       -0.18750       -0.06250
 BRILLOUIN|    21           0.00391       -0.43750       -0.18750        0.06250
 BRILLOUIN|    22           0.00391       -0.43750       -0.18750        0.18750
 BRILLOUIN|    23           0.00391       -0.43750       -0.18750        0.31250
 BRILLOUIN|    24           0.00391       -0.43750       -0.18750        0.43750
 BRILLOUIN|    25           0.00391       -0.43750       -0.06250       -0.43750
 BRILLOUIN|    26           0.00391       -0.43750       -0.06250       -0.31250
 BRILLOUIN|    27           0.00391       -0.43750       -0.06250       -0.18750
 BRILLOUIN|    28           0.00391       -0.43750       -0.06250       -0.06250
 BRILLOUIN|    29           0.00391       -0.43750       -0.06250        0.06250
 BRILLOUIN|    30           0.00391       -0.43750       -0.06250        0.18750
 BRILLOUIN|    31           0.00391       -0.43750       -0.06250        0.31250
 BRILLOUIN|    32           0.00391       -0.43750       -0.06250        0.43750
 BRILLOUIN|    33           0.00391       -0.43750        0.06250       -0.43750
 BRILLOUIN|    34           0.00391       -0.43750        0.06250       -0.31250
 BRILLOUIN|    35           0.00391       -0.43750        0.06250       -0.18750
 BRILLOUIN|    36           0.00391       -0.43750        0.06250       -0.06250
 BRILLOUIN|    37           0.00391       -0.43750        0.06250        0.06250
 BRILLOUIN|    38           0.00391       -0.43750        0.06250        0.18750
 BRILLOUIN|    39           0.00391       -0.43750        0.06250        0.31250
 BRILLOUIN|    40           0.00391       -0.43750        0.06250        0.43750
 BRILLOUIN|    41           0.00391       -0.43750        0.18750       -0.43750
 BRILLOUIN|    42           0.00391       -0.43750        0.18750       -0.31250
 BRILLOUIN|    43           0.00391       -0.43750        0.18750       -0.18750
 BRILLOUIN|    44           0.00391       -0.43750        0.18750       -0.06250
 BRILLOUIN|    45           0.00391       -0.43750        0.18750        0.06250
 BRILLOUIN|    46           0.00391       -0.43750        0.18750        0.18750
 BRILLOUIN|    47           0.00391       -0.43750        0.18750        0.31250
 BRILLOUIN|    48           0.00391       -0.43750        0.18750        0.43750
 BRILLOUIN|    49           0.00391       -0.43750        0.31250       -0.43750
 BRILLOUIN|    50           0.00391       -0.43750        0.31250       -0.31250
 BRILLOUIN|    51           0.00391       -0.43750        0.31250       -0.18750
 BRILLOUIN|    52           0.00391       -0.43750        0.31250       -0.06250
 BRILLOUIN|    53           0.00391       -0.43750        0.31250        0.06250
 BRILLOUIN|    54           0.00391       -0.43750        0.31250        0.18750
 BRILLOUIN|    55           0.00391       -0.43750        0.31250        0.31250
 BRILLOUIN|    56           0.00391       -0.43750        0.31250        0.43750
 BRILLOUIN|    57           0.00391       -0.43750        0.43750       -0.43750
 BRILLOUIN|    58           0.00391       -0.43750        0.43750       -0.31250
 BRILLOUIN|    59           0.00391       -0.43750        0.43750       -0.18750
 BRILLOUIN|    60           0.00391       -0.43750        0.43750       -0.06250
 BRILLOUIN|    61           0.00391       -0.43750        0.43750        0.06250
 BRILLOUIN|    62           0.00391       -0.43750        0.43750        0.18750
 BRILLOUIN|    63           0.00391       -0.43750        0.43750        0.31250
 BRILLOUIN|    64           0.00391       -0.43750        0.43750        0.43750
 BRILLOUIN|    65           0.00391       -0.31250       -0.43750       -0.43750
 BRILLOUIN|    66           0.00391       -0.31250       -0.43750       -0.31250
 BRILLOUIN|    67           0.00391       -0.31250       -0.43750       -0.18750
 BRILLOUIN|    68           0.00391       -0.31250       -0.43750       -0.06250
 BRILLOUIN|    69           0.00391       -0.31250       -0.43750        0.06250
 BRILLOUIN|    70           0.00391       -0.31250       -0.43750        0.18750
 BRILLOUIN|    71           0.00391       -0.31250       -0.43750        0.31250
 BRILLOUIN|    72           0.00391       -0.31250       -0.43750        0.43750
 BRILLOUIN|    73           0.00391       -0.31250       -0.31250       -0.43750
 BRILLOUIN|    74           0.00391       -0.31250       -0.31250       -0.31250
 BRILLOUIN|    75           0.00391       -0.31250       -0.31250       -0.18750
 BRILLOUIN|    76           0.00391       -0.31250       -0.31250       -0.06250
 BRILLOUIN|    77           0.00391       -0.31250       -0.31250        0.06250
 BRILLOUIN|    78           0.00391       -0.31250       -0.31250        0.18750
 BRILLOUIN|    79           0.00391       -0.31250       -0.31250        0.31250
 BRILLOUIN|    80           0.00391       -0.31250       -0.31250        0.43750
 BRILLOUIN|    81           0.00391       -0.31250       -0.18750       -0.43750
 BRILLOUIN|    82           0.00391       -0.31250       -0.18750       -0.31250
 BRILLOUIN|    83           0.00391       -0.31250       -0.18750       -0.18750
 BRILLOUIN|    84           0.00391       -0.31250       -0.18750       -0.06250
 BRILLOUIN|    85           0.00391       -0.31250       -0.18750        0.06250
 BRILLOUIN|    86           0.00391       -0.31250       -0.18750        0.18750
 BRILLOUIN|    87           0.00391       -0.31250       -0.18750        0.31250
 BRILLOUIN|    88           0.00391       -0.31250       -0.18750        0.43750
 BRILLOUIN|    89           0.00391       -0.31250       -0.06250       -0.43750
 BRILLOUIN|    90           0.00391       -0.31250       -0.06250       -0.31250
 BRILLOUIN|    91           0.00391       -0.31250       -0.06250       -0.18750
 BRILLOUIN|    92           0.00391       -0.31250       -0.06250       -0.06250
 BRILLOUIN|    93           0.00391       -0.31250       -0.06250        0.06250
 BRILLOUIN|    94           0.00391       -0.31250       -0.06250        0.18750
 BRILLOUIN|    95           0.00391       -0.31250       -0.06250        0.31250
 BRILLOUIN|    96           0.00391       -0.31250       -0.06250        0.43750
 BRILLOUIN|    97           0.00391       -0.31250        0.06250       -0.43750
 BRILLOUIN|    98           0.00391       -0.31250        0.06250       -0.31250
 BRILLOUIN|    99           0.00391       -0.31250        0.06250       -0.18750
 BRILLOUIN|   100           0.00391       -0.31250        0.06250       -0.06250
 BRILLOUIN|   101           0.00391       -0.31250        0.06250        0.06250
 BRILLOUIN|   102           0.00391       -0.31250        0.06250        0.18750
 BRILLOUIN|   103           0.00391       -0.31250        0.06250        0.31250
 BRILLOUIN|   104           0.00391       -0.31250        0.06250        0.43750
 BRILLOUIN|   105           0.00391       -0.31250        0.18750       -0.43750
 BRILLOUIN|   106           0.00391       -0.31250        0.18750       -0.31250
 BRILLOUIN|   107           0.00391       -0.31250        0.18750       -0.18750
 BRILLOUIN|   108           0.00391       -0.31250        0.18750       -0.06250
 BRILLOUIN|   109           0.00391       -0.31250        0.18750        0.06250
 BRILLOUIN|   110           0.00391       -0.31250        0.18750        0.18750
 BRILLOUIN|   111           0.00391       -0.31250        0.18750        0.31250
 BRILLOUIN|   112           0.00391       -0.31250        0.18750        0.43750
 BRILLOUIN|   113           0.00391       -0.31250        0.31250       -0.43750
 BRILLOUIN|   114           0.00391       -0.31250        0.31250       -0.31250
 BRILLOUIN|   115           0.00391       -0.31250        0.31250       -0.18750
 BRILLOUIN|   116           0.00391       -0.31250        0.31250       -0.06250
 BRILLOUIN|   117           0.00391       -0.31250        0.31250        0.06250
 BRILLOUIN|   118           0.00391       -0.31250        0.31250        0.18750
 BRILLOUIN|   119           0.00391       -0.31250        0.31250        0.31250
 BRILLOUIN|   120           0.00391       -0.31250        0.31250        0.43750
 BRILLOUIN|   121           0.00391       -0.31250        0.43750       -0.43750
 BRILLOUIN|   122           0.00391       -0.31250        0.43750       -0.31250
 BRILLOUIN|   123           0.00391       -0.31250        0.43750       -0.18750
 BRILLOUIN|   124           0.00391       -0.31250        0.43750       -0.06250
 BRILLOUIN|   125           0.00391       -0.31250        0.43750        0.06250
 BRILLOUIN|   126           0.00391       -0.31250        0.43750        0.18750
 BRILLOUIN|   127           0.00391       -0.31250        0.43750        0.31250
 BRILLOUIN|   128           0.00391       -0.31250        0.43750        0.43750
 BRILLOUIN|   129           0.00391       -0.18750       -0.43750       -0.43750
 BRILLOUIN|   130           0.00391       -0.18750       -0.43750       -0.31250
 BRILLOUIN|   131           0.00391       -0.18750       -0.43750       -0.18750
 BRILLOUIN|   132           0.00391       -0.18750       -0.43750       -0.06250
 BRILLOUIN|   133           0.00391       -0.18750       -0.43750        0.06250
 BRILLOUIN|   134           0.00391       -0.18750       -0.43750        0.18750
 BRILLOUIN|   135           0.00391       -0.18750       -0.43750        0.31250
 BRILLOUIN|   136           0.00391       -0.18750       -0.43750        0.43750
 BRILLOUIN|   137           0.00391       -0.18750       -0.31250       -0.43750
 BRILLOUIN|   138           0.00391       -0.18750       -0.31250       -0.31250
 BRILLOUIN|   139           0.00391       -0.18750       -0.31250       -0.18750
 BRILLOUIN|   140           0.00391       -0.18750       -0.31250       -0.06250
 BRILLOUIN|   141           0.00391       -0.18750       -0.31250        0.06250
 BRILLOUIN|   142           0.00391       -0.18750       -0.31250        0.18750
 BRILLOUIN|   143           0.00391       -0.18750       -0.31250        0.31250
 BRILLOUIN|   144           0.00391       -0.18750       -0.31250        0.43750
 BRILLOUIN|   145           0.00391       -0.18750       -0.18750       -0.43750
 BRILLOUIN|   146           0.00391       -0.18750       -0.18750       -0.31250
 BRILLOUIN|   147           0.00391       -0.18750       -0.18750       -0.18750
 BRILLOUIN|   148           0.00391       -0.18750       -0.18750       -0.06250
 BRILLOUIN|   149           0.00391       -0.18750       -0.18750        0.06250
 BRILLOUIN|   150           0.00391       -0.18750       -0.18750        0.18750
 BRILLOUIN|   151           0.00391       -0.18750       -0.18750        0.31250
 BRILLOUIN|   152           0.00391       -0.18750       -0.18750        0.43750
 BRILLOUIN|   153           0.00391       -0.18750       -0.06250       -0.43750
 BRILLOUIN|   154           0.00391       -0.18750       -0.06250       -0.31250
 BRILLOUIN|   155           0.00391       -0.18750       -0.06250       -0.18750
 BRILLOUIN|   156           0.00391       -0.18750       -0.06250       -0.06250
 BRILLOUIN|   157           0.00391       -0.18750       -0.06250        0.06250
 BRILLOUIN|   158           0.00391       -0.18750       -0.06250        0.18750
 BRILLOUIN|   159           0.00391       -0.18750       -0.06250        0.31250
 BRILLOUIN|   160           0.00391       -0.18750       -0.06250        0.43750
 BRILLOUIN|   161           0.00391       -0.18750        0.06250       -0.43750
 BRILLOUIN|   162           0.00391       -0.18750        0.06250       -0.31250
 BRILLOUIN|   163           0.00391       -0.18750        0.06250       -0.18750
 BRILLOUIN|   164           0.00391       -0.18750        0.06250       -0.06250
 BRILLOUIN|   165           0.00391       -0.18750        0.06250        0.06250
 BRILLOUIN|   166           0.00391       -0.18750        0.06250        0.18750
 BRILLOUIN|   167           0.00391       -0.18750        0.06250        0.31250
 BRILLOUIN|   168           0.00391       -0.18750        0.06250        0.43750
 BRILLOUIN|   169           0.00391       -0.18750        0.18750       -0.43750
 BRILLOUIN|   170           0.00391       -0.18750        0.18750       -0.31250
 BRILLOUIN|   171           0.00391       -0.18750        0.18750       -0.18750
 BRILLOUIN|   172           0.00391       -0.18750        0.18750       -0.06250
 BRILLOUIN|   173           0.00391       -0.18750        0.18750        0.06250
 BRILLOUIN|   174           0.00391       -0.18750        0.18750        0.18750
 BRILLOUIN|   175           0.00391       -0.18750        0.18750        0.31250
 BRILLOUIN|   176           0.00391       -0.18750        0.18750        0.43750
 BRILLOUIN|   177           0.00391       -0.18750        0.31250       -0.43750
 BRILLOUIN|   178           0.00391       -0.18750        0.31250       -0.31250
 BRILLOUIN|   179           0.00391       -0.18750        0.31250       -0.18750
 BRILLOUIN|   180           0.00391       -0.18750        0.31250       -0.06250
 BRILLOUIN|   181           0.00391       -0.18750        0.31250        0.06250
 BRILLOUIN|   182           0.00391       -0.18750        0.31250        0.18750
 BRILLOUIN|   183           0.00391       -0.18750        0.31250        0.31250
 BRILLOUIN|   184           0.00391       -0.18750        0.31250        0.43750
 BRILLOUIN|   185           0.00391       -0.18750        0.43750       -0.43750
 BRILLOUIN|   186           0.00391       -0.18750        0.43750       -0.31250
 BRILLOUIN|   187           0.00391       -0.18750        0.43750       -0.18750
 BRILLOUIN|   188           0.00391       -0.18750        0.43750       -0.06250
 BRILLOUIN|   189           0.00391       -0.18750        0.43750        0.06250
 BRILLOUIN|   190           0.00391       -0.18750        0.43750        0.18750
 BRILLOUIN|   191           0.00391       -0.18750        0.43750        0.31250
 BRILLOUIN|   192           0.00391       -0.18750        0.43750        0.43750
 BRILLOUIN|   193           0.00391       -0.06250       -0.43750       -0.43750
 BRILLOUIN|   194           0.00391       -0.06250       -0.43750       -0.31250
 BRILLOUIN|   195           0.00391       -0.06250       -0.43750       -0.18750
 BRILLOUIN|   196           0.00391       -0.06250       -0.43750       -0.06250
 BRILLOUIN|   197           0.00391       -0.06250       -0.43750        0.06250
 BRILLOUIN|   198           0.00391       -0.06250       -0.43750        0.18750
 BRILLOUIN|   199           0.00391       -0.06250       -0.43750        0.31250
 BRILLOUIN|   200           0.00391       -0.06250       -0.43750        0.43750
 BRILLOUIN|   201           0.00391       -0.06250       -0.31250       -0.43750
 BRILLOUIN|   202           0.00391       -0.06250       -0.31250       -0.31250
 BRILLOUIN|   203           0.00391       -0.06250       -0.31250       -0.18750
 BRILLOUIN|   204           0.00391       -0.06250       -0.31250       -0.06250
 BRILLOUIN|   205           0.00391       -0.06250       -0.31250        0.06250
 BRILLOUIN|   206           0.00391       -0.06250       -0.31250        0.18750
 BRILLOUIN|   207           0.00391       -0.06250       -0.31250        0.31250
 BRILLOUIN|   208           0.00391       -0.06250       -0.31250        0.43750
 BRILLOUIN|   209           0.00391       -0.06250       -0.18750       -0.43750
 BRILLOUIN|   210           0.00391       -0.06250       -0.18750       -0.31250
 BRILLOUIN|   211           0.00391       -0.06250       -0.18750       -0.18750
 BRILLOUIN|   212           0.00391       -0.06250       -0.18750       -0.06250
 BRILLOUIN|   213           0.00391       -0.06250       -0.18750        0.06250
 BRILLOUIN|   214           0.00391       -0.06250       -0.18750        0.18750
 BRILLOUIN|   215           0.00391       -0.06250       -0.18750        0.31250
 BRILLOUIN|   216           0.00391       -0.06250       -0.18750        0.43750
 BRILLOUIN|   217           0.00391       -0.06250       -0.06250       -0.43750
 BRILLOUIN|   218           0.00391       -0.06250       -0.06250       -0.31250
 BRILLOUIN|   219           0.00391       -0.06250       -0.06250       -0.18750
 BRILLOUIN|   220           0.00391       -0.06250       -0.06250       -0.06250
 BRILLOUIN|   221           0.00391       -0.06250       -0.06250        0.06250
 BRILLOUIN|   222           0.00391       -0.06250       -0.06250        0.18750
 BRILLOUIN|   223           0.00391       -0.06250       -0.06250        0.31250
 BRILLOUIN|   224           0.00391       -0.06250       -0.06250        0.43750
 BRILLOUIN|   225           0.00391       -0.06250        0.06250       -0.43750
 BRILLOUIN|   226           0.00391       -0.06250        0.06250       -0.31250
 BRILLOUIN|   227           0.00391       -0.06250        0.06250       -0.18750
 BRILLOUIN|   228           0.00391       -0.06250        0.06250       -0.06250
 BRILLOUIN|   229           0.00391       -0.06250        0.06250        0.06250
 BRILLOUIN|   230           0.00391       -0.06250        0.06250        0.18750
 BRILLOUIN|   231           0.00391       -0.06250        0.06250        0.31250
 BRILLOUIN|   232           0.00391       -0.06250        0.06250        0.43750
 BRILLOUIN|   233           0.00391       -0.06250        0.18750       -0.43750
 BRILLOUIN|   234           0.00391       -0.06250        0.18750       -0.31250
 BRILLOUIN|   235           0.00391       -0.06250        0.18750       -0.18750
 BRILLOUIN|   236           0.00391       -0.06250        0.18750       -0.06250
 BRILLOUIN|   237           0.00391       -0.06250        0.18750        0.06250
 BRILLOUIN|   238           0.00391       -0.06250        0.18750        0.18750
 BRILLOUIN|   239           0.00391       -0.06250        0.18750        0.31250
 BRILLOUIN|   240           0.00391       -0.06250        0.18750        0.43750
 BRILLOUIN|   241           0.00391       -0.06250        0.31250       -0.43750
 BRILLOUIN|   242           0.00391       -0.06250        0.31250       -0.31250
 BRILLOUIN|   243           0.00391       -0.06250        0.31250       -0.18750
 BRILLOUIN|   244           0.00391       -0.06250        0.31250       -0.06250
 BRILLOUIN|   245           0.00391       -0.06250        0.31250        0.06250
 BRILLOUIN|   246           0.00391       -0.06250        0.31250        0.18750
 BRILLOUIN|   247           0.00391       -0.06250        0.31250        0.31250
 BRILLOUIN|   248           0.00391       -0.06250        0.31250        0.43750
 BRILLOUIN|   249           0.00391       -0.06250        0.43750       -0.43750
 BRILLOUIN|   250           0.00391       -0.06250        0.43750       -0.31250
 BRILLOUIN|   251           0.00391       -0.06250        0.43750       -0.18750
 BRILLOUIN|   252           0.00391       -0.06250        0.43750       -0.06250
 BRILLOUIN|   253           0.00391       -0.06250        0.43750        0.06250
 BRILLOUIN|   254           0.00391       -0.06250        0.43750        0.18750
 BRILLOUIN|   255           0.00391       -0.06250        0.43750        0.31250
 BRILLOUIN|   256           0.00391       -0.06250        0.43750        0.43750
 *******************************************************************************

 *******************************************************************************
 *******************************************************************************
 **                                                                           **
 **     #####                         ##              ##                      **
 **    ##   ##            ##          ##              ##                      **
 **   ##     ##                       ##            ######                    **
 **   ##     ##  ##   ##  ##   #####  ##  ##   ####   ##    #####    #####    **
 **   ##     ##  ##   ##  ##  ##      ## ##   ##      ##   ##   ##  ##   ##   **
 **   ##  ## ##  ##   ##  ##  ##      ####     ###    ##   ######   ######    **
 **    ##  ###   ##   ##  ##  ##      ## ##      ##   ##   ##       ##        **
 **     #######   #####   ##   #####  ##  ##  ####    ##    #####   ##        **
 **           ##                                                    ##        **
 **                                                                           **
 **                                                ... make the atoms dance   **
 **                                                                           **
 **            Copyright (C) by CP2K developers group (2000-2025)             **
 **                      J. Chem. Phys. 152, 194103 (2020)                    **
 **                                                                           **
 *******************************************************************************

 DFT| Spin restricted Kohn-Sham (RKS) calculation                            RKS
 DFT| Multiplicity                                                             1
 DFT| Number of spin states                                                    1
 DFT| Charge                                                                   0
 DFT| Self-interaction correction (SIC)                                       NO
 DFT| Cutoffs: density                                              1.000000E-10
 DFT|          gradient                                             1.000000E-10
 DFT|          tau                                                  1.000000E-10
 DFT|          cutoff_smoothing_range                               0.000000E+00
 DFT| XC density smoothing                                                  NONE
 DFT| XC derivatives                                                          PW

 FUNCTIONAL| PBE:
 FUNCTIONAL| J.P.Perdew, K.Burke, M.Ernzerhof, Phys. Rev. Letter, vol. 77, n 18,
 FUNCTIONAL|  pp. 3865-3868, (1996) {spin unpolarized}                          


 QS| Method:                                                                 GPW
 QS| Density plane wave grid type                        NON-SPHERICAL FULLSPACE
 QS| Number of grid levels:                                                    4
 QS| Density cutoff [a.u.]:                                                500.0
 QS| Multi grid cutoff [a.u.]: 1) grid level                               500.0
 QS|                           2) grid level                               166.7
 QS|                           3) grid level                                55.6
 QS|                           4) grid level                                18.5
 QS| Grid level progression factor:                                          3.0
 QS| Relative density cutoff [a.u.]:                                        50.0
 QS| Interaction thresholds: eps_pgf_orb:                                1.0E-16
 QS|                         eps_filter_matrix:                          0.0E+00
 QS|                         eps_core_charge:                            1.0E-18
 QS|                         eps_rho_gspace:                             1.0E-16
 QS|                         eps_rho_rspace:                             1.0E-16
 QS|                         eps_gvg_rspace:                             1.0E-08
 QS|                         eps_ppl:                                    1.0E-02
 QS|                         eps_ppnl:                                   1.0E-10


 ATOMIC KIND INFORMATION

  1. Atomic kind: Tl                                    Number of atoms:       2

     Orbital Basis Set                                aug-TZVP-MOLOPT-GTH-tier-1

       Number of orbital shell sets:                                           1
       Number of orbital shells:                                              15
       Number of primitive Cartesian functions:                                7
       Number of Cartesian basis functions:                                   70
       Number of spherical basis functions:                                   57
       Norm type:                                                              2

       Normalised Cartesian orbitals:

                        Set   Shell   Orbital            Exponent    Coefficient

                          1       1    2s                0.046384      -0.038045
                                                         0.078880       0.000000
                                                         0.134144      -0.091911
                                                         0.339070       0.007195
                                                         0.847552       0.069547
                                                         2.234155       0.156375
                                                         2.490697      -0.161422

                          1       2    3s                0.046384       0.090957
                                                         0.078880       0.000000
                                                         0.134144      -0.140414
                                                         0.339070      -0.495053
                                                         0.847552       1.111918
                                                         2.234155      -0.141405
                                                         2.490697      -0.226070

                          1       3    4s                0.046384       0.101834
                                                         0.078880       0.000000
                                                         0.134144      -0.229596
                                                         0.339070       0.231301
                                                         0.847552      -0.694787
                                                         2.234155       0.276879
                                                         2.490697       0.028012

                          1       4    5s                0.046384      -0.009292
                                                         0.078880       0.002600
                                                         0.134144       0.010627
                                                         0.339070       0.337865
                                                         0.847552       0.024742
                                                         2.234155      -0.325496
                                                         2.490697       0.046397

                          1       5    3px               0.046384       0.017069
                                                         0.078880       0.000000
                                                         0.134144       0.057967
                                                         0.339070       0.032000
                                                         0.847552      -0.152465
                                                         2.234155       0.507949
                                                         2.490697      -0.413827
                          1       5    3py               0.046384       0.017069
                                                         0.078880       0.000000
                                                         0.134144       0.057967
                                                         0.339070       0.032000
                                                         0.847552      -0.152465
                                                         2.234155       0.507949
                                                         2.490697      -0.413827
                          1       5    3pz               0.046384       0.017069
                                                         0.078880       0.000000
                                                         0.134144       0.057967
                                                         0.339070       0.032000
                                                         0.847552      -0.152465
                                                         2.234155       0.507949
                                                         2.490697      -0.413827

                          1       6    4px               0.046384      -0.032233
                                                         0.078880       0.000000
                                                         0.134144       0.079557
                                                         0.339070       0.329810
                                                         0.847552      -0.755519
                                                         2.234155       1.606567
                                                         2.490697      -1.098699
                          1       6    4py               0.046384      -0.032233
                                                         0.078880       0.000000
                                                         0.134144       0.079557
                                                         0.339070       0.329810
                                                         0.847552      -0.755519
                                                         2.234155       1.606567
                                                         2.490697      -1.098699
                          1       6    4pz               0.046384      -0.032233
                                                         0.078880       0.000000
                                                         0.134144       0.079557
                                                         0.339070       0.329810
                                                         0.847552      -0.755519
                                                         2.234155       1.606567
                                                         2.490697      -1.098699

                          1       7    5px               0.046384       0.020536
                                                         0.078880       0.000000
                                                         0.134144      -0.142739
                                                         0.339070       0.504370
                                                         0.847552       0.203332
                                                         2.234155       2.603888
                                                         2.490697      -3.015286
                          1       7    5py               0.046384       0.020536
                                                         0.078880       0.000000
                                                         0.134144      -0.142739
                                                         0.339070       0.504370
                                                         0.847552       0.203332
                                                         2.234155       2.603888
                                                         2.490697      -3.015286
                          1       7    5pz               0.046384       0.020536
                                                         0.078880       0.000000
                                                         0.134144      -0.142739
                                                         0.339070       0.504370
                                                         0.847552       0.203332
                                                         2.234155       2.603888
                                                         2.490697      -3.015286

                          1       8    6px               0.046384      -0.098007
                                                         0.078880       0.237711
                                                         0.134144      -0.106433
                                                         0.339070      -0.239662
                                                         0.847552       0.031137
                                                         2.234155       0.047708
                                                         2.490697       0.044110
                          1       8    6py               0.046384      -0.098007
                                                         0.078880       0.237711
                                                         0.134144      -0.106433
                                                         0.339070      -0.239662
                                                         0.847552       0.031137
                                                         2.234155       0.047708
                                                         2.490697       0.044110
                          1       8    6pz               0.046384      -0.098007
                                                         0.078880       0.237711
                                                         0.134144      -0.106433
                                                         0.339070      -0.239662
                                                         0.847552       0.031137
                                                         2.234155       0.047708
                                                         2.490697       0.044110

                          1       9    4dx2              0.046384      -0.001778
                                                         0.078880       0.000000
                                                         0.134144      -0.004609
                                                         0.339070       0.035250
                                                         0.847552       0.767296
                                                         2.234155       6.372341
                                                         2.490697      -5.019076
                          1       9    4dxy              0.046384      -0.003079
                                                         0.078880       0.000000
                                                         0.134144      -0.007983
                                                         0.339070       0.061054
                                                         0.847552       1.328995
                                                         2.234155      11.037219
                                                         2.490697      -8.693295
                          1       9    4dxz              0.046384      -0.003079
                                                         0.078880       0.000000
                                                         0.134144      -0.007983
                                                         0.339070       0.061054
                                                         0.847552       1.328995
                                                         2.234155      11.037219
                                                         2.490697      -8.693295
                          1       9    4dy2              0.046384      -0.001778
                                                         0.078880       0.000000
                                                         0.134144      -0.004609
                                                         0.339070       0.035250
                                                         0.847552       0.767296
                                                         2.234155       6.372341
                                                         2.490697      -5.019076
                          1       9    4dyz              0.046384      -0.003079
                                                         0.078880       0.000000
                                                         0.134144      -0.007983
                                                         0.339070       0.061054
                                                         0.847552       1.328995
                                                         2.234155      11.037219
                                                         2.490697      -8.693295
                          1       9    4dz2              0.046384      -0.001778
                                                         0.078880       0.000000
                                                         0.134144      -0.004609
                                                         0.339070       0.035250
                                                         0.847552       0.767296
                                                         2.234155       6.372341
                                                         2.490697      -5.019076

                          1      10    5dx2              0.046384       0.004182
                                                         0.078880       0.000000
                                                         0.134144       0.017123
                                                         0.339070       0.095731
                                                         0.847552      -0.187104
                                                         2.234155       0.932287
                                                         2.490697      -0.904942
                          1      10    5dxy              0.046384       0.007244
                                                         0.078880       0.000000
                                                         0.134144       0.029658
                                                         0.339070       0.165811
                                                         0.847552      -0.324073
                                                         2.234155       1.614768
                                                         2.490697      -1.567406
                          1      10    5dxz              0.046384       0.007244
                                                         0.078880       0.000000
                                                         0.134144       0.029658
                                                         0.339070       0.165811
                                                         0.847552      -0.324073
                                                         2.234155       1.614768
                                                         2.490697      -1.567406
                          1      10    5dy2              0.046384       0.004182
                                                         0.078880       0.000000
                                                         0.134144       0.017123
                                                         0.339070       0.095731
                                                         0.847552      -0.187104
                                                         2.234155       0.932287
                                                         2.490697      -0.904942
                          1      10    5dyz              0.046384       0.007244
                                                         0.078880       0.000000
                                                         0.134144       0.029658
                                                         0.339070       0.165811
                                                         0.847552      -0.324073
                                                         2.234155       1.614768
                                                         2.490697      -1.567406
                          1      10    5dz2              0.046384       0.004182
                                                         0.078880       0.000000
                                                         0.134144       0.017123
                                                         0.339070       0.095731
                                                         0.847552      -0.187104
                                                         2.234155       0.932287
                                                         2.490697      -0.904942

                          1      11    6dx2              0.046384       0.006845
                                                         0.078880       0.000000
                                                         0.134144      -0.013122
                                                         0.339070      -0.222207
                                                         0.847552       0.496103
                                                         2.234155       0.354588
                                                         2.490697      -0.136742
                          1      11    6dxy              0.046384       0.011856
                                                         0.078880       0.000000
                                                         0.134144      -0.022728
                                                         0.339070      -0.384874
                                                         0.847552       0.859275
                                                         2.234155       0.614164
                                                         2.490697      -0.236844
                          1      11    6dxz              0.046384       0.011856
                                                         0.078880       0.000000
                                                         0.134144      -0.022728
                                                         0.339070      -0.384874
                                                         0.847552       0.859275
                                                         2.234155       0.614164
                                                         2.490697      -0.236844
                          1      11    6dy2              0.046384       0.006845
                                                         0.078880       0.000000
                                                         0.134144      -0.013122
                                                         0.339070      -0.222207
                                                         0.847552       0.496103
                                                         2.234155       0.354588
                                                         2.490697      -0.136742
                          1      11    6dyz              0.046384       0.011856
                                                         0.078880       0.000000
                                                         0.134144      -0.022728
                                                         0.339070      -0.384874
                                                         0.847552       0.859275
                                                         2.234155       0.614164
                                                         2.490697      -0.236844
                          1      11    6dz2              0.046384       0.006845
                                                         0.078880       0.000000
                                                         0.134144      -0.013122
                                                         0.339070      -0.222207
                                                         0.847552       0.496103
                                                         2.234155       0.354588
                                                         2.490697      -0.136742

                          1      12    7dx2              0.046384      -0.014120
                                                         0.078880       0.028500
                                                         0.134144      -0.033743
                                                         0.339070       0.018808
                                                         0.847552       0.002577
                                                         2.234155       0.065059
                                                         2.490697       0.015154
                          1      12    7dxy              0.046384      -0.024457
                                                         0.078880       0.049364
                                                         0.134144      -0.058444
                                                         0.339070       0.032577
                                                         0.847552       0.004463
                                                         2.234155       0.112685
                                                         2.490697       0.026248
                          1      12    7dxz              0.046384      -0.024457
                                                         0.078880       0.049364
                                                         0.134144      -0.058444
                                                         0.339070       0.032577
                                                         0.847552       0.004463
                                                         2.234155       0.112685
                                                         2.490697       0.026248
                          1      12    7dy2              0.046384      -0.014120
                                                         0.078880       0.028500
                                                         0.134144      -0.033743
                                                         0.339070       0.018808
                                                         0.847552       0.002577
                                                         2.234155       0.065059
                                                         2.490697       0.015154
                          1      12    7dyz              0.046384      -0.024457
                                                         0.078880       0.049364
                                                         0.134144      -0.058444
                                                         0.339070       0.032577
                                                         0.847552       0.004463
                                                         2.234155       0.112685
                                                         2.490697       0.026248
                          1      12    7dz2              0.046384      -0.014120
                                                         0.078880       0.028500
                                                         0.134144      -0.033743
                                                         0.339070       0.018808
                                                         0.847552       0.002577
                                                         2.234155       0.065059
                                                         2.490697       0.015154

                          1      13    5fx3              0.046384       0.000352
                                                         0.078880       0.000000
                                                         0.134144       0.004116
                                                         0.339070       0.087820
                                                         0.847552       0.085000
                                                         2.234155      -0.451867
                                                         2.490697       0.399898
                          1      13    5fx2y             0.046384       0.000788
                                                         0.078880       0.000000
                                                         0.134144       0.009205
                                                         0.339070       0.196371
                                                         0.847552       0.190066
                                                         2.234155      -1.010405
                                                         2.490697       0.894198
                          1      13    5fx2z             0.046384       0.000788
                                                         0.078880       0.000000
                                                         0.134144       0.009205
                                                         0.339070       0.196371
                                                         0.847552       0.190066
                                                         2.234155      -1.010405
                                                         2.490697       0.894198
                          1      13    5fxy2             0.046384       0.000788
                                                         0.078880       0.000000
                                                         0.134144       0.009205
                                                         0.339070       0.196371
                                                         0.847552       0.190066
                                                         2.234155      -1.010405
                                                         2.490697       0.894198
                          1      13    5fxyz             0.046384       0.001365
                                                         0.078880       0.000000
                                                         0.134144       0.015943
                                                         0.339070       0.340125
                                                         0.847552       0.329204
                                                         2.234155      -1.750073
                                                         2.490697       1.548797
                          1      13    5fxz2             0.046384       0.000788
                                                         0.078880       0.000000
                                                         0.134144       0.009205
                                                         0.339070       0.196371
                                                         0.847552       0.190066
                                                         2.234155      -1.010405
                                                         2.490697       0.894198
                          1      13    5fy3              0.046384       0.000352
                                                         0.078880       0.000000
                                                         0.134144       0.004116
                                                         0.339070       0.087820
                                                         0.847552       0.085000
                                                         2.234155      -0.451867
                                                         2.490697       0.399898
                          1      13    5fy2z             0.046384       0.000788
                                                         0.078880       0.000000
                                                         0.134144       0.009205
                                                         0.339070       0.196371
                                                         0.847552       0.190066
                                                         2.234155      -1.010405
                                                         2.490697       0.894198
                          1      13    5fyz2             0.046384       0.000788
                                                         0.078880       0.000000
                                                         0.134144       0.009205
                                                         0.339070       0.196371
                                                         0.847552       0.190066
                                                         2.234155      -1.010405
                                                         2.490697       0.894198
                          1      13    5fz3              0.046384       0.000352
                                                         0.078880       0.000000
                                                         0.134144       0.004116
                                                         0.339070       0.087820
                                                         0.847552       0.085000
                                                         2.234155      -0.451867
                                                         2.490697       0.399898

                          1      14    6fx3              0.046384       0.001484
                                                         0.078880       0.000000
                                                         0.134144      -0.002075
                                                         0.339070      -0.038279
                                                         0.847552      -0.120425
                                                         2.234155      -0.245401
                                                         2.490697       0.420948
                          1      14    6fx2y             0.046384       0.003318
                                                         0.078880       0.000000
                                                         0.134144      -0.004640
                                                         0.339070      -0.085594
                                                         0.847552      -0.269279
                                                         2.234155      -0.548733
                                                         2.490697       0.941269
                          1      14    6fx2z             0.046384       0.003318
                                                         0.078880       0.000000
                                                         0.134144      -0.004640
                                                         0.339070      -0.085594
                                                         0.847552      -0.269279
                                                         2.234155      -0.548733
                                                         2.490697       0.941269
                          1      14    6fxy2             0.046384       0.003318
                                                         0.078880       0.000000
                                                         0.134144      -0.004640
                                                         0.339070      -0.085594
                                                         0.847552      -0.269279
                                                         2.234155      -0.548733
                                                         2.490697       0.941269
                          1      14    6fxyz             0.046384       0.005747
                                                         0.078880       0.000000
                                                         0.134144      -0.008037
                                                         0.339070      -0.148253
                                                         0.847552      -0.466405
                                                         2.234155      -0.950434
                                                         2.490697       1.630325
                          1      14    6fxz2             0.046384       0.003318
                                                         0.078880       0.000000
                                                         0.134144      -0.004640
                                                         0.339070      -0.085594
                                                         0.847552      -0.269279
                                                         2.234155      -0.548733
                                                         2.490697       0.941269
                          1      14    6fy3              0.046384       0.001484
                                                         0.078880       0.000000
                                                         0.134144      -0.002075
                                                         0.339070      -0.038279
                                                         0.847552      -0.120425
                                                         2.234155      -0.245401
                                                         2.490697       0.420948
                          1      14    6fy2z             0.046384       0.003318
                                                         0.078880       0.000000
                                                         0.134144      -0.004640
                                                         0.339070      -0.085594
                                                         0.847552      -0.269279
                                                         2.234155      -0.548733
                                                         2.490697       0.941269
                          1      14    6fyz2             0.046384       0.003318
                                                         0.078880       0.000000
                                                         0.134144      -0.004640
                                                         0.339070      -0.085594
                                                         0.847552      -0.269279
                                                         2.234155      -0.548733
                                                         2.490697       0.941269
                          1      14    6fz3              0.046384       0.001484
                                                         0.078880       0.000000
                                                         0.134144      -0.002075
                                                         0.339070      -0.038279
                                                         0.847552      -0.120425
                                                         2.234155      -0.245401
                                                         2.490697       0.420948

                          1      15    7fx3              0.046384      -0.001872
                                                         0.078880       0.002775
                                                         0.134144       0.008066
                                                         0.339070       0.035679
                                                         0.847552      -0.008532
                                                         2.234155       0.011461
                                                         2.490697       0.070108
                          1      15    7fx2y             0.046384      -0.004186
                                                         0.078880       0.006205
                                                         0.134144       0.018037
                                                         0.339070       0.079780
                                                         0.847552      -0.019078
                                                         2.234155       0.025627
                                                         2.490697       0.156767
                          1      15    7fx2z             0.046384      -0.004186
                                                         0.078880       0.006205
                                                         0.134144       0.018037
                                                         0.339070       0.079780
                                                         0.847552      -0.019078
                                                         2.234155       0.025627
                                                         2.490697       0.156767
                          1      15    7fxy2             0.046384      -0.004186
                                                         0.078880       0.006205
                                                         0.134144       0.018037
                                                         0.339070       0.079780
                                                         0.847552      -0.019078
                                                         2.234155       0.025627
                                                         2.490697       0.156767
                          1      15    7fxyz             0.046384      -0.007250
                                                         0.078880       0.010748
                                                         0.134144       0.031240
                                                         0.339070       0.138184
                                                         0.847552      -0.033044
                                                         2.234155       0.044387
                                                         2.490697       0.271529
                          1      15    7fxz2             0.046384      -0.004186
                                                         0.078880       0.006205
                                                         0.134144       0.018037
                                                         0.339070       0.079780
                                                         0.847552      -0.019078
                                                         2.234155       0.025627
                                                         2.490697       0.156767
                          1      15    7fy3              0.046384      -0.001872
                                                         0.078880       0.002775
                                                         0.134144       0.008066
                                                         0.339070       0.035679
                                                         0.847552      -0.008532
                                                         2.234155       0.011461
                                                         2.490697       0.070108
                          1      15    7fy2z             0.046384      -0.004186
                                                         0.078880       0.006205
                                                         0.134144       0.018037
                                                         0.339070       0.079780
                                                         0.847552      -0.019078
                                                         2.234155       0.025627
                                                         2.490697       0.156767
                          1      15    7fyz2             0.046384      -0.004186
                                                         0.078880       0.006205
                                                         0.134144       0.018037
                                                         0.339070       0.079780
                                                         0.847552      -0.019078
                                                         2.234155       0.025627
                                                         2.490697       0.156767
                          1      15    7fz3              0.046384      -0.001872
                                                         0.078880       0.002775
                                                         0.134144       0.008066
                                                         0.339070       0.035679
                                                         0.847552      -0.008532
                                                         2.234155       0.011461
                                                         2.490697       0.070108

       Atomic covalent radius [Angstrom]:                                  1.480

       Atomic van der Waals radius [Angstrom]:                             1.960

     GTH Potential information for                                       GTH-PBE

       Description:                       Goedecker-Teter-Hutter pseudopotential
                                           Goedecker et al., PRB 54, 1703 (1996)
                                          Hartwigsen et al., PRB 58, 3641 (1998)
                                                      Krack, TCA 114, 145 (2005)

       Gaussian exponent of the core charge distribution:               1.652893
       Electronic configuration (s p d ...):                           2   1  10

       Parameters of the local part of the GTH pseudopotential:

                          rloc        C1          C2          C3          C4
                        0.550000   12.290585

       Parameters of the non-local part of the GTH (SOC) pseudopotential:

                   l      r(l)      h(i,j,l)
                                    k(i,j,l)
                   0    0.512803    7.190170   -2.863011
                                   -2.863011    3.696131
                   1    0.577115    4.760946   -3.673325    0.000000
                                   -3.673325    4.346337    0.000000
                                    0.000000    0.000000    0.000000
                                    1.352978   -2.289012    0.680678
                                   -2.289012    3.841620   -1.610777
                                    0.680678   -1.610777    1.144788
                   2    0.393230  -11.012687    6.421592
                                    6.421592   -7.281401
                                   -0.115593    0.306710
                                    0.306710   -0.347777


 MOLECULE KIND INFORMATION


 All atoms are their own molecule, skipping detailed information


 TOTAL NUMBERS AND MAXIMUM NUMBERS

  Total number of            - Atomic kinds:                                   1
                             - Atoms:                                          2
                             - Shell sets:                                     2
                             - Shells:                                        30
                             - Primitive Cartesian functions:                 14
[...]

 -------------------------------------------------------------------------------
 -                                                                             -
 -                                DBM STATISTICS                               -
 -                                                                             -
 -------------------------------------------------------------------------------
    M  x    N  x    K                                          COUNT     PERCENT
 -------------------------------------------------------------------------------

 -------------------------------------------------------------------------------
 -                                                                             -
 -                                GRID STATISTICS                              -
 -                                                                             -
 -------------------------------------------------------------------------------
 LP    KERNEL             BACKEND                              COUNT     PERCENT
 6     collocate general  CPU                                1153800      50.70%
 6     integrate general  CPU                                1121750      49.30%
 0     collocate general  CPU                                      4       0.00%
 0     integrate general  CPU                                      2       0.00%
 -------------------------------------------------------------------------------

 MEMORY| Estimated peak process memory [MiB]                                1585

 -------------------------------------------------------------------------------
 ----                             MULTIGRID INFO                            ----
 -------------------------------------------------------------------------------
 count for grid        1:          86540          cutoff [a.u.]          500.00
 count for grid        2:         313510          cutoff [a.u.]          166.67
 count for grid        3:         201784          cutoff [a.u.]           55.56
 count for grid        4:         162514          cutoff [a.u.]           18.52
 total gridlevel count  :         764348

 -------------------------------------------------------------------------------
 -                                                                             -
 -                         MESSAGE PASSING PERFORMANCE                         -
 -                                                                             -
 -------------------------------------------------------------------------------

 ROUTINE             CALLS      AVE VOLUME [Bytes]
 MP_Group                5
 MP_Bcast           322777                   1774.
 MP_Allreduce       245633                     47.
 MP_Sync                 4
 MP_Alltoall           707                1470572.
 MP_SendRecv          2190                 100271.
 MP_ISendRecv         2115                  98860.
 MP_Wait            220515
 MP_comm_split           3
 MP_ISend           225120                   1608.
 MP_IRecv           376320                    954.
 -------------------------------------------------------------------------------


 -------------------------------------------------------------------------------
 -                                                                             -
 -                           R E F E R E N C E S                               -
 -                                                                             -
 -------------------------------------------------------------------------------
 
 CP2K version 2025.1 (Development Version), the CP2K developers group (2025).
 CP2K is freely available from https://www.cp2k.org/ .
 
 T. D. Kuehne, M. Iannuzzi, M. Del Ben, V. V. Rybkin, P. Seewald, F. Stein, T. 
 Laino, R. Z. Khaliullin, O. Schuett, F. Schiffmann, D. Golze, J. Wilhelm, S. 
 Chulkov, M. H. Bani-Hashemian, V. Weber, U. Borstnik, M. Taillefumier, A. S. 
 Jakobovits, A. Lazzaro, H. Pabst, T. Mueller, R. Schade, M. Guidon, S. 
 Andermatt, N. Holmberg, G. K. Schenter, A. Hehn, A. Bussy, F. Belleflamme, G. 
 Tabacchi, A. Gloess, M. Lass, I. Bethune, C. J. Mundy, C. Plessl, M. Watkins, 
 J. VandeVondele, M. Krack, J. Hutter.
 J. Chem. Phys. 152, 194103 (2020).
 CP2K: An electronic structure and molecular dynamics software package - 
 Quickstep: Efficient and accurate electronic structure calculations.
 https://doi.org/10.1063/5.0007045

 O. Schuett, P. Messmer, J. Hutter, J. VandeVondele.
 Electronic Structure Calculations on Graphics Processing Units, 173-190 (2016).
 GPU-Accelerated Sparse Matrix-Matrix Multiplication for Linear Scaling Density 
 Functional Theory.
 https://doi.org/10.1002/9781118670712.ch8

 J. Hutter, M. Iannuzzi, F. Schiffmann, J. VandeVondele.
 WIREs Comput Mol Sci. 4, 15-25 (2014).
 CP2K: atomistic simulations of condensed matter systems.
 https://doi.org/10.1002/wcms.1159

 U. Borstnik, J. VandeVondele, V. Weber, J. Hutter.
 Parallel Comput. 40, 47-58 (2014).
 Sparse matrix multiplication: The distributed block-compressed sparse row 
 library.
 https://doi.org/10.1016/j.parco.2014.03.012

 J. VandeVondele, J. Hutter.
 J. Chem. Phys. 127, 114105 (2007).
 Gaussian basis sets for accurate calculations on molecular systems in gas and 
 condensed phases.
 https://doi.org/10.1063/1.2770708

 J. VandeVondele, M. Krack, F. Mohamed, M. Parrinello, T. Chassaing, J. Hutter.
 Comput. Phys. Commun. 167, 103-128 (2005).
 QUICKSTEP: Fast and accurate density functional calculations using a mixed 
 Gaussian and plane waves approach.
 https://doi.org/10.1016/j.cpc.2004.12.014

 M. Krack.
 Theor. Chem. Acc. 114, 145-152 (2005).
 Pseudopotentials for H to Kr optimized for gradient-corrected 
 exchange-correlation functionals.
 https://doi.org/10.1007/s00214-005-0655-y

 M. Frigo, S. G. Johnson.
 Proc. IEEE 93, 216-231 (2005).
 The design and implementation of FFTW3.
 https://doi.org/10.1109/JPROC.2004.840301

 C. Hartwigsen, S. Goedecker, J. Hutter.
 Phys. Rev. B 58, 3641-3662 (1998).
 Relativistic separable dual-space Gaussian pseudopotentials from H to Rn.
 https://doi.org/10.1103/PhysRevB.58.3641

 G. Lippert, J. Hutter, M. Parrinello.
 Mol. Phys. 92, 477-487 (1997).
 A hybrid Gaussian and plane wave density functional scheme.
 https://doi.org/10.1080/002689797170220

 S. Goedecker, M. Teter, J. Hutter.
 Phys. Rev. B 54, 1703-1710 (1996).
 Separable dual-space Gaussian pseudopotentials.
 https://doi.org/10.1103/PhysRevB.54.1703

 J. P. Perdew, K. Burke, M. Ernzerhof.
 Phys. Rev. Lett. 77, 3865-3868 (1996).
 Generalized gradient approximation made simple.
 https://doi.org/10.1103/PhysRevLett.77.3865


 -------------------------------------------------------------------------------
 -                                                                             -
 -                                T I M I N G                                  -
 -                                                                             -
 -------------------------------------------------------------------------------
 SUBROUTINE                       CALLS  ASD         SELF TIME        TOTAL TIME
                                MAXIMUM       AVERAGE  MAXIMUM  AVERAGE  MAXIMUM
 CP2K                                 1  1.0    0.020    0.023  934.583  934.584
 qs_energies                          1  2.0    0.007    0.007  934.298  934.309
 scf_env_do_scf                       1  3.0    0.000    0.000  804.146  804.147
 scf_env_do_scf_inner_loop           35  4.0    0.070    0.078  804.146  804.146
 mp_alltoall_i22                 154468  8.9  653.606  801.648  653.606  801.648
 qs_scf_new_mos_kp                   35  5.0    0.000    0.000  758.145  764.139
 do_general_diag_kp                  35  6.0    0.195    0.234  758.145  764.139
 dbcsr_desymmetrize_deep          89494  7.6    1.371    1.926  480.061  586.399
 rskp_transform                   21220  7.2   99.478  531.586   99.478  531.586
 dbcsr_complete_redistribute      64974  8.3    2.335    2.872  205.532  247.318
 kpoint_density_transform            35  7.0    0.113    0.139  233.858  234.715
 copy_fm_to_dbcsr                 17920  8.0    0.104    0.122  187.824  229.070
 transform_dmat                    8960  8.0   41.387  221.096   41.387  221.096
 qs_energies_properties               1  3.0    0.000    0.000  125.265  125.274
 post_scf_bandstructure               1  4.0    0.000    0.000  125.264  125.274
 rsmat_to_kp                       3300  7.0    0.055    0.063   88.310   88.349
 soc                                  1  5.0    0.001    0.001   61.625   61.625
 H_KS_spinor_kp                       1  6.0    0.012    0.013   59.528   61.096
 create_and_init_bs_env               1  5.0    0.000    0.000   48.004   48.005
 compute_cfm_mo_coeff_kp_and_ei       1  6.0    0.009    0.010   48.001   48.001
 qs_ks_update_qs_env                 35  5.0    0.000    0.000   11.007   38.317
 rebuild_ks_matrix                   35  6.0    0.000    0.000    7.672   34.982
 qs_ks_build_kohn_sham_matrix        35  7.0    0.133    0.142    7.672   34.982
 sum_up_and_integrate                35  8.0    0.000    0.000    6.577   33.808
 integrate_v_rspace                  35  9.0    0.105    0.562    6.576   33.806
 grid_integrate_task_list            35 10.0    6.051   32.901    6.051   32.901
 copy_dbcsr_to_fm                 47054  7.0    0.502    0.595   30.528   31.063
 transfer_rs2pw                     146  8.0    0.002    0.002   24.593   30.146
 transfer_rs2pw_500                  38  8.9    0.073    0.084   24.517   30.069
 mp_sendrecv_dv                    2190 10.0   24.501   30.062   24.501   30.062
 cp_cfm_heevd                      3100  7.8    0.005    0.005   27.818   27.882
 cp_cfm_heevd_base                 3100  8.8   27.813   27.877   27.813   27.877
 qs_rho_update_rho_low               36  5.0    0.000    0.000   27.691   27.738
 calculate_rho_elec                  36  6.0    0.021    0.066   27.691   27.738
 density_rs2pw                       36  7.0    0.001    0.002   22.523   27.596
 grid_collocate_task_list            36  7.0    5.145   27.104    5.145   27.104
 cp_cfm_geeig_canon                1220  7.0    0.014    0.015   16.263   16.326
 dos_pdos_ldos                        1  5.0    0.008    0.010   15.636   15.646
 SOC_ev                             660  6.0    0.017    0.018   14.816   14.838
 cp_fm_start_copy_general         53760  7.3    0.943    1.342    8.768    8.914
 V_SOC_xyz_from_pseudopotential       1  6.0    0.069    0.072    2.096    8.629
 mp_sum_iv                         1340  8.9    6.758    8.375    6.758    8.375
 alloc_cfm_double_array_1d            1  7.0    0.003    0.003    6.561    8.129
 create_cfm_double                  660  8.0    0.011    0.013    6.558    8.127
 build_core_ppnl                      2  6.0    1.365    6.993    1.365    6.993
 dbcsr_finalize                  244186  8.3    0.988    1.139    6.349    6.862
 mp_alltoall_d11v                463404  9.5    5.801    6.779    5.801    6.779
 mp_allgather_i                  107520  8.3    5.431    5.550    5.431    5.550
 dbcsr_create_new                437129  7.9    3.690    4.897    4.010    5.274
 mp_cart_sub                      94111  9.0    5.217    5.257    5.217    5.257
 mp_alltoall_i11v                284416  9.1    4.345    4.763    4.345    4.763
 hybrid_alltoall_any              89494  8.6    0.364    0.412    3.818    4.577
 write_kpoints_restart               35  5.0    0.022    0.035    4.537    4.537
 cp_dbcsr_alloc_block_from_nbl    39094  6.3    0.735    3.499    0.913    4.262
 dbcsr_merge_all                  71892 10.3    2.619    3.075    3.778    4.203
 dbcsr_dot                       161421  8.0    0.810    1.678    3.643    3.744
 evaluate_core_matrix_traces         35  6.0    0.000    0.000    3.335    3.335
 calculate_ptrace_kp                 70  7.0    0.117    0.121    3.335    3.335
 qs_energies_init_hamiltonians        1  3.0    0.000    0.000    3.119    3.119
 mp_cart_create                   47060  9.0    2.894    3.002    2.894    3.002
 mp_sum_d                        162121  9.0    2.632    2.995    2.632    2.995
 cp_cfm_gemm                       6960  8.5    2.863    2.917    2.863    2.917
 self_consistency_check              35  5.0    0.113    0.117    2.641    2.804
 build_core_hamiltonian_matrix        1  4.0    0.008    0.009    0.621    2.757
 qs_env_update_s_mstruct              1  4.0    0.000    0.000    2.229    2.681
 calculate_rho_core                   1  5.0    0.001    0.002    2.149    2.657
 cp_sm_mix                        80710  6.0    0.283    0.746    2.379    2.592
 mp_max_d                         80712  7.0    1.903    2.222    1.903    2.222
 parallel_gemm_cfm                 3300  7.0    0.004    0.004    1.937    1.981
 parallel_gemm_cfm_gemm            3300  8.0    0.004    0.004    1.933    1.977
 dbcsr_copy                      188564  6.7    1.014    1.262    1.537    1.937
 cp_fm_write_unformatted           4612  6.0    1.207    1.714    1.289    1.890
 copy_fm_to_dbcsr_bc              17920  9.0    0.243    0.268    0.987    1.886
 dbcsr_work_create               161386  8.9    0.928    1.076    1.497    1.810
 mp_bcast_iv                     215067  8.3    1.660    1.786    1.660    1.786
 dbcsr_iterator_start            672637  8.8    1.363    1.427    1.544    1.678
 kpoint_set_mo_occupation            35  7.0    1.332    1.369    1.443    1.521
 init_scf_run                         1  3.0    0.000    0.000    1.235    1.333
 scf_env_initial_rho_setup            1  4.0    0.000    0.000    1.235    1.333
 dbcsr_data_new                 1772218  9.7    1.000    1.316    1.000    1.316
 add_cfm_submat                    5280  7.0    0.046    0.049    1.231    1.299
 dbcsr_work_destroy_all          161386  9.9    0.735    0.799    1.127    1.248
 copy_dbcsr_to_fm_bc              47054  8.0    0.480    0.506    1.108    1.141
 cp_fm_to_fm_submat               10560  8.0    1.061    1.131    1.061    1.131
 dbcsr_data_release             2623843 10.1    0.906    1.079    0.906    1.079
 tree_to_linear_d                 64974 11.3    0.893    1.035    0.893    1.035
 dbcsr_set                       292035  7.4    0.258    0.280    0.474    1.030
 dbcsr_iterator_stop             672637  8.8    0.826    0.857    0.972    1.017
 dbcsr_add_d                       6918  7.0    0.007    0.008    0.392    0.965
 dbcsr_add_anytype                 6918  8.0    0.021    0.093    0.385    0.958
 dbcsr_reserve_blocks             57014  8.5    0.240    0.849    0.263    0.900
 dbcsr_destroy                   268791  7.8    0.425    0.464    0.812    0.898
 add_to_DOS_PDOS                   1320  6.5    0.758    0.769    0.758    0.769
 dbcsr_zero                      292035  8.4    0.216    0.750    0.216    0.750
 kpoint_density_matrices             35  7.0    0.014    0.015    0.534    0.690
 parallel_gemm_fm                  2240  8.0    0.002    0.002    0.510    0.666
 parallel_gemm_fm_gemm             2240  9.0    0.002    0.002    0.508    0.663
 cp_fm_gemm                        2240 10.0    0.506    0.661    0.506    0.661
 fft_wrap_pw1pw2                    635 10.0    0.004    0.005    0.536    0.589
 quick_finalize                   89494  9.6    0.238    0.326    0.399    0.578
 compute_proj_mo_on_kind            660  6.0    0.017    0.018    0.530    0.575
 mixing_allocate                      1  3.0    0.013    0.013    0.145    0.568
 cp_fm_finish_copy_general        20160  7.9    0.469    0.507    0.498    0.557
 mp_send_dv                        4612  7.0    0.071    0.552    0.071    0.552
 fft_wrap_pw1pw2_500                422 11.3    0.026    0.027    0.485    0.538
 calculate_first_density_matrix       1  5.0    0.002    0.002    0.438    0.535
 calculate_atomic_block_dm            1  6.0    0.001    0.001    0.432    0.531
 fft3d_ps                           635 12.0    0.136    0.147    0.459    0.514
 mp_bcast_im                     107520  8.3    0.485    0.498    0.485    0.498
 mp_comm_free                    141860  9.0    0.433    0.479    0.433    0.479
 potential_pw2rs                     35 10.0    0.002    0.002    0.420    0.467
 mp_waitall_1                    220515  8.4    0.225    0.450    0.225    0.450
 dbcsr_copy_into_existing         20226  9.5    0.141    0.260    0.253    0.378
 build_overlap_matrix_low             1  5.0    0.025    0.074    0.089    0.346
 build_kinetic_matrix_low             1  5.0    0.025    0.075    0.088    0.343
 mp_alltoall_z22v                   635 14.0    0.273    0.339    0.273    0.339
 build_core_ppl                       1  5.0    0.054    0.307    0.054    0.307
 calculate_ecore_overlap              1  4.0    0.000    0.000    0.247    0.304
 qs_vxc_create                       35  8.0    0.000    0.001    0.294    0.295
 xc_vxc_pw_create                    35  9.0    0.011    0.013    0.293    0.294
 qs_env_rebuild_rho                   1  5.0    0.000    0.000    0.072    0.284
 qs_rho_rebuild                       1  6.0    0.007    0.007    0.072    0.284
 dbcsr_scale_anytype               6919  9.0    0.050    0.064    0.250    0.281
 yz_to_x                            249 13.1    0.012    0.014    0.202    0.262
 qs_scf_ensure_work_matrices          1  3.0    0.000    0.000    0.210    0.259
 dbcsr_iterator_seek             672637  9.8    0.180    0.258    0.180    0.258
 transfer_pw2rs                     141 11.0    0.001    0.001    0.254    0.254
 dbcsr_make_index_exist          437129  8.9    0.206    0.247    0.206    0.247
 dbcsr_sort_indices              211482 11.0    0.113    0.236    0.113    0.236
 gspace_mixing                       34  5.0    0.009    0.010    0.226    0.227
 xc_pw_derive                       210 11.0    0.001    0.001    0.191    0.198
 mp_sum_dm3                          35  8.0    0.111    0.194    0.111    0.194
 transfer_pw2rs_500                  36 11.9    0.093    0.100    0.188    0.193
 write_SOC_eigenvalues              148  6.0    0.012    0.187    0.012    0.187
 broyden_mixing                      34  6.0    0.176    0.179    0.184    0.185
 mp_recv_dv                       13836  7.0    0.011    0.176    0.011    0.176
 dbcsr_reserve_all_blocks         17920 10.0    0.026    0.034    0.127    0.159
 xc_rho_set_and_dset_create          35 10.0    0.008    0.009    0.149    0.157
 mp_isend_dv                      53760  8.3    0.144    0.156    0.144    0.156
 merge_index                      71892 11.3    0.129    0.143    0.129    0.143
 xc_pw_divergence                    35 10.0    0.000    0.000    0.128    0.135
 dbcsr_switch_data_area           89494 10.6    0.085    0.090    0.113    0.126
 parser_read_line                  8657  4.0    0.003    0.003    0.118    0.120
 parser_read_line_low                26  6.1    0.008    0.048    0.115    0.118
 mp_irecv_iv                     215040  8.3    0.007    0.113    0.007    0.113
 broadcast_input_information         26  7.1    0.028    0.039    0.107    0.112
 x_to_yz                            315 13.1    0.026    0.027    0.108    0.112
 cp_cfm_scale_and_add_fm          12800  7.8    0.102    0.107    0.102    0.107
 -------------------------------------------------------------------------------

 The number of warnings for this run is : 1
 
 -------------------------------------------------------------------------------
  **** **** ******  **  PROGRAM ENDED AT                 2025-08-07 23:21:47.864
 ***** ** ***  *** **   PROGRAM RAN ON                              i04r10c06s03
 **    ****   ******    PROGRAM RAN BY                                   di38fab
 ***** **    ** ** **   PROGRAM PROCESS ID                                672361
  **** **  *******  **  PROGRAM STOPPED IN /hppfs/scratch/04/di38fab/09_GTH/Delt
                                           a_Set/Tl/aug-TZVP-MOLOPT-GTH-tier-1/8
                                           x8x8
