Ca                                      
   1.00000000000000     
     5.525070    0.000000    0.000000
     0.000000    5.525070    0.000000
     0.000000    0.000000    5.525070
   Ca
     4
Direct
  0.000000  0.000000  0.000000
  0.000000  0.500000  0.500000
  0.500000  0.000000  0.500000
  0.500000  0.500000  0.000000
 
   56   56   56
  1212.9      1185.0      1104.2      978.66      820.93      646.88      474.41      320.84      199.11      114.46    
  63.567      36.903      23.196      16.028      12.468      10.735      9.8710      9.4100      9.1443      8.9812    
  8.8745      8.7983      8.7370      8.6819      8.6311      8.5878      8.5561      8.5376      8.5317      8.5376    
  8.5561      8.5878      8.6311      8.6819      8.7370      8.7983      8.8745      8.9812      9.1443      9.4100    
  9.8710      10.735      12.468      16.028      23.196      36.903      63.567      114.46      199.11      320.84    
  474.41      646.88      820.93      978.66      1104.2      1185.0      1185.0      1157.6      1078.1      954.72    
  799.84      629.22      460.57      310.87      192.65      110.76      61.719      36.051      22.775      15.826    
  12.373      10.689      9.8467      9.3962      9.1363      8.9769      8.8729      8.7988      8.7391      8.6851    
  8.6352      8.5927      8.5616      8.5435      8.5376      8.5435      8.5616      8.5927      8.6352      8.6851    
  8.7391      8.7988      8.8729      8.9769      9.1363      9.3962      9.8467      10.689      12.373      15.826    
  22.775      36.051      61.719      110.76      192.65      310.87      460.57      629.22      799.84      954.72    
  1078.1      1157.6      1104.2      1078.1      1002.6      885.51      739.02      578.52      421.07      282.62    
  174.46      100.42      56.585      33.665      21.585      15.257      12.104      10.557      9.7776      9.3576    
  9.1145      8.9659      8.8697      8.8016      8.7462      8.6953      8.6479      8.6078      8.5787      8.5616    
  8.5561      8.5616      8.5787      8.6078      8.6479      8.6953      8.7462      8.8016      8.8697      8.9659    
  9.1145      9.3576      9.7776      10.557      12.104      15.257      21.585      33.665      56.585      100.42    
  174.46      282.62      421.07      578.52      739.02      885.51      1002.6      1078.1      978.66      954.72    
  885.51      778.57      645.60      501.32      361.59      240.64      147.83      85.528      49.250      30.167    
  19.832      14.415      11.703      10.360      9.6745      9.3012      9.0847      8.9531      8.8689      8.8094    
  8.7602      8.7138      8.6702      8.6338      8.6078      8.5927      8.5878      8.5927      8.6078      8.6338    
  8.6702      8.7138      8.7602      8.8094      8.8689      8.9531      9.0847      9.3012      9.6745      10.360    
  11.703      14.415      19.832      30.167      49.250      85.528      147.83      240.64      361.59      501.32    
  645.60      778.57      885.51      954.72      820.93      799.84      739.02      645.60      530.60      407.57    
  290.58      191.51      117.34      68.830      41.083      26.099      17.792      13.429      11.228      10.124    
  9.5514      9.2360      9.0531      8.9432      8.8740      8.8250      8.7829      8.7416      8.7024      8.6702    
  8.6479      8.6352      8.6311      8.6352      8.6479      8.6702      8.7024      8.7416      8.7829      8.8250    
  8.8740      8.9432      9.0531      9.2360      9.5514      10.124      11.228      13.429      17.792      26.099    
  41.083      68.830      117.34      191.51      290.58      407.57      530.60      645.60      739.02      799.84    
  646.88      629.22      578.52      501.32      407.57      309.13      217.70      142.38      87.711      52.985    
  33.245      22.015      15.737      12.427      10.739      9.8781      9.4226      9.1695      9.0238      8.9382    
  8.8854      8.8474      8.8125      8.7762      8.7416      8.7138      8.6953      8.6851      8.6819      8.6851    
  8.6953      8.7138      8.7416      8.7762      8.8125      8.8474      8.8854      8.9382      9.0238      9.1695    
  9.4226      9.8781      10.739      12.427      15.737      22.015      33.245      52.985      87.711      142.38    
  217.70      309.13      407.57      501.32      578.52      629.22      474.41      460.57      421.07      361.59    
  290.58      217.70      151.89      99.409      62.606      39.768      26.335      18.351      13.885      11.512    
  10.284      9.6438      9.2989      9.1065      8.9977      8.9361      8.8991      8.8714      8.8433      8.8125    
  8.7829      8.7602      8.7462      8.7391      8.7370      8.7391      8.7462      8.7602      8.7829      8.8125    
  8.8433      8.8714      8.8991      8.9361      8.9977      9.1065      9.2989      9.6438      10.284      11.512    
  13.885      18.351      26.335      39.768      62.606      99.409      151.89      217.70      290.58      361.59    
  421.07      460.57      320.84      310.87      282.62      240.64      191.51      142.38      99.409      66.329    
  43.793      29.627      20.699      15.359      12.358      10.744      9.8911      9.4363      9.1869      9.0485    
  8.9731      8.9332      8.9105      8.8922      8.8714      8.8474      8.8250      8.8094      8.8016      8.7988    
  8.7983      8.7988      8.8016      8.8094      8.8250      8.8474      8.8714      8.8922      8.9105      8.9332    
  8.9731      9.0485      9.1869      9.4363      9.8911      10.744      12.358      15.359      20.699      29.627    
  43.793      66.329      99.409      142.38      191.51      240.64      282.62      310.87      199.11      192.65    
  174.46      147.83      117.34      87.711      62.606      43.793      30.863      22.103      16.479      13.107    
  11.192      10.142      9.5731      9.2618      9.0893      8.9958      8.9489      8.9280      8.9185      8.9105    
  8.8991      8.8854      8.8740      8.8689      8.8697      8.8729      8.8745      8.8729      8.8697      8.8689    
  8.8740      8.8854      8.8991      8.9105      8.9185      8.9280      8.9489      8.9958      9.0893      9.2618    
  9.5731      10.142      11.192      13.107      16.479      22.103      30.863      43.793      62.606      87.711    
  117.34      147.83      174.46      192.65      114.46      110.76      100.42      85.528      68.830      52.985    
  39.768      29.627      22.103      16.900      13.553      11.526      10.354      9.6951      9.3269      9.1205    
  9.0068      8.9494      8.9267      8.9233      8.9280      8.9332      8.9361      8.9382      8.9432      8.9531    
  8.9659      8.9769      8.9812      8.9769      8.9659      8.9531      8.9432      8.9382      8.9361      8.9332    
  8.9280      8.9233      8.9267      8.9494      9.0068      9.1205      9.3269      9.6951      10.354      11.526    
  13.553      16.900      22.103      29.627      39.768      52.985      68.830      85.528      100.42      110.76    
  63.567      61.719      56.585      49.250      41.083      33.245      26.335      20.699      16.479      13.553    
  11.651      10.478      9.7821      9.3766      9.1425      9.0100      8.9407      8.9127      8.9118      8.9267    
  8.9489      8.9731      8.9977      9.0238      9.0531      9.0847      9.1145      9.1363      9.1443      9.1363    
  9.1145      9.0847      9.0531      9.0238      8.9977      8.9731      8.9489      8.9267      8.9118      8.9127    
  8.9407      9.0100      9.1425      9.3766      9.7821      10.478      11.651      13.553      16.479      20.699    
  26.335      33.245      41.083      49.250      56.585      61.719      36.903      36.051      33.665      30.167    
  26.099      22.015      18.351      15.359      13.107      11.526      10.478      9.8139      9.4042      9.1559    
  9.0091      8.9284      8.8935      8.8915      8.9127      8.9494      8.9958      9.0485      9.1065      9.1695    
  9.2360      9.3012      9.3576      9.3962      9.4100      9.3962      9.3576      9.3012      9.2360      9.1695    
  9.1065      9.0485      8.9958      8.9494      8.9127      8.8915      8.8935      8.9284      9.0091      9.1559    
  9.4042      9.8139      10.478      11.526      13.107      15.359      18.351      22.015      26.099      30.167    
  33.665      36.051      23.196      22.775      21.585      19.832      17.792      15.737      13.885      12.358    
  11.192      10.354      9.7821      9.4042      9.1604      9.0075      8.9180      8.8756      8.8698      8.8935    
  8.9407      9.0068      9.0893      9.1869      9.2989      9.4226      9.5514      9.6745      9.7776      9.8467    
  9.8710      9.8467      9.7776      9.6745      9.5514      9.4226      9.2989      9.1869      9.0893      9.0068    
  8.9407      8.8935      8.8698      8.8756      8.9180      9.0075      9.1604      9.4042      9.7821      10.354    
  11.192      12.358      13.885      15.737      17.792      19.832      21.585      22.775      16.028      15.826    
  15.257      14.415      13.429      12.427      11.512      10.744      10.142      9.6951      9.3766      9.1559    
  9.0075      8.9140      8.8647      8.8533      8.8756      8.9284      9.0100      9.1205      9.2618      9.4363    
  9.6438      9.8781      10.124      10.360      10.557      10.689      10.735      10.689      10.557      10.360    
  10.124      9.8781      9.6438      9.4363      9.2618      9.1205      9.0100      8.9284      8.8756      8.8533    
  8.8647      8.9140      9.0075      9.1559      9.3766      9.6951      10.142      10.744      11.512      12.427    
  13.429      14.415      15.257      15.826      12.468      12.373      12.104      11.703      11.228      10.739    
  10.284      9.8911      9.5731      9.3269      9.1425      9.0091      8.9180      8.8647      8.8471      8.8647    
  8.9180      9.0091      9.1425      9.3269      9.5731      9.8911      10.284      10.739      11.228      11.703    
  12.104      12.373      12.468      12.373      12.104      11.703      11.228      10.739      10.284      9.8911    
  9.5731      9.3269      9.1425      9.0091      8.9180      8.8647      8.8471      8.8647      8.9180      9.0091    
  9.1425      9.3269      9.5731      9.8911      10.284      10.739      11.228      11.703      12.104      12.373    
  10.735      10.689      10.557      10.360      10.124      9.8781      9.6438      9.4363      9.2618      9.1205    
  9.0100      8.9284      8.8756      8.8533      8.8647      8.9140      9.0075      9.1559      9.3766      9.6951    
  10.142      10.744      11.512      12.427      13.429      14.415      15.257      15.826      16.028      15.826    
  15.257      14.415      13.429      12.427      11.512      10.744      10.142      9.6951      9.3766      9.1559    
  9.0075      8.9140      8.8647      8.8533      8.8756      8.9284      9.0100      9.1205      9.2618      9.4363    
  9.6438      9.8781      10.124      10.360      10.557      10.689      9.8710      9.8467      9.7776      9.6745    
  9.5514      9.4226      9.2989      9.1869      9.0893      9.0068      8.9407      8.8935      8.8698      8.8756    
  8.9180      9.0075      9.1604      9.4042      9.7821      10.354      11.192      12.358      13.885      15.737    
  17.792      19.832      21.585      22.775      23.196      22.775      21.585      19.832      17.792      15.737    
  13.885      12.358      11.192      10.354      9.7821      9.4042      9.1604      9.0075      8.9180      8.8756    
  8.8698      8.8935      8.9407      9.0068      9.0893      9.1869      9.2989      9.4226      9.5514      9.6745    
  9.7776      9.8467      9.4100      9.3962      9.3576      9.3012      9.2360      9.1695      9.1065      9.0485    
  8.9958      8.9494      8.9127      8.8915      8.8935      8.9284      9.0091      9.1559      9.4042      9.8139    
  10.478      11.526      13.107      15.359      18.351      22.015      26.099      30.167      33.665      36.051    
  36.903      36.051      33.665      30.167      26.099      22.015      18.351      15.359      13.107      11.526    
  10.478      9.8139      9.4042      9.1559      9.0091      8.9284      8.8935      8.8915      8.9127      8.9494    
  8.9958      9.0485      9.1065      9.1695      9.2360      9.3012      9.3576      9.3962      9.1443      9.1363    
  9.1145      9.0847      9.0531      9.0238      8.9977      8.9731      8.9489      8.9267      8.9118      8.9127    
  8.9407      9.0100      9.1425      9.3766      9.7821      10.478      11.651      13.553      16.479      20.699    
  26.335      33.245      41.083      49.250      56.585      61.719      63.567      61.719      56.585      49.250    
  41.083      33.245      26.335      20.699      16.479      13.553      11.651      10.478      9.7821      9.3766    
  9.1425      9.0100      8.9407      8.9127      8.9118      8.9267      8.9489      8.9731      8.9977      9.0238    
  9.0531      9.0847      9.1145      9.1363      8.9812      8.9769      8.9659      8.9531      8.9432      8.9382    
  8.9361      8.9332      8.9280      8.9233      8.9267      8.9494      9.0068      9.1205      9.3269      9.6951    
  10.354      11.526      13.553      16.900      22.103      29.627      39.768      52.985      68.830      85.528    
  100.42      110.76      114.46      110.76      100.42      85.528      68.830      52.985      39.768      29.627    
  22.103      16.900      13.553      11.526      10.354      9.6951      9.3269      9.1205      9.0068      8.9494    
  8.9267      8.9233      8.9280      8.9332      8.9361      8.9382      8.9432      8.9531      8.9659      8.9769    
  8.8745      8.8729      8.8697      8.8689      8.8740      8.8854      8.8991      8.9105      8.9185      8.9280    
  8.9489      8.9958      9.0893      9.2618      9.5731      10.142      11.192      13.107      16.479      22.103    
  30.863      43.793      62.606      87.711      117.34      147.83      174.46      192.65      199.11      192.65    
  174.46      147.83      117.34      87.711      62.606      43.793      30.863      22.103      16.479      13.107    
  11.192      10.142      9.5731      9.2618      9.0893      8.9958      8.9489      8.9280      8.9185      8.9105    
  8.8991      8.8854      8.8740      8.8689      8.8697      8.8729      8.7983      8.7988      8.8016      8.8094    
  8.8250      8.8474      8.8714      8.8922      8.9105      8.9332      8.9731      9.0485      9.1869      9.4363    
  9.8911      10.744      12.358      15.359      20.699      29.627      43.793      66.329      99.409      142.38    
  191.51      240.64      282.62      310.87      320.84      310.87      282.62      240.64      191.51      142.38    
  99.409      66.329      43.793      29.627      20.699      15.359      12.358      10.744      9.8911      9.4363    
  9.1869      9.0485      8.9731      8.9332      8.9105      8.8922      8.8714      8.8474      8.8250      8.8094    
  8.8016      8.7988      8.7370      8.7391      8.7462      8.7602      8.7829      8.8125      8.8433      8.8714    
  8.8991      8.9361      8.9977      9.1065      9.2989      9.6438      10.284      11.512      13.885      18.351    
  26.335      39.768      62.606      99.409      151.89      217.70      290.58      361.59      421.07      460.57    
  474.41      460.57      421.07      361.59      290.58      217.70      151.89      99.409      62.606      39.768    
  26.335      18.351      13.885      11.512      10.284      9.6438      9.2989      9.1065      8.9977      8.9361    
  8.8991      8.8714      8.8433      8.8125      8.7829      8.7602      8.7462      8.7391      8.6819      8.6851    
  8.6953      8.7138      8.7416      8.7762      8.8125      8.8474      8.8854      8.9382      9.0238      9.1695    
  9.4226      9.8781      10.739      12.427      15.737      22.015      33.245      52.985      87.711      142.38    
  217.70      309.13      407.57      501.32      578.52      629.22      646.88      629.22      578.52      501.32    
  407.57      309.13      217.70      142.38      87.711      52.985      33.245      22.015      15.737      12.427    
  10.739      9.8781      9.4226      9.1695      9.0238      8.9382      8.8854      8.8474      8.8125      8.7762    
  8.7416      8.7138      8.6953      8.6851      8.6311      8.6352      8.6479      8.6702      8.7024      8.7416    
  8.7829      8.8250      8.8740      8.9432      9.0531      9.2360      9.5514      10.124      11.228      13.429    
  17.792      26.099      41.083      68.830      117.34      191.51      290.58      407.57      530.60      645.60    
  739.02      799.84      820.93      799.84      739.02      645.60      530.60      407.57      290.58      191.51    
  117.34      68.830      41.083      26.099      17.792      13.429      11.228      10.124      9.5514      9.2360    
  9.0531      8.9432      8.8740      8.8250      8.7829      8.7416      8.7024      8.6702      8.6479      8.6352    
  8.5878      8.5927      8.6078      8.6338      8.6702      8.7138      8.7602      8.8094      8.8689      8.9531    
  9.0847      9.3012      9.6745      10.360      11.703      14.415      19.832      30.167      49.250      85.528    
  147.83      240.64      361.59      501.32      645.60      778.57      885.51      954.72      978.66      954.72    
  885.51      778.57      645.60      501.32      361.59      240.64      147.83      85.528      49.250      30.167    
  19.832      14.415      11.703      10.360      9.6745      9.3012      9.0847      8.9531      8.8689      8.8094    
  8.7602      8.7138      8.6702      8.6338      8.6078      8.5927      8.5561      8.5616      8.5787      8.6078    
  8.6479      8.6953      8.7462      8.8016      8.8697      8.9659      9.1145      9.3576      9.7776      10.557    
  12.104      15.257      21.585      33.665      56.585      100.42      174.46      282.62      421.07      578.52    
  739.02      885.51      1002.6      1078.1      1104.2      1078.1      1002.6      885.51      739.02      578.52    
  421.07      282.62      174.46      100.42      56.585      33.665      21.585      15.257      12.104      10.557    
  9.7776      9.3576      9.1145      8.9659      8.8697      8.8016      8.7462      8.6953      8.6479      8.6078    
  8.5787      8.5616      8.5376      8.5435      8.5616      8.5927      8.6352      8.6851      8.7391      8.7988    
  8.8729      8.9769      9.1363      9.3962      9.8467      10.689      12.373      15.826      22.775      36.051    
  61.719      110.76      192.65      310.87      460.57      629.22      799.84      954.72      1078.1      1157.6    
  1185.0      1157.6      1078.1      954.72      799.84      629.22      460.57      310.87      192.65      110.76    
  61.719      36.051      22.775      15.826      12.373      10.689      9.8467      9.3962      9.1363      8.9769    
  8.8729      8.7988      8.7391      8.6851      8.6352      8.5927      8.5616      8.5435      8.5317      8.5376    
  8.5561      8.5878      8.6311      8.6819      8.7370      8.7983      8.8745      8.9812      9.1443      9.4100    
  9.8710      10.735      12.468      16.028      23.196      36.903      63.567      114.46      199.11      320.84    
  474.41      646.88      820.93      978.66      1104.2      1185.0      1212.9      1185.0      1104.2      978.66    
  820.93      646.88      474.41      320.84      199.11      114.46      63.567      36.903      23.196      16.028    
  12.468      10.735      9.8710      9.4100      9.1443      8.9812      8.8745      8.7983      8.7370      8.6819    
  8.6311      8.5878      8.5561      8.5376      8.5376      8.5435      8.5616      8.5927      8.6352      8.6851    
  8.7391      8.7988      8.8729      8.9769      9.1363      9.3962      9.8467      10.689      12.373      15.826    
  22.775      36.051      61.719      110.76      192.65      310.87      460.57      629.22      799.84      954.72    
  1078.1      1157.6      1185.0      1157.6      1078.1      954.72      799.84      629.22      460.57      310.87    
  192.65      110.76      61.719      36.051      22.775      15.826      12.373      10.689      9.8467      9.3962    
  9.1363      8.9769      8.8729      8.7988      8.7391      8.6851      8.6352      8.5927      8.5616      8.5435    
  8.5561      8.5616      8.5787      8.6078      8.6479      8.6953      8.7462      8.8016      8.8697      8.9659    
  9.1145      9.3576      9.7776      10.557      12.104      15.257      21.585      33.665      56.585      100.42    
  174.46      282.62      421.07      578.52      739.02      885.51      1002.6      1078.1      1104.2      1078.1    
  1002.6      885.51      739.02      578.52      421.07      282.62      174.46      100.42      56.585      33.665    
  21.585      15.257      12.104      10.557      9.7776      9.3576      9.1145      8.9659      8.8697      8.8016    
  8.7462      8.6953      8.6479      8.6078      8.5787      8.5616      8.5878      8.5927      8.6078      8.6338    
  8.6702      8.7138      8.7602      8.8094      8.8689      8.9531      9.0847      9.3012      9.6745      10.360    
  11.703      14.415      19.832      30.167      49.250      85.528      147.83      240.64      361.59      501.32    
  645.60      778.57      885.51      954.72      978.66      954.72      885.51      778.57      645.60      501.32    
  361.59      240.64      147.83      85.528      49.250      30.167      19.832      14.415      11.703      10.360    
  9.6745      9.3012      9.0847      8.9531      8.8689      8.8094      8.7602      8.7138      8.6702      8.6338    
  8.6078      8.5927      8.6311      8.6352      8.6479      8.6702      8.7024      8.7416      8.7829      8.8250    
  8.8740      8.9432      9.0531      9.2360      9.5514      10.124      11.228      13.429      17.792      26.099    
  41.083      68.830      117.34      191.51      290.58      407.57      530.60      645.60      739.02      799.84    
  820.93      799.84      739.02      645.60      530.60      407.57      290.58      191.51      117.34      68.830    
  41.083      26.099      17.792      13.429      11.228      10.124      9.5514      9.2360      9.0531      8.9432    
  8.8740      8.8250      8.7829      8.7416      8.7024      8.6702      8.6479      8.6352      8.6819      8.6851    
  8.6953      8.7138      8.7416      8.7762      8.8125      8.8474      8.8854      8.9382      9.0238      9.1695    
  9.4226      9.8781      10.739      12.427      15.737      22.015      33.245      52.985      87.711      142.38    
  217.70      309.13      407.57      501.32      578.52      629.22      646.88      629.22      578.52      501.32    
  407.57      309.13      217.70      142.38      87.711      52.985      33.245      22.015      15.737      12.427    
  10.739      9.8781      9.4226      9.1695      9.0238      8.9382      8.8854      8.8474      8.8125      8.7762    
  8.7416      8.7138      8.6953      8.6851      8.7370      8.7391      8.7462      8.7602      8.7829      8.8125    
  8.8433      8.8714      8.8991      8.9361      8.9977      9.1065      9.2989      9.6438      10.284      11.512    
  13.885      18.351      26.335      39.768      62.606      99.409      151.89      217.70      290.58      361.59    
  421.07      460.57      474.41      460.57      421.07      361.59      290.58      217.70      151.89      99.409    
  62.606      39.768      26.335      18.351      13.885      11.512      10.284      9.6438      9.2989      9.1065    
  8.9977      8.9361      8.8991      8.8714      8.8433      8.8125      8.7829      8.7602      8.7462      8.7391    
  8.7983      8.7988      8.8016      8.8094      8.8250      8.8474      8.8714      8.8922      8.9105      8.9332    
  8.9731      9.0485      9.1869      9.4363      9.8911      10.744      12.358      15.359      20.699      29.627    
  43.793      66.329      99.409      142.38      191.51      240.64      282.62      310.87      320.84      310.87    
  282.62      240.64      191.51      142.38      99.409      66.329      43.793      29.627      20.699      15.359    
  12.358      10.744      9.8911      9.4363      9.1869      9.0485      8.9731      8.9332      8.9105      8.8922    
  8.8714      8.8474      8.8250      8.8094      8.8016      8.7988      8.8745      8.8729      8.8697      8.8689    
  8.8740      8.8854      8.8991      8.9105      8.9185      8.9280      8.9489      8.9958      9.0893      9.2618    
  9.5731      10.142      11.192      13.107      16.479      22.103      30.863      43.793      62.606      87.711    
  117.34      147.83      174.46      192.65      199.11      192.65      174.46      147.83      117.34      87.711    
  62.606      43.793      30.863      22.103      16.479      13.107      11.192      10.142      9.5731      9.2618    
  9.0893      8.9958      8.9489      8.9280      8.9185      8.9105      8.8991      8.8854      8.8740      8.8689    
  8.8697      8.8729      8.9812      8.9769      8.9659      8.9531      8.9432      8.9382      8.9361      8.9332    
  8.9280      8.9233      8.9267      8.9494      9.0068      9.1205      9.3269      9.6951      10.354      11.526    
  13.553      16.900      22.103      29.627      39.768      52.985      68.830      85.528      100.42      110.76    
  114.46      110.76      100.42      85.528      68.830      52.985      39.768      29.627      22.103      16.900    
  13.553      11.526      10.354      9.6951      9.3269      9.1205      9.0068      8.9494      8.9267      8.9233    
  8.9280      8.9332      8.9361      8.9382      8.9432      8.9531      8.9659      8.9769      9.1443      9.1363    
  9.1145      9.0847      9.0531      9.0238      8.9977      8.9731      8.9489      8.9267      8.9118      8.9127    
  8.9407      9.0100      9.1425      9.3766      9.7821      10.478      11.651      13.553      16.479      20.699    
  26.335      33.245      41.083      49.250      56.585      61.719      63.567      61.719      56.585      49.250    
  41.083      33.245      26.335      20.699      16.479      13.553      11.651      10.478      9.7821      9.3766    
  9.1425      9.0100      8.9407      8.9127      8.9118      8.9267      8.9489      8.9731      8.9977      9.0238    
  9.0531      9.0847      9.1145      9.1363      9.4100      9.3962      9.3576      9.3012      9.2360      9.1695    
  9.1065      9.0485      8.9958      8.9494      8.9127      8.8915      8.8935      8.9284      9.0091      9.1559    
  9.4042      9.8139      10.478      11.526      13.107      15.359      18.351      22.015      26.099      30.167    
  33.665      36.051      36.903      36.051      33.665      30.167      26.099      22.015      18.351      15.359    
  13.107      11.526      10.478      9.8139      9.4042      9.1559      9.0091      8.9284      8.8935      8.8915    
  8.9127      8.9494      8.9958      9.0485      9.1065      9.1695      9.2360      9.3012      9.3576      9.3962    
  9.8710      9.8467      9.7776      9.6745      9.5514      9.4226      9.2989      9.1869      9.0893      9.0068    
  8.9407      8.8935      8.8698      8.8756      8.9180      9.0075      9.1604      9.4042      9.7821      10.354    
  11.192      12.358      13.885      15.737      17.792      19.832      21.585      22.775      23.196      22.775    
  21.585      19.832      17.792      15.737      13.885      12.358      11.192      10.354      9.7821      9.4042    
  9.1604      9.0075      8.9180      8.8756      8.8698      8.8935      8.9407      9.0068      9.0893      9.1869    
  9.2989      9.4226      9.5514      9.6745      9.7776      9.8467      10.735      10.689      10.557      10.360    
  10.124      9.8781      9.6438      9.4363      9.2618      9.1205      9.0100      8.9284      8.8756      8.8533    
  8.8647      8.9140      9.0075      9.1559      9.3766      9.6951      10.142      10.744      11.512      12.427    
  13.429      14.415      15.257      15.826      16.028      15.826      15.257      14.415      13.429      12.427    
  11.512      10.744      10.142      9.6951      9.3766      9.1559      9.0075      8.9140      8.8647      8.8533    
  8.8756      8.9284      9.0100      9.1205      9.2618      9.4363      9.6438      9.8781      10.124      10.360    
  10.557      10.689      12.468      12.373      12.104      11.703      11.228      10.739      10.284      9.8911    
  9.5731      9.3269      9.1425      9.0091      8.9180      8.8647      8.8471      8.8647      8.9180      9.0091    
  9.1425      9.3269      9.5731      9.8911      10.284      10.739      11.228      11.703      12.104      12.373    
  12.468      12.373      12.104      11.703      11.228      10.739      10.284      9.8911      9.5731      9.3269    
  9.1425      9.0091      8.9180      8.8647      8.8471      8.8647      8.9180      9.0091      9.1425      9.3269    
  9.5731      9.8911      10.284      10.739      11.228      11.703      12.104      12.373      16.028      15.826    
  15.257      14.415      13.429      12.427      11.512      10.744      10.142      9.6951      9.3766      9.1559    
  9.0075      8.9140      8.8647      8.8533      8.8756      8.9284      9.0100      9.1205      9.2618      9.4363    
  9.6438      9.8781      10.124      10.360      10.557      10.689      10.735      10.689      10.557      10.360    
  10.124      9.8781      9.6438      9.4363      9.2618      9.1205      9.0100      8.9284      8.8756      8.8533    