Ca                                      
   1.00000000000000     
     5.525070    0.000000    0.000000
     0.000000    5.525070    0.000000
     0.000000    0.000000    5.525070
   Ca
     4
Direct
  0.000000  0.000000  0.000000
  0.000000  0.500000  0.500000
  0.500000  0.000000  0.500000
  0.500000  0.500000  0.000000
 
   56   56   56
 0.12129021789E+04 0.11850022399E+04 0.11041890710E+04 0.97865802971E+03 0.82093064454E+03
 0.64688207764E+03 0.47440911691E+03 0.32083515622E+03 0.19910738895E+03 0.11445522905E+03
 0.63567277757E+02 0.36902570575E+02 0.23196324556E+02 0.16027743347E+02 0.12467684740E+02
 0.10735210063E+02 0.98710268165E+01 0.94100280009E+01 0.91442796248E+01 0.89811508206E+01
 0.88744915164E+01 0.87982906422E+01 0.87369766265E+01 0.86819149341E+01 0.86311120096E+01
 0.85877924369E+01 0.85561048072E+01 0.85376335760E+01 0.85316868896E+01 0.85376335760E+01
 0.85561048072E+01 0.85877924369E+01 0.86311120096E+01 0.86819149341E+01 0.87369766265E+01
 0.87982906422E+01 0.88744915164E+01 0.89811508206E+01 0.91442796248E+01 0.94100280009E+01
 0.98710268165E+01 0.10735210063E+02 0.12467684740E+02 0.16027743347E+02 0.23196324557E+02
 0.36902570575E+02 0.63567277757E+02 0.11445522905E+03 0.19910738895E+03 0.32083515622E+03
 0.47440911691E+03 0.64688207764E+03 0.82093064454E+03 0.97865802971E+03 0.11041890710E+04
 0.11850022399E+04 0.11850022399E+04 0.11575662523E+04 0.10781038766E+04 0.95471838368E+03
 0.79983601089E+03 0.62922171002E+03 0.46057288306E+03 0.31087373911E+03 0.19264703446E+03
 0.11075670393E+03 0.61719194394E+02 0.36051170206E+02 0.22774687806E+02 0.15826366548E+02
 0.12372779587E+02 0.10688941245E+02 0.98466940792E+01 0.93962339452E+01 0.91362803255E+01
 0.89768581813E+01 0.88729138816E+01 0.87988329999E+01 0.87390954262E+01 0.86851494967E+01
 0.86352327691E+01 0.85927077334E+01 0.85616345377E+01 0.85434914968E+01 0.85376335760E+01
 0.85434914968E+01 0.85616345377E+01 0.85927077334E+01 0.86352327691E+01 0.86851494967E+01
 0.87390954262E+01 0.87988329999E+01 0.88729138816E+01 0.89768581813E+01 0.91362803255E+01
 0.93962339452E+01 0.98466940792E+01 0.10688941245E+02 0.12372779587E+02 0.15826366548E+02
 0.22774687806E+02 0.36051170206E+02 0.61719194394E+02 0.11075670393E+03 0.19264703446E+03
 0.31087373911E+03 0.46057288306E+03 0.62922171002E+03 0.79983601089E+03 0.95471838368E+03
 0.10781038766E+04 0.11575662523E+04 0.11041890710E+04 0.10781038766E+04 0.10025897437E+04
 0.88550985165E+03 0.73901719820E+03 0.57851806071E+03 0.42106826014E+03 0.28261981528E+03
 0.17445898003E+03 0.10042489806E+03 0.56585412388E+02 0.33664727349E+02 0.21585277610E+02
 0.15257294367E+02 0.12103684004E+02 0.10557358412E+02 0.97776333097E+01 0.93575819125E+01
 0.91145252241E+01 0.89659039126E+01 0.88697363438E+01 0.88015747295E+01 0.87461635552E+01
 0.86953050863E+01 0.86479382470E+01 0.86078015384E+01 0.85786647263E+01 0.85616345377E+01
 0.85561048072E+01 0.85616345377E+01 0.85786647263E+01 0.86078015384E+01 0.86479382470E+01
 0.86953050863E+01 0.87461635552E+01 0.88015747295E+01 0.88697363438E+01 0.89659039126E+01
 0.91145252241E+01 0.93575819125E+01 0.97776333097E+01 0.10557358412E+02 0.12103684004E+02
 0.15257294367E+02 0.21585277610E+02 0.33664727349E+02 0.56585412388E+02 0.10042489806E+03
 0.17445898003E+03 0.28261981528E+03 0.42106826014E+03 0.57851806071E+03 0.73901719820E+03
 0.88550985165E+03 0.10025897437E+04 0.10781038766E+04 0.97865802971E+03 0.95471838368E+03
 0.88550985165E+03 0.77856956778E+03 0.64560078425E+03 0.50131721675E+03 0.36159089364E+03
 0.24064092069E+03 0.14783265772E+03 0.85527741457E+02 0.49250266979E+02 0.30167232444E+02
 0.19832432433E+02 0.14415488382E+02 0.11702903501E+02 0.10360180415E+02 0.96744663965E+01
 0.93011987370E+01 0.90846670360E+01 0.89530560133E+01 0.88688547627E+01 0.88094364775E+01
 0.87602144707E+01 0.87137870262E+01 0.86702242078E+01 0.86337949292E+01 0.86078015384E+01
 0.85927077334E+01 0.85877924369E+01 0.85927077334E+01 0.86078015384E+01 0.86337949292E+01
 0.86702242078E+01 0.87137870262E+01 0.87602144707E+01 0.88094364775E+01 0.88688547627E+01
 0.89530560133E+01 0.90846670360E+01 0.93011987370E+01 0.96744663965E+01 0.10360180415E+02
 0.11702903501E+02 0.14415488382E+02 0.19832432433E+02 0.30167232444E+02 0.49250266979E+02
 0.85527741457E+02 0.14783265772E+03 0.24064092069E+03 0.36159089364E+03 0.50131721675E+03
 0.64560078425E+03 0.77856956778E+03 0.88550985165E+03 0.95471838368E+03 0.82093064454E+03
 0.79983601089E+03 0.73901719820E+03 0.64560078425E+03 0.53059624142E+03 0.40756730962E+03
 0.29058334784E+03 0.19150789761E+03 0.11734451784E+03 0.68830493125E+02 0.41082748990E+02
 0.26099084399E+02 0.17791510791E+02 0.13429236780E+02 0.11228411992E+02 0.10124464777E+02
 0.95514222462E+01 0.92359505434E+01 0.90530552611E+01 0.89431897230E+01 0.88739737125E+01
 0.88250298199E+01 0.87829297907E+01 0.87415506009E+01 0.87023636675E+01 0.86702242078E+01
 0.86479382470E+01 0.86352327691E+01 0.86311120096E+01 0.86352327691E+01 0.86479382470E+01
 0.86702242078E+01 0.87023636675E+01 0.87415506009E+01 0.87829297907E+01 0.88250298199E+01
 0.88739737125E+01 0.89431897230E+01 0.90530552611E+01 0.92359505434E+01 0.95514222462E+01
 0.10124464777E+02 0.11228411992E+02 0.13429236780E+02 0.17791510791E+02 0.26099084399E+02
 0.41082748990E+02 0.68830493125E+02 0.11734451784E+03 0.19150789761E+03 0.29058334784E+03
 0.40756730962E+03 0.53059624142E+03 0.64560078425E+03 0.73901719820E+03 0.79983601089E+03
 0.64688207764E+03 0.62922171002E+03 0.57851806071E+03 0.50131721675E+03 0.40756730962E+03
 0.30913384986E+03 0.21770445142E+03 0.14238312924E+03 0.87711473722E+02 0.52984703496E+02
 0.33245053898E+02 0.22014694439E+02 0.15737451546E+02 0.12427403468E+02 0.10739345597E+02
 0.98780533762E+01 0.94225975296E+01 0.91695003395E+01 0.90238480506E+01 0.89382167923E+01
 0.88853606487E+01 0.88473697096E+01 0.88124702562E+01 0.87762275636E+01 0.87415506009E+01
 0.87137870262E+01 0.86953050863E+01 0.86851494967E+01 0.86819149341E+01 0.86851494967E+01
 0.86953050863E+01 0.87137870262E+01 0.87415506009E+01 0.87762275636E+01 0.88124702562E+01
 0.88473697096E+01 0.88853606487E+01 0.89382167923E+01 0.90238480506E+01 0.91695003395E+01
 0.94225975296E+01 0.98780533762E+01 0.10739345597E+02 0.12427403468E+02 0.15737451546E+02
 0.22014694439E+02 0.33245053898E+02 0.52984703496E+02 0.87711473722E+02 0.14238312924E+03
 0.21770445142E+03 0.30913384986E+03 0.40756730962E+03 0.50131721675E+03 0.57851806071E+03
 0.62922171002E+03 0.47440911691E+03 0.46057288306E+03 0.42106826014E+03 0.36159089364E+03
 0.29058334784E+03 0.21770445142E+03 0.15188730268E+03 0.99409356106E+02 0.62606461475E+02
 0.39767746915E+02 0.26334890800E+02 0.18350838364E+02 0.13885032519E+02 0.11511967293E+02
 0.10283643447E+02 0.96438026946E+01 0.92989394168E+01 0.91064723663E+01 0.89977408355E+01
 0.89361189187E+01 0.88991022550E+01 0.88713849379E+01 0.88433307970E+01 0.88124702562E+01
 0.87829297907E+01 0.87602144707E+01 0.87461635552E+01 0.87390954262E+01 0.87369766265E+01
 0.87390954262E+01 0.87461635552E+01 0.87602144707E+01 0.87829297907E+01 0.88124702562E+01
 0.88433307970E+01 0.88713849379E+01 0.88991022550E+01 0.89361189187E+01 0.89977408355E+01
 0.91064723663E+01 0.92989394168E+01 0.96438026946E+01 0.10283643447E+02 0.11511967293E+02
 0.13885032519E+02 0.18350838364E+02 0.26334890800E+02 0.39767746915E+02 0.62606461475E+02
 0.99409356106E+02 0.15188730268E+03 0.21770445142E+03 0.29058334784E+03 0.36159089364E+03
 0.42106826014E+03 0.46057288306E+03 0.32083515622E+03 0.31087373911E+03 0.28261981528E+03
 0.24064092069E+03 0.19150789761E+03 0.14238312924E+03 0.99409356106E+02 0.66328686080E+02
 0.43792507183E+02 0.29627212468E+02 0.20698502612E+02 0.15359259179E+02 0.12358203526E+02
 0.10743595551E+02 0.98911412794E+01 0.94363148648E+01 0.91869419405E+01 0.90484839861E+01
 0.89731468299E+01 0.89332376442E+01 0.89104718521E+01 0.88922464134E+01 0.88713849379E+01
 0.88473697096E+01 0.88250298199E+01 0.88094364775E+01 0.88015747295E+01 0.87988329999E+01
 0.87982906422E+01 0.87988329999E+01 0.88015747295E+01 0.88094364775E+01 0.88250298199E+01
 0.88473697096E+01 0.88713849379E+01 0.88922464134E+01 0.89104718521E+01 0.89332376442E+01
 0.89731468299E+01 0.90484839861E+01 0.91869419405E+01 0.94363148648E+01 0.98911412794E+01
 0.10743595551E+02 0.12358203526E+02 0.15359259179E+02 0.20698502612E+02 0.29627212468E+02
 0.43792507183E+02 0.66328686080E+02 0.99409356106E+02 0.14238312924E+03 0.19150789761E+03
 0.24064092069E+03 0.28261981528E+03 0.31087373911E+03 0.19910738895E+03 0.19264703446E+03
 0.17445898003E+03 0.14783265772E+03 0.11734451784E+03 0.87711473722E+02 0.62606461475E+02
 0.43792507183E+02 0.30863438914E+02 0.22103367114E+02 0.16479498090E+02 0.13107129538E+02
 0.11191554210E+02 0.10141725404E+02 0.95731228072E+01 0.92618020129E+01 0.90892884442E+01
 0.89957886913E+01 0.89489108037E+01 0.89280132674E+01 0.89185126018E+01 0.89104718521E+01
 0.88991022550E+01 0.88853606487E+01 0.88739737125E+01 0.88688547627E+01 0.88697363438E+01
 0.88729138816E+01 0.88744915164E+01 0.88729138816E+01 0.88697363438E+01 0.88688547627E+01
 0.88739737125E+01 0.88853606487E+01 0.88991022550E+01 0.89104718521E+01 0.89185126018E+01
 0.89280132674E+01 0.89489108037E+01 0.89957886913E+01 0.90892884442E+01 0.92618020129E+01
 0.95731228072E+01 0.10141725404E+02 0.11191554210E+02 0.13107129538E+02 0.16479498090E+02
 0.22103367114E+02 0.30863438914E+02 0.43792507183E+02 0.62606461475E+02 0.87711473722E+02
 0.11734451784E+03 0.14783265772E+03 0.17445898003E+03 0.19264703446E+03 0.11445522905E+03
 0.11075670393E+03 0.10042489806E+03 0.85527741457E+02 0.68830493125E+02 0.52984703496E+02
 0.39767746915E+02 0.29627212468E+02 0.22103367114E+02 0.16900072445E+02 0.13552717452E+02
 0.11526079996E+02 0.10354310455E+02 0.96951485424E+01 0.93268925681E+01 0.91204754610E+01
 0.90068168075E+01 0.89494349657E+01 0.89266848295E+01 0.89233331125E+01 0.89280132674E+01
 0.89332376442E+01 0.89361189187E+01 0.89382167923E+01 0.89431897230E+01 0.89530560133E+01
 0.89659039126E+01 0.89768581813E+01 0.89811508206E+01 0.89768581813E+01 0.89659039126E+01
 0.89530560133E+01 0.89431897230E+01 0.89382167923E+01 0.89361189187E+01 0.89332376442E+01
 0.89280132674E+01 0.89233331125E+01 0.89266848295E+01 0.89494349657E+01 0.90068168075E+01
 0.91204754610E+01 0.93268925681E+01 0.96951485424E+01 0.10354310455E+02 0.11526079996E+02
 0.13552717452E+02 0.16900072445E+02 0.22103367114E+02 0.29627212468E+02 0.39767746915E+02
 0.52984703496E+02 0.68830493125E+02 0.85527741457E+02 0.10042489806E+03 0.11075670393E+03
 0.63567277757E+02 0.61719194394E+02 0.56585412388E+02 0.49250266979E+02 0.41082748990E+02
 0.33245053898E+02 0.26334890800E+02 0.20698502612E+02 0.16479498090E+02 0.13552717452E+02
 0.11650847671E+02 0.10478437955E+02 0.97820817891E+01 0.93766354339E+01 0.91425391442E+01
 0.90099922685E+01 0.89406510099E+01 0.89127292626E+01 0.89117815682E+01 0.89266848295E+01
 0.89489108037E+01 0.89731468299E+01 0.89977408355E+01 0.90238480506E+01 0.90530552611E+01
 0.90846670360E+01 0.91145252241E+01 0.91362803255E+01 0.91442796248E+01 0.91362803255E+01
 0.91145252241E+01 0.90846670360E+01 0.90530552611E+01 0.90238480506E+01 0.89977408355E+01
 0.89731468299E+01 0.89489108037E+01 0.89266848295E+01 0.89117815682E+01 0.89127292626E+01
 0.89406510099E+01 0.90099922685E+01 0.91425391442E+01 0.93766354339E+01 0.97820817891E+01
 0.10478437955E+02 0.11650847671E+02 0.13552717452E+02 0.16479498090E+02 0.20698502612E+02
 0.26334890800E+02 0.33245053898E+02 0.41082748990E+02 0.49250266979E+02 0.56585412388E+02
 0.61719194394E+02 0.36902570575E+02 0.36051170206E+02 0.33664727349E+02 0.30167232444E+02
 0.26099084399E+02 0.22014694439E+02 0.18350838364E+02 0.15359259179E+02 0.13107129538E+02
 0.11526079996E+02 0.10478437955E+02 0.98139015406E+01 0.94041500657E+01 0.91558657291E+01
 0.90090533160E+01 0.89283883558E+01 0.88934954410E+01 0.88914823958E+01 0.89127292626E+01
 0.89494349657E+01 0.89957886913E+01 0.90484839861E+01 0.91064723663E+01 0.91695003395E+01
 0.92359505434E+01 0.93011987370E+01 0.93575819125E+01 0.93962339452E+01 0.94100280009E+01
 0.93962339452E+01 0.93575819125E+01 0.93011987370E+01 0.92359505434E+01 0.91695003395E+01
 0.91064723663E+01 0.90484839861E+01 0.89957886913E+01 0.89494349657E+01 0.89127292626E+01
 0.88914823958E+01 0.88934954410E+01 0.89283883558E+01 0.90090533160E+01 0.91558657291E+01
 0.94041500657E+01 0.98139015406E+01 0.10478437955E+02 0.11526079996E+02 0.13107129538E+02
 0.15359259179E+02 0.18350838364E+02 0.22014694439E+02 0.26099084399E+02 0.30167232444E+02
 0.33664727349E+02 0.36051170206E+02 0.23196324557E+02 0.22774687806E+02 0.21585277610E+02
 0.19832432433E+02 0.17791510791E+02 0.15737451546E+02 0.13885032519E+02 0.12358203526E+02
 0.11191554210E+02 0.10354310455E+02 0.97820817891E+01 0.94041500657E+01 0.91603712234E+01
 0.90075018018E+01 0.89180386251E+01 0.88755587309E+01 0.88698316789E+01 0.88934954410E+01
 0.89406510099E+01 0.90068168075E+01 0.90892884442E+01 0.91869419405E+01 0.92989394168E+01
 0.94225975296E+01 0.95514222462E+01 0.96744663965E+01 0.97776333097E+01 0.98466940792E+01
 0.98710268165E+01 0.98466940792E+01 0.97776333097E+01 0.96744663965E+01 0.95514222462E+01
 0.94225975296E+01 0.92989394168E+01 0.91869419405E+01 0.90892884442E+01 0.90068168075E+01
 0.89406510099E+01 0.88934954410E+01 0.88698316789E+01 0.88755587309E+01 0.89180386251E+01
 0.90075018018E+01 0.91603712234E+01 0.94041500657E+01 0.97820817891E+01 0.10354310455E+02
 0.11191554210E+02 0.12358203526E+02 0.13885032519E+02 0.15737451546E+02 0.17791510791E+02
 0.19832432433E+02 0.21585277610E+02 0.22774687806E+02 0.16027743347E+02 0.15826366548E+02
 0.15257294367E+02 0.14415488382E+02 0.13429236780E+02 0.12427403468E+02 0.11511967293E+02
 0.10743595551E+02 0.10141725404E+02 0.96951485424E+01 0.93766354339E+01 0.91558657291E+01
 0.90075018018E+01 0.89140087107E+01 0.88647157410E+01 0.88533017725E+01 0.88755587309E+01
 0.89283883558E+01 0.90099922685E+01 0.91204754610E+01 0.92618020129E+01 0.94363148648E+01
 0.96438026946E+01 0.98780533762E+01 0.10124464777E+02 0.10360180415E+02 0.10557358412E+02
 0.10688941245E+02 0.10735210063E+02 0.10688941245E+02 0.10557358412E+02 0.10360180415E+02
 0.10124464777E+02 0.98780533762E+01 0.96438026946E+01 0.94363148648E+01 0.92618020129E+01
 0.91204754610E+01 0.90099922685E+01 0.89283883558E+01 0.88755587309E+01 0.88533017725E+01
 0.88647157410E+01 0.89140087107E+01 0.90075018018E+01 0.91558657291E+01 0.93766354339E+01
 0.96951485424E+01 0.10141725404E+02 0.10743595551E+02 0.11511967293E+02 0.12427403468E+02
 0.13429236780E+02 0.14415488382E+02 0.15257294367E+02 0.15826366548E+02 0.12467684740E+02
 0.12372779587E+02 0.12103684004E+02 0.11702903501E+02 0.11228411992E+02 0.10739345597E+02
 0.10283643447E+02 0.98911412794E+01 0.95731228072E+01 0.93268925681E+01 0.91425391442E+01
 0.90090533160E+01 0.89180386251E+01 0.88647157410E+01 0.88470983985E+01 0.88647157410E+01
 0.89180386251E+01 0.90090533160E+01 0.91425391442E+01 0.93268925681E+01 0.95731228072E+01
 0.98911412794E+01 0.10283643447E+02 0.10739345597E+02 0.11228411992E+02 0.11702903501E+02
 0.12103684004E+02 0.12372779587E+02 0.12467684740E+02 0.12372779587E+02 0.12103684004E+02
 0.11702903501E+02 0.11228411992E+02 0.10739345597E+02 0.10283643447E+02 0.98911412794E+01
 0.95731228072E+01 0.93268925681E+01 0.91425391442E+01 0.90090533160E+01 0.89180386251E+01
 0.88647157410E+01 0.88470983985E+01 0.88647157410E+01 0.89180386251E+01 0.90090533160E+01
 0.91425391442E+01 0.93268925681E+01 0.95731228072E+01 0.98911412794E+01 0.10283643447E+02
 0.10739345597E+02 0.11228411992E+02 0.11702903501E+02 0.12103684004E+02 0.12372779587E+02
 0.10735210063E+02 0.10688941245E+02 0.10557358412E+02 0.10360180415E+02 0.10124464777E+02
 0.98780533762E+01 0.96438026946E+01 0.94363148648E+01 0.92618020129E+01 0.91204754610E+01
 0.90099922685E+01 0.89283883558E+01 0.88755587309E+01 0.88533017725E+01 0.88647157410E+01
 0.89140087107E+01 0.90075018018E+01 0.91558657291E+01 0.93766354339E+01 0.96951485424E+01
 0.10141725404E+02 0.10743595551E+02 0.11511967293E+02 0.12427403468E+02 0.13429236780E+02
 0.14415488382E+02 0.15257294367E+02 0.15826366548E+02 0.16027743347E+02 0.15826366548E+02
 0.15257294367E+02 0.14415488382E+02 0.13429236780E+02 0.12427403468E+02 0.11511967293E+02
 0.10743595551E+02 0.10141725404E+02 0.96951485424E+01 0.93766354339E+01 0.91558657291E+01
 0.90075018018E+01 0.89140087107E+01 0.88647157410E+01 0.88533017725E+01 0.88755587309E+01
 0.89283883558E+01 0.90099922685E+01 0.91204754610E+01 0.92618020129E+01 0.94363148648E+01
 0.96438026946E+01 0.98780533762E+01 0.10124464777E+02 0.10360180415E+02 0.10557358412E+02
 0.10688941245E+02 0.98710268165E+01 0.98466940792E+01 0.97776333097E+01 0.96744663965E+01
 0.95514222462E+01 0.94225975296E+01 0.92989394168E+01 0.91869419405E+01 0.90892884442E+01
 0.90068168075E+01 0.89406510099E+01 0.88934954410E+01 0.88698316789E+01 0.88755587309E+01
 0.89180386251E+01 0.90075018018E+01 0.91603712234E+01 0.94041500657E+01 0.97820817891E+01
 0.10354310455E+02 0.11191554210E+02 0.12358203526E+02 0.13885032519E+02 0.15737451546E+02
 0.17791510791E+02 0.19832432433E+02 0.21585277610E+02 0.22774687806E+02 0.23196324557E+02
 0.22774687806E+02 0.21585277610E+02 0.19832432433E+02 0.17791510791E+02 0.15737451546E+02
 0.13885032519E+02 0.12358203526E+02 0.11191554210E+02 0.10354310455E+02 0.97820817891E+01
 0.94041500657E+01 0.91603712234E+01 0.90075018018E+01 0.89180386251E+01 0.88755587309E+01
 0.88698316789E+01 0.88934954410E+01 0.89406510099E+01 0.90068168075E+01 0.90892884442E+01
 0.91869419405E+01 0.92989394168E+01 0.94225975296E+01 0.95514222462E+01 0.96744663965E+01
 0.97776333097E+01 0.98466940792E+01 0.94100280009E+01 0.93962339452E+01 0.93575819125E+01
 0.93011987370E+01 0.92359505434E+01 0.91695003395E+01 0.91064723663E+01 0.90484839861E+01
 0.89957886913E+01 0.89494349657E+01 0.89127292626E+01 0.88914823958E+01 0.88934954410E+01
 0.89283883558E+01 0.90090533160E+01 0.91558657291E+01 0.94041500657E+01 0.98139015406E+01
 0.10478437955E+02 0.11526079996E+02 0.13107129538E+02 0.15359259179E+02 0.18350838364E+02
 0.22014694439E+02 0.26099084399E+02 0.30167232444E+02 0.33664727349E+02 0.36051170206E+02
 0.36902570575E+02 0.36051170206E+02 0.33664727349E+02 0.30167232444E+02 0.26099084399E+02
 0.22014694439E+02 0.18350838364E+02 0.15359259179E+02 0.13107129538E+02 0.11526079996E+02
 0.10478437955E+02 0.98139015406E+01 0.94041500657E+01 0.91558657291E+01 0.90090533160E+01
 0.89283883558E+01 0.88934954410E+01 0.88914823958E+01 0.89127292626E+01 0.89494349657E+01
 0.89957886913E+01 0.90484839861E+01 0.91064723663E+01 0.91695003395E+01 0.92359505434E+01
 0.93011987370E+01 0.93575819125E+01 0.93962339452E+01 0.91442796248E+01 0.91362803255E+01
 0.91145252241E+01 0.90846670360E+01 0.90530552611E+01 0.90238480506E+01 0.89977408355E+01
 0.89731468299E+01 0.89489108037E+01 0.89266848295E+01 0.89117815682E+01 0.89127292626E+01
 0.89406510099E+01 0.90099922685E+01 0.91425391442E+01 0.93766354339E+01 0.97820817891E+01
 0.10478437955E+02 0.11650847671E+02 0.13552717452E+02 0.16479498090E+02 0.20698502612E+02
 0.26334890800E+02 0.33245053898E+02 0.41082748990E+02 0.49250266979E+02 0.56585412388E+02
 0.61719194394E+02 0.63567277757E+02 0.61719194394E+02 0.56585412388E+02 0.49250266979E+02
 0.41082748990E+02 0.33245053898E+02 0.26334890800E+02 0.20698502612E+02 0.16479498090E+02
 0.13552717452E+02 0.11650847671E+02 0.10478437955E+02 0.97820817891E+01 0.93766354339E+01
 0.91425391442E+01 0.90099922685E+01 0.89406510099E+01 0.89127292626E+01 0.89117815682E+01
 0.89266848295E+01 0.89489108037E+01 0.89731468299E+01 0.89977408355E+01 0.90238480506E+01
 0.90530552611E+01 0.90846670360E+01 0.91145252241E+01 0.91362803255E+01 0.89811508206E+01
 0.89768581813E+01 0.89659039126E+01 0.89530560133E+01 0.89431897230E+01 0.89382167923E+01
 0.89361189187E+01 0.89332376442E+01 0.89280132674E+01 0.89233331125E+01 0.89266848295E+01
 0.89494349657E+01 0.90068168075E+01 0.91204754610E+01 0.93268925681E+01 0.96951485424E+01
 0.10354310455E+02 0.11526079996E+02 0.13552717452E+02 0.16900072445E+02 0.22103367114E+02
 0.29627212468E+02 0.39767746915E+02 0.52984703496E+02 0.68830493125E+02 0.85527741457E+02
 0.10042489806E+03 0.11075670393E+03 0.11445522905E+03 0.11075670393E+03 0.10042489806E+03
 0.85527741457E+02 0.68830493125E+02 0.52984703496E+02 0.39767746915E+02 0.29627212468E+02
 0.22103367114E+02 0.16900072445E+02 0.13552717452E+02 0.11526079996E+02 0.10354310455E+02
 0.96951485424E+01 0.93268925681E+01 0.91204754610E+01 0.90068168075E+01 0.89494349657E+01
 0.89266848295E+01 0.89233331125E+01 0.89280132674E+01 0.89332376442E+01 0.89361189187E+01
 0.89382167923E+01 0.89431897230E+01 0.89530560133E+01 0.89659039126E+01 0.89768581813E+01
 0.88744915164E+01 0.88729138816E+01 0.88697363438E+01 0.88688547627E+01 0.88739737125E+01
 0.88853606487E+01 0.88991022550E+01 0.89104718521E+01 0.89185126018E+01 0.89280132674E+01
 0.89489108037E+01 0.89957886913E+01 0.90892884442E+01 0.92618020129E+01 0.95731228072E+01
 0.10141725404E+02 0.11191554210E+02 0.13107129538E+02 0.16479498090E+02 0.22103367114E+02
 0.30863438914E+02 0.43792507183E+02 0.62606461475E+02 0.87711473722E+02 0.11734451784E+03
 0.14783265772E+03 0.17445898003E+03 0.19264703446E+03 0.19910738895E+03 0.19264703446E+03
 0.17445898003E+03 0.14783265772E+03 0.11734451784E+03 0.87711473722E+02 0.62606461475E+02
 0.43792507183E+02 0.30863438914E+02 0.22103367114E+02 0.16479498090E+02 0.13107129538E+02
 0.11191554210E+02 0.10141725404E+02 0.95731228072E+01 0.92618020129E+01 0.90892884442E+01
 0.89957886913E+01 0.89489108037E+01 0.89280132674E+01 0.89185126018E+01 0.89104718521E+01
 0.88991022550E+01 0.88853606487E+01 0.88739737125E+01 0.88688547627E+01 0.88697363438E+01
 0.88729138816E+01 0.87982906422E+01 0.87988329999E+01 0.88015747295E+01 0.88094364775E+01
 0.88250298199E+01 0.88473697096E+01 0.88713849379E+01 0.88922464134E+01 0.89104718521E+01
 0.89332376442E+01 0.89731468299E+01 0.90484839861E+01 0.91869419405E+01 0.94363148648E+01
 0.98911412794E+01 0.10743595551E+02 0.12358203526E+02 0.15359259179E+02 0.20698502612E+02
 0.29627212468E+02 0.43792507183E+02 0.66328686080E+02 0.99409356106E+02 0.14238312924E+03
 0.19150789761E+03 0.24064092069E+03 0.28261981528E+03 0.31087373911E+03 0.32083515622E+03
 0.31087373911E+03 0.28261981528E+03 0.24064092069E+03 0.19150789761E+03 0.14238312924E+03
 0.99409356106E+02 0.66328686080E+02 0.43792507183E+02 0.29627212468E+02 0.20698502612E+02
 0.15359259179E+02 0.12358203526E+02 0.10743595551E+02 0.98911412794E+01 0.94363148648E+01
 0.91869419405E+01 0.90484839861E+01 0.89731468299E+01 0.89332376442E+01 0.89104718521E+01
 0.88922464134E+01 0.88713849379E+01 0.88473697096E+01 0.88250298199E+01 0.88094364775E+01
 0.88015747295E+01 0.87988329999E+01 0.87369766265E+01 0.87390954262E+01 0.87461635552E+01
 0.87602144707E+01 0.87829297907E+01 0.88124702562E+01 0.88433307970E+01 0.88713849379E+01
 0.88991022550E+01 0.89361189187E+01 0.89977408355E+01 0.91064723663E+01 0.92989394168E+01
 0.96438026946E+01 0.10283643447E+02 0.11511967293E+02 0.13885032519E+02 0.18350838364E+02
 0.26334890800E+02 0.39767746915E+02 0.62606461475E+02 0.99409356106E+02 0.15188730268E+03
 0.21770445142E+03 0.29058334784E+03 0.36159089364E+03 0.42106826014E+03 0.46057288306E+03
 0.47440911691E+03 0.46057288306E+03 0.42106826014E+03 0.36159089364E+03 0.29058334784E+03
 0.21770445142E+03 0.15188730268E+03 0.99409356106E+02 0.62606461475E+02 0.39767746915E+02
 0.26334890800E+02 0.18350838364E+02 0.13885032519E+02 0.11511967293E+02 0.10283643447E+02
 0.96438026946E+01 0.92989394168E+01 0.91064723663E+01 0.89977408355E+01 0.89361189187E+01
 0.88991022550E+01 0.88713849379E+01 0.88433307970E+01 0.88124702562E+01 0.87829297907E+01
 0.87602144707E+01 0.87461635552E+01 0.87390954262E+01 0.86819149341E+01 0.86851494967E+01
 0.86953050863E+01 0.87137870262E+01 0.87415506009E+01 0.87762275636E+01 0.88124702562E+01
 0.88473697096E+01 0.88853606487E+01 0.89382167923E+01 0.90238480506E+01 0.91695003395E+01
 0.94225975296E+01 0.98780533762E+01 0.10739345597E+02 0.12427403468E+02 0.15737451546E+02
 0.22014694439E+02 0.33245053898E+02 0.52984703496E+02 0.87711473722E+02 0.14238312924E+03
 0.21770445142E+03 0.30913384986E+03 0.40756730962E+03 0.50131721675E+03 0.57851806071E+03
 0.62922171002E+03 0.64688207764E+03 0.62922171002E+03 0.57851806071E+03 0.50131721675E+03
 0.40756730962E+03 0.30913384986E+03 0.21770445142E+03 0.14238312924E+03 0.87711473722E+02
 0.52984703496E+02 0.33245053898E+02 0.22014694439E+02 0.15737451546E+02 0.12427403468E+02
 0.10739345597E+02 0.98780533762E+01 0.94225975296E+01 0.91695003395E+01 0.90238480506E+01
 0.89382167923E+01 0.88853606487E+01 0.88473697096E+01 0.88124702562E+01 0.87762275636E+01
 0.87415506009E+01 0.87137870262E+01 0.86953050863E+01 0.86851494967E+01 0.86311120096E+01
 0.86352327691E+01 0.86479382470E+01 0.86702242078E+01 0.87023636675E+01 0.87415506009E+01
 0.87829297907E+01 0.88250298199E+01 0.88739737125E+01 0.89431897230E+01 0.90530552611E+01
 0.92359505434E+01 0.95514222462E+01 0.10124464777E+02 0.11228411992E+02 0.13429236780E+02
 0.17791510791E+02 0.26099084399E+02 0.41082748990E+02 0.68830493125E+02 0.11734451784E+03
 0.19150789761E+03 0.29058334784E+03 0.40756730962E+03 0.53059624142E+03 0.64560078425E+03
 0.73901719820E+03 0.79983601089E+03 0.82093064454E+03 0.79983601089E+03 0.73901719820E+03
 0.64560078425E+03 0.53059624142E+03 0.40756730962E+03 0.29058334784E+03 0.19150789761E+03
 0.11734451784E+03 0.68830493125E+02 0.41082748990E+02 0.26099084399E+02 0.17791510791E+02
 0.13429236780E+02 0.11228411992E+02 0.10124464777E+02 0.95514222462E+01 0.92359505434E+01
 0.90530552611E+01 0.89431897230E+01 0.88739737125E+01 0.88250298199E+01 0.87829297907E+01
 0.87415506009E+01 0.87023636675E+01 0.86702242078E+01 0.86479382470E+01 0.86352327691E+01
 0.85877924369E+01 0.85927077334E+01 0.86078015384E+01 0.86337949292E+01 0.86702242078E+01
 0.87137870262E+01 0.87602144707E+01 0.88094364775E+01 0.88688547627E+01 0.89530560133E+01
 0.90846670360E+01 0.93011987370E+01 0.96744663965E+01 0.10360180415E+02 0.11702903501E+02
 0.14415488382E+02 0.19832432433E+02 0.30167232444E+02 0.49250266979E+02 0.85527741457E+02
 0.14783265772E+03 0.24064092069E+03 0.36159089364E+03 0.50131721675E+03 0.64560078425E+03
 0.77856956778E+03 0.88550985165E+03 0.95471838368E+03 0.97865802971E+03 0.95471838368E+03
 0.88550985165E+03 0.77856956778E+03 0.64560078425E+03 0.50131721675E+03 0.36159089364E+03
 0.24064092069E+03 0.14783265772E+03 0.85527741457E+02 0.49250266979E+02 0.30167232444E+02
 0.19832432433E+02 0.14415488382E+02 0.11702903501E+02 0.10360180415E+02 0.96744663965E+01
 0.93011987370E+01 0.90846670360E+01 0.89530560133E+01 0.88688547627E+01 0.88094364775E+01
 0.87602144707E+01 0.87137870262E+01 0.86702242078E+01 0.86337949292E+01 0.86078015384E+01
 0.85927077334E+01 0.85561048072E+01 0.85616345377E+01 0.85786647263E+01 0.86078015384E+01
 0.86479382470E+01 0.86953050863E+01 0.87461635552E+01 0.88015747295E+01 0.88697363438E+01
 0.89659039126E+01 0.91145252241E+01 0.93575819125E+01 0.97776333097E+01 0.10557358412E+02
 0.12103684004E+02 0.15257294367E+02 0.21585277610E+02 0.33664727349E+02 0.56585412388E+02
 0.10042489806E+03 0.17445898003E+03 0.28261981528E+03 0.42106826014E+03 0.57851806071E+03
 0.73901719820E+03 0.88550985165E+03 0.10025897437E+04 0.10781038766E+04 0.11041890710E+04
 0.10781038766E+04 0.10025897437E+04 0.88550985165E+03 0.73901719820E+03 0.57851806071E+03
 0.42106826014E+03 0.28261981528E+03 0.17445898003E+03 0.10042489806E+03 0.56585412388E+02
 0.33664727349E+02 0.21585277610E+02 0.15257294367E+02 0.12103684004E+02 0.10557358412E+02
 0.97776333097E+01 0.93575819125E+01 0.91145252241E+01 0.89659039126E+01 0.88697363438E+01
 0.88015747295E+01 0.87461635552E+01 0.86953050863E+01 0.86479382470E+01 0.86078015384E+01
 0.85786647263E+01 0.85616345377E+01 0.85376335760E+01 0.85434914968E+01 0.85616345377E+01
 0.85927077334E+01 0.86352327691E+01 0.86851494967E+01 0.87390954262E+01 0.87988329999E+01
 0.88729138816E+01 0.89768581813E+01 0.91362803255E+01 0.93962339452E+01 0.98466940792E+01
 0.10688941245E+02 0.12372779587E+02 0.15826366548E+02 0.22774687806E+02 0.36051170206E+02
 0.61719194394E+02 0.11075670393E+03 0.19264703446E+03 0.31087373911E+03 0.46057288306E+03
 0.62922171002E+03 0.79983601089E+03 0.95471838368E+03 0.10781038766E+04 0.11575662523E+04
 0.11850022399E+04 0.11575662523E+04 0.10781038766E+04 0.95471838368E+03 0.79983601089E+03
 0.62922171002E+03 0.46057288306E+03 0.31087373911E+03 0.19264703446E+03 0.11075670393E+03
 0.61719194394E+02 0.36051170206E+02 0.22774687806E+02 0.15826366548E+02 0.12372779587E+02
 0.10688941245E+02 0.98466940792E+01 0.93962339452E+01 0.91362803255E+01 0.89768581813E+01
 0.88729138816E+01 0.87988329999E+01 0.87390954262E+01 0.86851494967E+01 0.86352327691E+01
 0.85927077334E+01 0.85616345377E+01 0.85434914968E+01 0.85316868896E+01 0.85376335760E+01
 0.85561048072E+01 0.85877924369E+01 0.86311120096E+01 0.86819149341E+01 0.87369766265E+01
 0.87982906422E+01 0.88744915164E+01 0.89811508206E+01 0.91442796248E+01 0.94100280009E+01
 0.98710268165E+01 0.10735210063E+02 0.12467684740E+02 0.16027743347E+02 0.23196324557E+02
 0.36902570575E+02 0.63567277757E+02 0.11445522905E+03 0.19910738895E+03 0.32083515622E+03
 0.47440911691E+03 0.64688207764E+03 0.82093064454E+03 0.97865802971E+03 0.11041890710E+04
 0.11850022399E+04 0.12129021789E+04 0.11850022399E+04 0.11041890710E+04 0.97865802971E+03
 0.82093064454E+03 0.64688207764E+03 0.47440911691E+03 0.32083515622E+03 0.19910738895E+03
 0.11445522905E+03 0.63567277757E+02 0.36902570575E+02 0.23196324557E+02 0.16027743347E+02
 0.12467684740E+02 0.10735210063E+02 0.98710268165E+01 0.94100280009E+01 0.91442796248E+01
 0.89811508206E+01 0.88744915164E+01 0.87982906422E+01 0.87369766265E+01 0.86819149341E+01
 0.86311120096E+01 0.85877924369E+01 0.85561048072E+01 0.85376335760E+01 0.85376335760E+01