   4   4   0   0
  0.4216512E+02  0.5525070E-09  0.5525070E-09  0.5525070E-09  0.5000000E-15
  1.000000000000000E-004
  CAR 
 Ca                                      
     13.54221079    -42.60697883  301      1.95763683      1.00000000
    -42.607  0.0000E+00  0.0000E+00
    -42.420  0.0000E+00  0.0000E+00
    -42.233  0.0000E+00  0.0000E+00
    -42.045  0.0000E+00  0.0000E+00
    -41.858  0.0000E+00  0.0000E+00
    -41.671  0.0000E+00  0.0000E+00
    -41.484  0.0000E+00  0.0000E+00
    -41.297  0.0000E+00  0.0000E+00
    -41.110  0.0000E+00  0.0000E+00
    -40.923  0.0000E+00  0.0000E+00
    -40.735  0.0000E+00  0.0000E+00
    -40.548  0.0000E+00  0.0000E+00
    -40.361  0.0000E+00  0.0000E+00
    -40.174  0.4146E-02  0.7760E-03
    -39.987  0.4006E+02  0.7498E+01
    -39.800  0.2683E+01  0.8000E+01
    -39.612  0.0000E+00  0.8000E+01
    -39.425  0.0000E+00  0.8000E+01
    -39.238  0.0000E+00  0.8000E+01
    -39.051  0.0000E+00  0.8000E+01
    -38.864  0.0000E+00  0.8000E+01
    -38.677  0.0000E+00  0.8000E+01
    -38.489  0.0000E+00  0.8000E+01
    -38.302  0.0000E+00  0.8000E+01
    -38.115  0.0000E+00  0.8000E+01
    -37.928  0.0000E+00  0.8000E+01
    -37.741  0.0000E+00  0.8000E+01
    -37.554  0.0000E+00  0.8000E+01
    -37.366  0.0000E+00  0.8000E+01
    -37.179  0.0000E+00  0.8000E+01
    -36.992  0.0000E+00  0.8000E+01
    -36.805  0.0000E+00  0.8000E+01
    -36.618  0.0000E+00  0.8000E+01
    -36.431  0.0000E+00  0.8000E+01
    -36.243  0.0000E+00  0.8000E+01
    -36.056  0.0000E+00  0.8000E+01
    -35.869  0.0000E+00  0.8000E+01
    -35.682  0.0000E+00  0.8000E+01
    -35.495  0.0000E+00  0.8000E+01
    -35.308  0.0000E+00  0.8000E+01
    -35.120  0.0000E+00  0.8000E+01
    -34.933  0.0000E+00  0.8000E+01
    -34.746  0.0000E+00  0.8000E+01
    -34.559  0.0000E+00  0.8000E+01
    -34.372  0.0000E+00  0.8000E+01
    -34.185  0.0000E+00  0.8000E+01
    -33.997  0.0000E+00  0.8000E+01
    -33.810  0.0000E+00  0.8000E+01
    -33.623  0.0000E+00  0.8000E+01
    -33.436  0.0000E+00  0.8000E+01
    -33.249  0.0000E+00  0.8000E+01
    -33.062  0.0000E+00  0.8000E+01
    -32.874  0.0000E+00  0.8000E+01
    -32.687  0.0000E+00  0.8000E+01
    -32.500  0.0000E+00  0.8000E+01
    -32.313  0.0000E+00  0.8000E+01
    -32.126  0.0000E+00  0.8000E+01
    -31.939  0.0000E+00  0.8000E+01
    -31.751  0.0000E+00  0.8000E+01
    -31.564  0.0000E+00  0.8000E+01
    -31.377  0.0000E+00  0.8000E+01
    -31.190  0.0000E+00  0.8000E+01
    -31.003  0.0000E+00  0.8000E+01
    -30.816  0.0000E+00  0.8000E+01
    -30.628  0.0000E+00  0.8000E+01
    -30.441  0.0000E+00  0.8000E+01
    -30.254  0.0000E+00  0.8000E+01
    -30.067  0.0000E+00  0.8000E+01
    -29.880  0.0000E+00  0.8000E+01
    -29.693  0.0000E+00  0.8000E+01
    -29.506  0.0000E+00  0.8000E+01
    -29.318  0.0000E+00  0.8000E+01
    -29.131  0.0000E+00  0.8000E+01
    -28.944  0.0000E+00  0.8000E+01
    -28.757  0.0000E+00  0.8000E+01
    -28.570  0.0000E+00  0.8000E+01
    -28.383  0.0000E+00  0.8000E+01
    -28.195  0.0000E+00  0.8000E+01
    -28.008  0.0000E+00  0.8000E+01
    -27.821  0.0000E+00  0.8000E+01
    -27.634  0.0000E+00  0.8000E+01
    -27.447  0.0000E+00  0.8000E+01
    -27.260  0.0000E+00  0.8000E+01
    -27.072  0.0000E+00  0.8000E+01
    -26.885  0.0000E+00  0.8000E+01
    -26.698  0.0000E+00  0.8000E+01
    -26.511  0.0000E+00  0.8000E+01
    -26.324  0.0000E+00  0.8000E+01
    -26.137  0.0000E+00  0.8000E+01
    -25.949  0.0000E+00  0.8000E+01
    -25.762  0.0000E+00  0.8000E+01
    -25.575  0.0000E+00  0.8000E+01
    -25.388  0.0000E+00  0.8000E+01
    -25.201  0.0000E+00  0.8000E+01
    -25.014  0.0000E+00  0.8000E+01
    -24.826  0.0000E+00  0.8000E+01
    -24.639  0.0000E+00  0.8000E+01
    -24.452  0.0000E+00  0.8000E+01
    -24.265  0.0000E+00  0.8000E+01
    -24.078  0.0000E+00  0.8000E+01
    -23.891  0.0000E+00  0.8000E+01
    -23.703  0.0000E+00  0.8000E+01
    -23.516  0.0000E+00  0.8000E+01
    -23.329  0.0000E+00  0.8000E+01
    -23.142  0.0000E+00  0.8000E+01
    -22.955  0.0000E+00  0.8000E+01
    -22.768  0.0000E+00  0.8000E+01
    -22.580  0.0000E+00  0.8000E+01
    -22.393  0.0000E+00  0.8000E+01
    -22.206  0.0000E+00  0.8000E+01
    -22.019  0.0000E+00  0.8000E+01
    -21.832  0.0000E+00  0.8000E+01
    -21.645  0.0000E+00  0.8000E+01
    -21.457  0.0000E+00  0.8000E+01
    -21.270  0.6060E-05  0.8000E+01
    -21.083  0.2103E+02  0.1194E+02
    -20.896  0.1070E+03  0.3197E+02
    -20.709  0.1747E+00  0.3200E+02
    -20.522  0.0000E+00  0.3200E+02
    -20.334  0.0000E+00  0.3200E+02
    -20.147  0.0000E+00  0.3200E+02
    -19.960  0.0000E+00  0.3200E+02
    -19.773  0.0000E+00  0.3200E+02
    -19.586  0.0000E+00  0.3200E+02
    -19.399  0.0000E+00  0.3200E+02
    -19.211  0.0000E+00  0.3200E+02
    -19.024  0.0000E+00  0.3200E+02
    -18.837  0.0000E+00  0.3200E+02
    -18.650  0.0000E+00  0.3200E+02
    -18.463  0.0000E+00  0.3200E+02
    -18.276  0.0000E+00  0.3200E+02
    -18.088  0.0000E+00  0.3200E+02
    -17.901  0.0000E+00  0.3200E+02
    -17.714  0.0000E+00  0.3200E+02
    -17.527  0.0000E+00  0.3200E+02
    -17.340  0.0000E+00  0.3200E+02
    -17.153  0.0000E+00  0.3200E+02
    -16.966  0.0000E+00  0.3200E+02
    -16.778  0.0000E+00  0.3200E+02
    -16.591  0.0000E+00  0.3200E+02
    -16.404  0.0000E+00  0.3200E+02
    -16.217  0.0000E+00  0.3200E+02
    -16.030  0.0000E+00  0.3200E+02
    -15.843  0.0000E+00  0.3200E+02
    -15.655  0.0000E+00  0.3200E+02
    -15.468  0.0000E+00  0.3200E+02
    -15.281  0.0000E+00  0.3200E+02
    -15.094  0.0000E+00  0.3200E+02
    -14.907  0.0000E+00  0.3200E+02
    -14.720  0.0000E+00  0.3200E+02
    -14.532  0.0000E+00  0.3200E+02
    -14.345  0.0000E+00  0.3200E+02
    -14.158  0.0000E+00  0.3200E+02
    -13.971  0.0000E+00  0.3200E+02
    -13.784  0.0000E+00  0.3200E+02
    -13.597  0.0000E+00  0.3200E+02
    -13.409  0.0000E+00  0.3200E+02
    -13.222  0.0000E+00  0.3200E+02
    -13.035  0.0000E+00  0.3200E+02
    -12.848  0.0000E+00  0.3200E+02
    -12.661  0.0000E+00  0.3200E+02
    -12.474  0.0000E+00  0.3200E+02
    -12.286  0.0000E+00  0.3200E+02
    -12.099  0.0000E+00  0.3200E+02
    -11.912  0.0000E+00  0.3200E+02
    -11.725  0.0000E+00  0.3200E+02
    -11.538  0.0000E+00  0.3200E+02
    -11.351  0.0000E+00  0.3200E+02
    -11.163  0.0000E+00  0.3200E+02
    -10.976  0.0000E+00  0.3200E+02
    -10.789  0.0000E+00  0.3200E+02
    -10.602  0.0000E+00  0.3200E+02
    -10.415  0.0000E+00  0.3200E+02
    -10.228  0.0000E+00  0.3200E+02
    -10.040  0.0000E+00  0.3200E+02
     -9.853  0.0000E+00  0.3200E+02
     -9.666  0.0000E+00  0.3200E+02
     -9.479  0.0000E+00  0.3200E+02
     -9.292  0.0000E+00  0.3200E+02
     -9.105  0.0000E+00  0.3200E+02
     -8.917  0.0000E+00  0.3200E+02
     -8.730  0.0000E+00  0.3200E+02
     -8.543  0.0000E+00  0.3200E+02
     -8.356  0.0000E+00  0.3200E+02
     -8.169  0.0000E+00  0.3200E+02
     -7.982  0.0000E+00  0.3200E+02
     -7.794  0.0000E+00  0.3200E+02
     -7.607  0.0000E+00  0.3200E+02
     -7.420  0.0000E+00  0.3200E+02
     -7.233  0.0000E+00  0.3200E+02
     -7.046  0.0000E+00  0.3200E+02
     -6.859  0.0000E+00  0.3200E+02
     -6.671  0.0000E+00  0.3200E+02
     -6.484  0.0000E+00  0.3200E+02
     -6.297  0.0000E+00  0.3200E+02
     -6.110  0.0000E+00  0.3200E+02
     -5.923  0.0000E+00  0.3200E+02
     -5.736  0.0000E+00  0.3200E+02
     -5.549  0.0000E+00  0.3200E+02
     -5.361  0.0000E+00  0.3200E+02
     -5.174  0.0000E+00  0.3200E+02
     -4.987  0.0000E+00  0.3200E+02
     -4.800  0.0000E+00  0.3200E+02
     -4.613  0.0000E+00  0.3200E+02
     -4.426  0.0000E+00  0.3200E+02
     -4.238  0.0000E+00  0.3200E+02
     -4.051  0.0000E+00  0.3200E+02
     -3.864  0.0000E+00  0.3200E+02
     -3.677  0.0000E+00  0.3200E+02
     -3.490  0.0000E+00  0.3200E+02
     -3.303  0.0000E+00  0.3200E+02
     -3.115  0.0000E+00  0.3200E+02
     -2.928  0.0000E+00  0.3200E+02
     -2.741  0.0000E+00  0.3200E+02
     -2.554  0.0000E+00  0.3200E+02
     -2.367  0.0000E+00  0.3200E+02
     -2.180  0.2828E-05  0.3200E+02
     -1.992  0.6876E-01  0.3201E+02
     -1.805  0.3872E+00  0.3209E+02
     -1.618  0.5575E+00  0.3219E+02
     -1.431  0.6365E+00  0.3231E+02
     -1.244  0.9705E+00  0.3249E+02
     -1.057  0.9151E+00  0.3266E+02
     -0.869  0.1081E+01  0.3286E+02
     -0.682  0.1232E+01  0.3309E+02
     -0.495  0.1447E+01  0.3337E+02
     -0.308  0.1238E+01  0.3360E+02
     -0.121  0.1853E+01  0.3394E+02
      0.066  0.1590E+01  0.3424E+02
      0.254  0.1964E+01  0.3461E+02
      0.441  0.1910E+01  0.3497E+02
      0.628  0.2395E+01  0.3541E+02
      0.815  0.2547E+01  0.3589E+02
      1.002  0.2999E+01  0.3645E+02
      1.189  0.2972E+01  0.3701E+02
      1.377  0.3397E+01  0.3764E+02
      1.564  0.3452E+01  0.3829E+02
      1.751  0.3104E+01  0.3887E+02
      1.938  0.5364E+01  0.3988E+02
      2.125  0.5290E+01  0.4087E+02
      2.312  0.3945E+01  0.4160E+02
      2.500  0.6039E+01  0.4273E+02
      2.687  0.9965E+01  0.4460E+02
      2.874  0.9580E+01  0.4639E+02
      3.061  0.9473E+01  0.4817E+02
      3.248  0.7446E+01  0.4956E+02
      3.435  0.6554E+01  0.5079E+02
      3.623  0.6089E+01  0.5193E+02
      3.810  0.5295E+01  0.5292E+02
      3.997  0.4872E+01  0.5383E+02
      4.184  0.4907E+01  0.5475E+02
      4.371  0.6957E+01  0.5605E+02
      4.558  0.1111E+02  0.5813E+02
      4.746  0.1128E+02  0.6024E+02
      4.933  0.1092E+02  0.6228E+02
      5.120  0.8641E+01  0.6390E+02
      5.307  0.7186E+01  0.6525E+02
      5.494  0.8069E+01  0.6676E+02
      5.681  0.9073E+01  0.6846E+02
      5.868  0.1158E+02  0.7062E+02
      6.056  0.1653E+02  0.7372E+02
      6.243  0.1353E+02  0.7625E+02
      6.430  0.1197E+02  0.7849E+02
      6.617  0.5268E+01  0.7947E+02
      6.804  0.2150E+01  0.7988E+02
      6.991  0.4739E+01  0.8076E+02
      7.179  0.6107E+01  0.8191E+02
      7.366  0.4994E+01  0.8284E+02
      7.553  0.3953E+01  0.8358E+02
      7.740  0.4069E+01  0.8434E+02
      7.927  0.3843E+01  0.8506E+02
      8.114  0.4034E+01  0.8582E+02
      8.302  0.4900E+01  0.8673E+02
      8.489  0.4133E+01  0.8751E+02
      8.676  0.4350E+01  0.8832E+02
      8.863  0.3654E+01  0.8900E+02
      9.050  0.5875E+01  0.9010E+02
      9.237  0.3847E+01  0.9082E+02
      9.425  0.4930E+01  0.9175E+02
      9.612  0.4111E+01  0.9252E+02
      9.799  0.3638E+01  0.9320E+02
      9.986  0.4193E+01  0.9398E+02
     10.173  0.2253E+01  0.9440E+02
     10.360  0.2344E+01  0.9484E+02
     10.548  0.2256E+01  0.9527E+02
     10.735  0.2437E+01  0.9572E+02
     10.922  0.1330E+01  0.9597E+02
     11.109  0.1601E+00  0.9600E+02
     11.296  0.1868E-04  0.9600E+02
     11.483  0.0000E+00  0.9600E+02
     11.671  0.0000E+00  0.9600E+02
     11.858  0.0000E+00  0.9600E+02
     12.045  0.0000E+00  0.9600E+02
     12.232  0.0000E+00  0.9600E+02
     12.419  0.0000E+00  0.9600E+02
     12.606  0.0000E+00  0.9600E+02
     12.794  0.0000E+00  0.9600E+02
     12.981  0.0000E+00  0.9600E+02
     13.168  0.0000E+00  0.9600E+02
     13.355  0.0000E+00  0.9600E+02
     13.542  0.0000E+00  0.9600E+02
