    4    4    1    1
  0.4216512E+02  0.5525070E-09  0.5525070E-09  0.5525070E-09  0.5000000E-15
  1.000000000000000E-004
  CAR 
 Ca                                      
     40     84     48
 
  0.0000000E+00  0.0000000E+00  0.0000000E+00  0.5787037E-03
      1        -40.054743   1.000000
      2        -40.036682   1.000000
      3        -40.036682   1.000000
      4        -40.036682   1.000000
      5        -21.102623   1.000000
      6        -21.102623   1.000000
      7        -21.102623   1.000000
      8        -21.022809   1.000000
      9        -21.022809   1.000000
     10        -21.022809   1.000000
     11        -21.022809   1.000000
     12        -21.022809   1.000000
     13        -21.022809   1.000000
     14        -20.971991   1.000000
     15        -20.971991   1.000000
     16        -20.971991   1.000000
     17         -2.061783   1.000000
     18          1.507604   1.000000
     19          1.507604   1.000000
     20          1.507604   1.000000
     21          2.539210   0.000000
     22          2.539210   0.000000
     23          2.539210   0.000000
     24          2.930855   0.000000
     25          2.930855   0.000000
     26          2.930855   0.000000
     27          4.300919   0.000000
     28          4.300919   0.000000
     29          4.300919   0.000000
     30          5.372266   0.000000
     31          5.372266   0.000000
     32          6.051716   0.000000
     33          6.051716   0.000000
     34          6.051716   0.000000
     35          6.240252   0.000000
     36          6.240252   0.000000
     37          6.240252   0.000000
     38          6.240252   0.000000
     39          6.240252   0.000000
     40          6.240252   0.000000
     41          7.984911   0.000000
     42          7.984911   0.000000
     43          7.984916   0.000000
     44          8.019240   0.000000
     45          8.019240   0.000000
     46          8.019240   0.000000
     47          8.019240   0.000000
     48          8.019240   0.000000
 
  0.8333333E-01  0.2507571E-32  0.0000000E+00  0.3472222E-02
      1        -40.054430   1.000000
      2        -40.036981   1.000000
      3        -40.036675   1.000000
      4        -40.036675   1.000000
      5        -21.101198   1.000000
      6        -21.101198   1.000000
      7        -21.100429   1.000000
      8        -21.024129   1.000000
      9        -21.024129   1.000000
     10        -21.022843   1.000000
     11        -21.022843   1.000000
     12        -21.021914   1.000000
     13        -21.021914   1.000000
     14        -20.974307   1.000000
     15        -20.972845   1.000000
     16        -20.972845   1.000000
     17         -2.022007   1.000000
     18          1.384060   1.000000
     19          1.540246   1.000000
     20          1.540246   1.000000
     21          2.541346   0.000000
     22          2.541346   0.000000
     23          2.561760   0.000000
     24          2.917868   0.000000
     25          2.917868   0.000000
     26          2.991503   0.000000
     27          4.258336   0.000000
     28          4.316494   0.000000
     29          4.316494   0.000000
     30          5.332320   0.000000
     31          5.382813   0.000000
     32          5.959941   0.000000
     33          5.959941   0.000000
     34          6.038950   0.000000
     35          6.139393   0.000000
     36          6.139393   0.000000
     37          6.240506   0.000000
     38          6.240506   0.000000
     39          6.275236   0.000000
     40          6.275236   0.000000
     41          7.694484   0.000000
     42          7.694484   0.000000
     43          7.992822   0.000000
     44          7.992822   0.000000
     45          8.136865   0.000000
     46          8.161104   0.000000
     47          8.161104   0.000000
     48          8.303904   0.000000
 
  0.1666667E+00  0.1136924E-31  0.0000000E+00  0.3472222E-02
      1        -40.053531   1.000000
      2        -40.037877   1.000000
      3        -40.036663   1.000000
      4        -40.036663   1.000000
      5        -21.097179   1.000000
      6        -21.097179   1.000000
      7        -21.094152   1.000000
      8        -21.028121   1.000000
      9        -21.028121   1.000000
     10        -21.022972   1.000000
     11        -21.022972   1.000000
     12        -21.019371   1.000000
     13        -21.019371   1.000000
     14        -20.981191   1.000000
     15        -20.975396   1.000000
     16        -20.975396   1.000000
     17         -1.903505   1.000000
     18          1.066589   1.000000
     19          1.634800   1.000000
     20          1.634800   1.000000
     21          2.548293   0.000000
     22          2.548293   0.000000
     23          2.628755   0.000000
     24          2.881700   0.000000
     25          2.881700   0.000000
     26          3.144294   0.000000
     27          4.137798   0.000000
     28          4.363487   0.000000
     29          4.363487   0.000000
     30          5.214471   0.000000
     31          5.413896   0.000000
     32          5.697089   0.000000
     33          5.697089   0.000000
     34          5.903746   0.000000
     35          5.903746   0.000000
     36          6.001777   0.000000
     37          6.240912   0.000000
     38          6.240912   0.000000
     39          6.376036   0.000000
     40          6.376036   0.000000
     41          7.464221   0.000000
     42          7.464221   0.000000
     43          7.914294   0.000000
     44          7.914294   0.000000
     45          8.518534   0.000000
     46          8.518536   0.000000
     47          8.531330   0.000000
     48          8.531339   0.000000
 
  0.2500000E+00  0.4673357E-32  0.0000000E+00  0.3472222E-02
      1        -40.052084   1.000000
      2        -40.039321   1.000000
      3        -40.036664   1.000000
      4        -40.036664   1.000000
      5        -21.090883   1.000000
      6        -21.090883   1.000000
      7        -21.084340   1.000000
      8        -21.034508   1.000000
      9        -21.034508   1.000000
     10        -21.023330   1.000000
     11        -21.023330   1.000000
     12        -21.015354   1.000000
     13        -21.015354   1.000000
     14        -20.991916   1.000000
     15        -20.979398   1.000000
     16        -20.979398   1.000000
     17         -1.708562   1.000000
     18          0.643903   1.000000
     19          1.779508   1.000000
     20          1.779508   1.000000
     21          2.561594   0.000000
     22          2.561594   0.000000
     23          2.738395   0.000000
     24          2.829463   0.000000
     25          2.829463   0.000000
     26          3.352920   0.000000
     27          3.957771   0.000000
     28          4.442927   0.000000
     29          4.442927   0.000000
     30          5.025567   0.000000
     31          5.323789   0.000000
     32          5.323789   0.000000
     33          5.463940   0.000000
     34          5.625862   0.000000
     35          5.625862   0.000000
     36          5.943458   0.000000
     37          6.241435   0.000000
     38          6.241435   0.000000
     39          6.532183   0.000000
     40          6.532183   0.000000
     41          7.332205   0.000000
     42          7.332205   0.000000
     43          7.786349   0.000000
     44          7.786349   0.000000
     45          8.672926   0.000000
     46          8.672926   0.000000
     47          8.995846   0.000000
     48          8.995846   0.000000
 
  0.3333333E+00  0.1334390E-31  0.0000000E+00  0.3472222E-02
      1        -40.050199   1.000000
      2        -40.041184   1.000000
      3        -40.036650   1.000000
      4        -40.036650   1.000000
      5        -21.082602   1.000000
      6        -21.082602   1.000000
      7        -21.071234   1.000000
      8        -21.042724   1.000000
      9        -21.042724   1.000000
     10        -21.023584   1.000000
     11        -21.023584   1.000000
     12        -21.010099   1.000000
     13        -21.010099   1.000000
     14        -21.005835   1.000000
     15        -20.984599   1.000000
     16        -20.984599   1.000000
     17         -1.441414   1.000000
     18          0.180540   1.000000
     19          1.949695   0.588863
     20          1.949695   0.588863
     21          2.583416   0.000000
     22          2.583416   0.000000
     23          2.769890   0.000000
     24          2.769890   0.000000
     25          2.887473   0.000000
     26          3.602846   0.000000
     27          3.741233   0.000000
     28          4.555842   0.000000
     29          4.555842   0.000000
     30          4.778383   0.000000
     31          4.938851   0.000000
     32          4.938851   0.000000
     33          5.352659   0.000000
     34          5.352659   0.000000
     35          5.530237   0.000000
     36          5.868931   0.000000
     37          6.242028   0.000000
     38          6.242028   0.000000
     39          6.729585   0.000000
     40          6.729585   0.000000
     41          7.268064   0.000000
     42          7.268064   0.000000
     43          7.615049   0.000000
     44          7.615049   0.000000
     45          8.749694   0.000000
     46          8.749694   0.000000
     47          9.540942   0.000000
     48          9.540942   0.000000
 
  0.4166667E+00  0.6761674E-33  0.0000000E+00  0.3472222E-02
      1        -40.048025   1.000000
      2        -40.043361   1.000000
      3        -40.036650   1.000000
      4        -40.036650   1.000000
      5        -21.073017   1.000000
      6        -21.073017   1.000000
      7        -21.055799   1.000000
      8        -21.052390   1.000000
      9        -21.052390   1.000000
     10        -21.023821   1.000000
     11        -21.023821   1.000000
     12        -21.021974   1.000000
     13        -21.003964   1.000000
     14        -21.003964   1.000000
     15        -20.990737   1.000000
     16        -20.990737   1.000000
     17         -1.108287   1.000000
     18         -0.282256   1.000000
     19          2.098760   0.000033
     20          2.098760   0.000033
     21          2.615434   0.000000
     22          2.615434   0.000000
     23          2.710907   0.000000
     24          2.710907   0.000000
     25          3.071032   0.000000
     26          3.509905   0.000000
     27          3.884898   0.000000
     28          4.491608   0.000000
     29          4.642752   0.000000
     30          4.642752   0.000000
     31          4.703246   0.000000
     32          4.703246   0.000000
     33          5.103390   0.000000
     34          5.103390   0.000000
     35          5.608993   0.000000
     36          5.784143   0.000000
     37          6.242412   0.000000
     38          6.242412   0.000000
     39          6.952294   0.000000
     40          6.952294   0.000000
     41          7.240426   0.000000
     42          7.240426   0.000000
     43          7.410138   0.000000
     44          7.410138   0.000000
     45          8.785458   0.000000
     46          8.785458   0.000000
     47         10.126156   0.000000
     48         10.126156   0.000000
 
  0.5000000E+00  0.9346714E-32  0.0000000E+00  0.1736111E-02
      1        -40.045715   1.000000
      2        -40.045715   1.000000
      3        -40.036645   1.000000
      4        -40.036645   1.000000
      5        -21.062688   1.000000
      6        -21.062688   1.000000
      7        -21.062688   1.000000
      8        -21.062688   1.000000
      9        -21.039073   1.000000
     10        -21.039073   1.000000
     11        -21.023887   1.000000
     12        -21.023887   1.000000
     13        -20.997473   1.000000
     14        -20.997473   1.000000
     15        -20.997473   1.000000
     16        -20.997473   1.000000
     17         -0.717902   1.000000
     18         -0.717902   1.000000
     19          2.160915   0.000000
     20          2.160915   0.000000
     21          2.658331   0.000000
     22          2.658331   0.000000
     23          2.658331   0.000000
     24          2.658331   0.000000
     25          3.281821   0.000000
     26          3.281821   0.000000
     27          4.186827   0.000000
     28          4.186827   0.000000
     29          4.528878   0.000000
     30          4.528878   0.000000
     31          4.885827   0.000000
     32          4.885827   0.000000
     33          4.885827   0.000000
     34          4.885827   0.000000
     35          5.695250   0.000000
     36          5.695250   0.000000
     37          6.242594   0.000000
     38          6.242594   0.000000
     39          7.184399   0.000000
     40          7.184399   0.000000
     41          7.184399   0.000000
     42          7.184399   0.000000
     43          7.232882   0.000000
     44          7.232882   0.000000
     45          8.795702   0.000000
     46          8.795702   0.000000
     47         10.730879   0.000000
     48         10.730879   0.000000
 
  0.8333333E-01  0.8333333E-01  0.0000000E+00  0.6944444E-02
      1        -40.054131   1.000000
      2        -40.036969   1.000000
      3        -40.036969   1.000000
      4        -40.036675   1.000000
      5        -21.099853   1.000000
      6        -21.099179   1.000000
      7        -21.099179   1.000000
      8        -21.026794   1.000000
      9        -21.023254   1.000000
     10        -21.023254   1.000000
     11        -21.021893   1.000000
     12        -21.021893   1.000000
     13        -21.021489   1.000000
     14        -20.977859   1.000000
     15        -20.973716   1.000000
     16        -20.972427   1.000000
     17         -1.982400   1.000000
     18          1.416121   1.000000
     19          1.416121   1.000000
     20          1.572646   1.000000
     21          2.540202   0.000000
     22          2.563441   0.000000
     23          2.563441   0.000000
     24          2.905949   0.000000
     25          2.978428   0.000000
     26          2.978428   0.000000
     27          4.215706   0.000000
     28          4.329339   0.000000
     29          4.333585   0.000000
     30          5.319354   0.000000
     31          5.369818   0.000000
     32          5.889951   0.000000
     33          5.916792   0.000000
     34          5.916792   0.000000
     35          6.140233   0.000000
     36          6.140233   0.000000
     37          6.209137   0.000000
     38          6.216347   0.000000
     39          6.216347   0.000000
     40          6.340875   0.000000
     41          7.416336   0.000000
     42          7.832219   0.000000
     43          7.832219   0.000000
     44          8.132904   0.000000
     45          8.132904   0.000000
     46          8.267822   0.000000
     47          8.281920   0.000000
     48          8.444743   0.000000
 
  0.1666667E+00  0.8333333E-01  0.0000000E+00  0.1388889E-01
      1        -40.053240   1.000000
      2        -40.037849   1.000000
      3        -40.036950   1.000000
      4        -40.036683   1.000000
      5        -21.095882   1.000000
      6        -21.095599   1.000000
      7        -21.093295   1.000000
      8        -21.031624   1.000000
      9        -21.027236   1.000000
     10        -21.021928   1.000000
     11        -21.020691   1.000000
     12        -21.020624   1.000000
     13        -21.019189   1.000000
     14        -20.985366   1.000000
     15        -20.976280   1.000000
     16        -20.974068   1.000000
     17         -1.864322   1.000000
     18          1.098005   1.000000
     19          1.509172   1.000000
     20          1.666250   1.000000
     21          2.537293   0.000000
     22          2.569112   0.000000
     23          2.629138   0.000000
     24          2.872703   0.000000
     25          2.941595   0.000000
     26          3.130202   0.000000
     27          4.098704   0.000000
     28          4.367765   0.000000
     29          4.381006   0.000000
     30          5.216861   0.000000
     31          5.396062   0.000000
     32          5.662108   0.000000
     33          5.669969   0.000000
     34          5.772682   0.000000
     35          5.906334   0.000000
     36          6.108441   0.000000
     37          6.142488   0.000000
     38          6.185653   0.000000
     39          6.337362   0.000000
     40          6.463576   0.000000
     41          7.130350   0.000000
     42          7.577671   0.000000
     43          8.049548   0.000000
     44          8.200634   0.000000
     45          8.205659   0.000000
     46          8.485050   0.000000
     47          8.577460   0.000000
     48          8.660600   0.000000
 
  0.2500000E+00  0.8333333E-01  0.0000000E+00  0.1388889E-01
      1        -40.051819   1.000000
      2        -40.039266   1.000000
      3        -40.036928   1.000000
      4        -40.036705   1.000000
      5        -21.089884   1.000000
      6        -21.089584   1.000000
      7        -21.084047   1.000000
      8        -21.038112   1.000000
      9        -21.033576   1.000000
     10        -21.022028   1.000000
     11        -21.020479   1.000000
     12        -21.016636   1.000000
     13        -21.014949   1.000000
     14        -20.996125   1.000000
     15        -20.980316   1.000000
     16        -20.977713   1.000000
     17         -1.670143   1.000000
     18          0.675466   1.000000
     19          1.652931   1.000000
     20          1.808878   0.999987
     21          2.534601   0.000000
     22          2.580375   0.000000
     23          2.736596   0.000000
     24          2.824586   0.000000
     25          2.886535   0.000000
     26          3.336685   0.000000
     27          3.924638   0.000000
     28          4.429456   0.000000
     29          4.459727   0.000000
     30          5.041667   0.000000
     31          5.320031   0.000000
     32          5.329518   0.000000
     33          5.452400   0.000000
     34          5.550516   0.000000
     35          5.630769   0.000000
     36          6.011446   0.000000
     37          6.145814   0.000000
     38          6.173114   0.000000
     39          6.484702   0.000000
     40          6.630431   0.000000
     41          6.975666   0.000000
     42          7.427642   0.000000
     43          7.915070   0.000000
     44          8.076042   0.000000
     45          8.726784   0.000000
     46          8.774540   0.000000
     47          8.792754   0.000000
     48          8.953554   0.000000
 
  0.3333333E+00  0.8333333E-01  0.0000000E+00  0.1388889E-01
      1        -40.049977   1.000000
      2        -40.041105   1.000000
      3        -40.036889   1.000000
      4        -40.036732   1.000000
      5        -21.082412   1.000000
      6        -21.081401   1.000000
      7        -21.071713   1.000000
      8        -21.045996   1.000000
      9        -21.041779   1.000000
     10        -21.021977   1.000000
     11        -21.020709   1.000000
     12        -21.011338   1.000000
     13        -21.009693   1.000000
     14        -21.009416   1.000000
     15        -20.985623   1.000000
     16        -20.982907   1.000000
     17         -1.404044   1.000000
     18          0.212904   1.000000
     19          1.826988   0.999890
     20          1.972510   0.336993
     21          2.537551   0.000000
     22          2.599452   0.000000
     23          2.769663   0.000000
     24          2.817820   0.000000
     25          2.882566   0.000000
     26          3.583273   0.000000
     27          3.714763   0.000000
     28          4.494574   0.000000
     29          4.571301   0.000000
     30          4.834783   0.000000
     31          4.966092   0.000000
     32          4.968302   0.000000
     33          5.310264   0.000000
     34          5.360005   0.000000
     35          5.527985   0.000000
     36          5.916432   0.000000
     37          6.149627   0.000000
     38          6.165919   0.000000
     39          6.640231   0.000000
     40          6.833310   0.000000
     41          6.910464   0.000000
     42          7.377969   0.000000
     43          7.736986   0.000000
     44          7.912558   0.000000
     45          8.865560   0.000000
     46          8.875040   0.000000
     47          9.305759   0.000000
     48          9.485455   0.000000
 
  0.4166667E+00  0.8333333E-01  0.0000000E+00  0.1388889E-01
      1        -40.047839   1.000000
      2        -40.043239   1.000000
      3        -40.036845   1.000000
      4        -40.036763   1.000000
      5        -21.073693   1.000000
      6        -21.071851   1.000000
      7        -21.057134   1.000000
      8        -21.054875   1.000000
      9        -21.051336   1.000000
     10        -21.025111   1.000000
     11        -21.021786   1.000000
     12        -21.021109   1.000000
     13        -21.005099   1.000000
     14        -21.002897   1.000000
     15        -20.991831   1.000000
     16        -20.989183   1.000000
     17         -1.072093   1.000000
     18         -0.248659   1.000000
     19          1.995561   0.141711
     20          2.097340   0.000039
     21          2.564968   0.000000
     22          2.628138   0.000000
     23          2.715341   0.000000
     24          2.735224   0.000000
     25          3.062106   0.000000
     26          3.490005   0.000000
     27          3.859819   0.000000
     28          4.413534   0.000000
     29          4.692724   0.000000
     30          4.693644   0.000000
     31          4.717121   0.000000
     32          4.766504   0.000000
     33          5.086320   0.000000
     34          5.113142   0.000000
     35          5.617559   0.000000
     36          5.817180   0.000000
     37          6.153531   0.000000
     38          6.161169   0.000000
     39          6.768578   0.000000
     40          6.879945   0.000000
     41          7.059777   0.000000
     42          7.421463   0.000000
     43          7.526105   0.000000
     44          7.727428   0.000000
     45          8.903069   0.000000
     46          8.913820   0.000000
     47          9.882333   0.000000
     48         10.050502   0.000000
 
  0.5000000E+00  0.8333333E-01  0.0000000E+00  0.6944444E-02
      1        -40.045536   1.000000
      2        -40.045536   1.000000
      3        -40.036801   1.000000
      4        -40.036801   1.000000
      5        -21.064320   1.000000
      6        -21.064320   1.000000
      7        -21.061576   1.000000
      8        -21.061576   1.000000
      9        -21.041274   1.000000
     10        -21.041274   1.000000
     11        -21.021486   1.000000
     12        -21.021486   1.000000
     13        -20.998478   1.000000
     14        -20.998478   1.000000
     15        -20.996022   1.000000
     16        -20.996022   1.000000
     17         -0.682894   1.000000
     18         -0.682894   1.000000
     19          2.105254   0.000015
     20          2.105254   0.000015
     21          2.640528   0.000000
     22          2.640528   0.000000
     23          2.667115   0.000000
     24          2.667115   0.000000
     25          3.267927   0.000000
     26          3.267927   0.000000
     27          4.150005   0.000000
     28          4.150005   0.000000
     29          4.588958   0.000000
     30          4.588958   0.000000
     31          4.895699   0.000000
     32          4.895699   0.000000
     33          4.897874   0.000000
     34          4.897874   0.000000
     35          5.715827   0.000000
     36          5.715827   0.000000
     37          6.157322   0.000000
     38          6.157322   0.000000
     39          6.843915   0.000000
     40          6.843915   0.000000
     41          7.295597   0.000000
     42          7.295597   0.000000
     43          7.549736   0.000000
     44          7.549736   0.000000
     45          8.918804   0.000000
     46          8.918804   0.000000
     47         10.415977   0.000000
     48         10.415977   0.000000
 
  0.1666667E+00  0.1666667E+00  0.0000000E+00  0.6944444E-02
      1        -40.052390   1.000000
      2        -40.037791   1.000000
      3        -40.037791   1.000000
      4        -40.036739   1.000000
      5        -21.091995   1.000000
      6        -21.090804   1.000000
      7        -21.090804   1.000000
      8        -21.037768   1.000000
      9        -21.024585   1.000000
     10        -21.024585   1.000000
     11        -21.018789   1.000000
     12        -21.018789   1.000000
     13        -21.017790   1.000000
     14        -20.993962   1.000000
     15        -20.978903   1.000000
     16        -20.973880   1.000000
     17         -1.747586   1.000000
     18          1.189845   1.000000
     19          1.189845   1.000000
     20          1.756660   1.000000
     21          2.505832   0.000000
     22          2.630997   0.000000
     23          2.630997   0.000000
     24          2.847541   0.000000
     25          3.089663   0.000000
     26          3.089663   0.000000
     27          3.991035   0.000000
     28          4.380242   0.000000
     29          4.429659   0.000000
     30          5.181431   0.000000
     31          5.386201   0.000000
     32          5.553692   0.000000
     33          5.553692   0.000000
     34          5.557730   0.000000
     35          5.913732   0.000000
     36          5.913732   0.000000
     37          6.116652   0.000000
     38          6.250061   0.000000
     39          6.250061   0.000000
     40          6.626731   0.000000
     41          6.747650   0.000000
     42          7.896735   0.000000
     43          7.896735   0.000000
     44          8.309082   0.000000
     45          8.387461   0.000000
     46          8.387461   0.000000
     47          8.859937   0.000000
     48          9.014421   0.000000
 
  0.2500000E+00  0.1666667E+00  0.0000000E+00  0.1388889E-01
      1        -40.051049   1.000000
      2        -40.039127   1.000000
      3        -40.037694   1.000000
      4        -40.036836   1.000000
      5        -21.086801   1.000000
      6        -21.085855   1.000000
      7        -21.083129   1.000000
      8        -21.044905   1.000000
      9        -21.030769   1.000000
     10        -21.020414   1.000000
     11        -21.018178   1.000000
     12        -21.015990   1.000000
     13        -21.013868   1.000000
     14        -21.005286   1.000000
     15        -20.983088   1.000000
     16        -20.975986   1.000000
     17         -1.555667   1.000000
     18          0.768413   1.000000
     19          1.334509   1.000000
     20          1.890550   0.971119
     21          2.460528   0.000000
     22          2.636157   0.000000
     23          2.732043   0.000000
     24          2.811002   0.000000
     25          3.025655   0.000000
     26          3.289543   0.000000
     27          3.832027   0.000000
     28          4.396346   0.000000
     29          4.507545   0.000000
     30          5.057229   0.000000
     31          5.282326   0.000000
     32          5.320014   0.000000
     33          5.387923   0.000000
     34          5.443068   0.000000
     35          5.644991   0.000000
     36          5.924993   0.000000
     37          6.063919   0.000000
     38          6.146989   0.000000
     39          6.390701   0.000000
     40          6.547388   0.000000
     41          6.827090   0.000000
     42          7.682812   0.000000
     43          8.233037   0.000000
     44          8.233574   0.000000
     45          8.360560   0.000000
     46          8.832781   0.000000
     47          9.127745   0.000000
     48          9.157034   0.000000
 
  0.3333333E+00  0.1666667E+00  0.0000000E+00  0.1388889E-01
      1        -40.049302   1.000000
      2        -40.040866   1.000000
      3        -40.037563   1.000000
      4        -40.036946   1.000000
      5        -21.081495   1.000000
      6        -21.077780   1.000000
      7        -21.072919   1.000000
      8        -21.052418   1.000000
      9        -21.038881   1.000000
     10        -21.018437   1.000000
     11        -21.017337   1.000000
     12        -21.015076   1.000000
     13        -21.014919   1.000000
     14        -21.007522   1.000000
     15        -20.988591   1.000000
     16        -20.980223   1.000000
     17         -1.292558   1.000000
     18          0.308784   1.000000
     19          1.518018   1.000000
     20          2.019834   0.039273
     21          2.431401   0.000000
     22          2.647008   0.000000
     23          2.769353   0.000000
     24          2.868983   0.000000
     25          2.937552   0.000000
     26          3.527033   0.000000
     27          3.640110   0.000000
     28          4.389059   0.000000
     29          4.616247   0.000000
     30          4.905422   0.000000
     31          5.003669   0.000000
     32          5.027344   0.000000
     33          5.202673   0.000000
     34          5.381476   0.000000
     35          5.540919   0.000000
     36          5.939085   0.000000
     37          6.025426   0.000000
     38          6.034315   0.000000
     39          6.503178   0.000000
     40          6.503954   0.000000
     41          7.055309   0.000000
     42          7.595640   0.000000
     43          8.034686   0.000000
     44          8.099203   0.000000
     45          8.890113   0.000000
     46          9.198902   0.000000
     47          9.304222   0.000000
     48          9.331820   0.000000
 
  0.4166667E+00  0.1666667E+00  0.0000000E+00  0.1388889E-01
      1        -40.047264   1.000000
      2        -40.042898   1.000000
      3        -40.037415   1.000000
      4        -40.037097   1.000000
      5        -21.075061   1.000000
      6        -21.068423   1.000000
      7        -21.060627   1.000000
      8        -21.060220   1.000000