       N       E                     dE             d eps       ncg     rms          rms(c)
DAV:   1    -0.773228823706E+01   -0.77323E+01   -0.37517E-05  5088   0.264E-02    0.604E-03
DAV:   2    -0.773228625886E+01    0.19782E-05   -0.39200E-06  4656   0.818E-03
   1 F= -.77322863E+01 E0= -.77283920E+01  d E =-.778854E-02
       N       E                     dE             ncg
DAV:   1    -0.567054429117E+05   -0.10594E+06     8064
DAV:   2    -0.687431321224E+05   -0.12038E+05     9936
DAV:   3    -0.689359146931E+05   -0.19278E+03     9744
DAV:   4    -0.689479994992E+05   -0.12085E+02    12240
DAV:   5    -0.689480714183E+05   -0.71919E-01     9936
DAV:   6    -0.689480716158E+05   -0.19750E-03    11664
DAV:   7    -0.689480716164E+05   -0.61498E-06     6864
       N       E                     dE             ncg
DAV:   1    -0.258839409627E+05   -0.79411E+05     6048
DAV:   2    -0.349254971553E+05   -0.90416E+04     7104
DAV:   3    -0.350914288886E+05   -0.16593E+03     7248
DAV:   4    -0.351061677435E+05   -0.14739E+02    10464
DAV:   5    -0.351061903762E+05   -0.22633E-01     7440
DAV:   6    -0.351061903941E+05   -0.17910E-04    10224
