Be                                      
   1.00000000000000     
     2.262760    0.000000    0.000000
     1.131380    1.959608    0.000000
     0.000000    0.000000    3.573160
   Be
     2
Direct
  0.000000  0.000000  0.000000
  0.333333  0.333333  0.500000
 
   20   20   32
 0.86523      1.1108      1.7522      2.5599      3.2953      3.8138      4.0907      4.1829      4.1737      4.1379    
  4.1218      4.1379      4.1737      4.1829      4.0907      3.8138      3.2953      2.5599      1.7522      1.1108    
  1.1108      1.5683      2.3112      3.0938      3.7198      4.1081      4.2815      4.3143      4.2869      4.2597    
  4.2597      4.2869      4.3143      4.2814      4.1081      3.7198      3.0938      2.3113      1.5685      1.1108    
  1.7522      2.3112      3.0147      3.6540      4.1035      4.3425      4.4213      4.4135      4.3838      4.3706    
  4.3838      4.4135      4.4213      4.3425      4.1035      3.6540      3.0147      2.3113      1.7522      1.5381    
  2.5599      3.0938      3.6540      4.0988      4.3704      4.4870      4.5047      4.4828      4.4636      4.4636    
  4.4828      4.5047      4.4871      4.3704      4.0987      3.6540      3.0937      2.5599      2.2304      2.2304    
  3.2953      3.7198      4.1035      4.3704      4.5091      4.5523      4.5468      4.5315      4.5247      4.5315    
  4.5468      4.5523      4.5091      4.3704      4.1035      3.7197      3.2952      2.9570      2.8273      2.9571    
  3.8138      4.1081      4.3425      4.4870      4.5523      4.5690      4.5675      4.5639      4.5639      4.5675    
  4.5689      4.5523      4.4871      4.3426      4.1082      3.8137      3.5337      3.3611      3.3611      3.5337    
  4.0907      4.2815      4.4213      4.5047      4.5468      4.5675      4.5775      4.5806      4.5775      4.5675    
  4.5468      4.5047      4.4213      4.2815      4.0908      3.8851      3.7233      3.6616      3.7233      3.8850    
  4.1829      4.3143      4.4135      4.4828      4.5315      4.5639      4.5806      4.5806      4.5639      4.5315    
  4.4828      4.4134      4.3143      4.1829      4.0335      3.8985      3.8175      3.8174      3.8985      4.0334    
  4.1737      4.2869      4.3838      4.4636      4.5247      4.5639      4.5775      4.5639      4.5248      4.4637    
  4.3838      4.2868      4.1737      4.0505      3.9342      3.8493      3.8179      3.8492      3.9342      4.0506    
  4.1379      4.2597      4.3706      4.4636      4.5315      4.5675      4.5675      4.5315      4.4637      4.3707    
  4.2597      4.1379      4.0139      3.8991      3.8087      3.7584      3.7585      3.8088      3.8992      4.0139    
  4.1218      4.2597      4.3838      4.4828      4.5468      4.5689      4.5468      4.4828      4.3838      4.2597    
  4.1219      3.9825      3.8544      3.7504      3.6824      3.6587      3.6824      3.7505      3.8544      3.9825    
  4.1379      4.2869      4.4135      4.5047      4.5523      4.5523      4.5047      4.4134      4.2868      4.1379    
  3.9825      3.8364      3.7137      3.6256      3.5797      3.5797      3.6256      3.7137      3.8364      3.9825    
  4.1737      4.3143      4.4213      4.4871      4.5091      4.4871      4.4213      4.3143      4.1737      4.0139    
  3.8544      3.7137      3.6052      3.5373      3.5142      3.5373      3.6051      3.7137      3.8544      4.0139    
  4.1829      4.2814      4.3425      4.3704      4.3704      4.3426      4.2815      4.1829      4.0505      3.8991    
  3.7504      3.6256      3.5373      3.4918      3.4918      3.5373      3.6256      3.7505      3.8992      4.0506    
  4.0907      4.1081      4.1035      4.0987      4.1035      4.1082      4.0908      4.0335      3.9342      3.8087    
  3.6824      3.5797      3.5142      3.4918      3.5142      3.5797      3.6824      3.8088      3.9342      4.0334    
  3.8138      3.7198      3.6540      3.6540      3.7197      3.8137      3.8851      3.8985      3.8493      3.7584    
  3.6587      3.5797      3.5373      3.5373      3.5797      3.6587      3.7584      3.8492      3.8985      3.8851    
  3.2953      3.0938      3.0147      3.0937      3.2952      3.5337      3.7233      3.8175      3.8179      3.7585    
  3.6824      3.6256      3.6051      3.6256      3.6824      3.7584      3.8179      3.8174      3.7233      3.5338    
  2.5599      2.3113      2.3113      2.5599      2.9570      3.3611      3.6616      3.8174      3.8492      3.8088    
  3.7505      3.7137      3.7137      3.7505      3.8088      3.8492      3.8174      3.6617      3.3611      2.9570    
  1.7522      1.5685      1.7522      2.2304      2.8273      3.3611      3.7233      3.8985      3.9342      3.8992    
  3.8544      3.8364      3.8544      3.8992      3.9342      3.8985      3.7233      3.3611      2.8273      2.2303    
  1.1108      1.1108      1.5381      2.2304      2.9571      3.5337      3.8850      4.0334      4.0506      4.0139    
  3.9825      3.9825      4.0139      4.0506      4.0334      3.8851      3.5338      2.9570      2.2303      1.5380    
  1.1227      1.3512      1.9476      2.6973      3.3775      3.8538      4.1041      4.1823      4.1676      4.1306    
  4.1144      4.1305      4.1676      4.1823      4.1041      3.8538      3.3776      2.6973      1.9475      1.3511    
  1.3512      1.7775      2.4689      3.1957      3.7746      4.1304      4.2852      4.3097      4.2798      4.2524    
  4.2524      4.2797      4.3097      4.2852      4.1304      3.7746      3.1958      2.4691      1.7776      1.3512    
  1.9476      2.4689      3.1241      3.7178      4.1328      4.3503      4.4184      4.4068      4.3767      4.3636    
  4.3767      4.4068      4.4184      4.3503      4.1327      3.7178      3.1241      2.4690      1.9476      1.7478    
  2.6973      3.1957      3.7178      4.1307      4.3807      4.4856      4.4985      4.4758      4.4569      4.4569    
  4.4758      4.4985      4.4856      4.3807      4.1306      3.7178      3.1957      2.6973      2.3894      2.3894    
  3.3775      3.7746      4.1328      4.3807      4.5081      4.5464      4.5399      4.5250      4.5185      4.5250    
  4.5399      4.5464      4.5082      4.3807      4.1328      3.7746      3.3774      3.0607      2.9392      3.0608    
  3.8538      4.1304      4.3503      4.4856      4.5464      4.5621      4.5612      4.5581      4.5581      4.5611    
  4.5621      4.5464      4.4856      4.3504      4.1305      3.8538      3.5904      3.4280      3.4281      3.5905    
  4.1041      4.2852      4.4184      4.4985      4.5399      4.5612      4.5719      4.5752      4.5718      4.5611    
  4.5399      4.4985      4.4184      4.2853      4.1042      3.9090      3.7556      3.6971      3.7556      3.9090    
  4.1823      4.3097      4.4068      4.4758      4.5250      4.5581      4.5752      4.5752      4.5581      4.5250    
  4.4758      4.4067      4.3097      4.1823      4.0383      3.9086      3.8308      3.8308      3.9085      4.0382    
  4.1676      4.2798      4.3767      4.4569      4.5185      4.5581      4.5718      4.5581      4.5186      4.4569    
  4.3767      4.2797      4.1675      4.0464      3.9326      3.8496      3.8191      3.8496      3.9325      4.0464    
  4.1306      4.2524      4.3636      4.4569      4.5250      4.5611      4.5611      4.5250      4.4569      4.3637    
  4.2524      4.1306      4.0068      3.8927      3.8031      3.7533      3.7534      3.8031      3.8927      4.0068    
  4.1144      4.2524      4.3767      4.4758      4.5399      4.5621      4.5399      4.4758      4.3767      4.2524    
  4.1145      3.9750      3.8469      3.7430      3.6750      3.6513      3.6750      3.7430      3.8469      3.9750    
  4.1305      4.2797      4.4068      4.4985      4.5464      4.5464      4.4985      4.4067      4.2797      4.1306    
  3.9750      3.8288      3.7060      3.6178      3.5718      3.5718      3.6178      3.7059      3.8287      3.9750    
  4.1676      4.3097      4.4184      4.4856      4.5082      4.4856      4.4184      4.3097      4.1675      4.0068    
  3.8469      3.7060      3.5973      3.5293      3.5062      3.5293      3.5972      3.7059      3.8469      4.0068    
  4.1823      4.2852      4.3503      4.3807      4.3807      4.3504      4.2853      4.1823      4.0464      3.8927    
  3.7430      3.6178      3.5293      3.4838      3.4838      3.5292      3.6178      3.7430      3.8927      4.0464    
  4.1041      4.1304      4.1327      4.1306      4.1328      4.1305      4.1042      4.0383      3.9326      3.8031    
  3.6750      3.5718      3.5062      3.4838      3.5062      3.5718      3.6750      3.8031      3.9326      4.0382    
  3.8538      3.7746      3.7178      3.7178      3.7746      3.8538      3.9090      3.9086      3.8496      3.7533    
  3.6513      3.5718      3.5293      3.5292      3.5718      3.6513      3.7534      3.8496      3.9085      3.9090    
  3.3776      3.1958      3.1241      3.1957      3.3774      3.5904      3.7556      3.8308      3.8191      3.7534    
  3.6750      3.6178      3.5972      3.6178      3.6750      3.7534      3.8191      3.8307      3.7556      3.5905    
  2.6973      2.4691      2.4690      2.6973      3.0607      3.4280      3.6971      3.8308      3.8496      3.8031    
  3.7430      3.7059      3.7059      3.7430      3.8031      3.8496      3.8307      3.6971      3.4281      3.0608    
  1.9475      1.7776      1.9476      2.3894      2.9392      3.4281      3.7556      3.9085      3.9325      3.8927    
  3.8469      3.8287      3.8469      3.8927      3.9326      3.9085      3.7556      3.4281      2.9392      2.3893    
  1.3511      1.3512      1.7478      2.3894      3.0608      3.5905      3.9090      4.0382      4.0464      4.0068    
  3.9750      3.9750      4.0068      4.0464      4.0382      3.9090      3.5905      3.0608      2.3893      1.7476    
  1.7981      1.9817      2.4595      3.0566      3.5917      3.9570      4.1369      4.1786      4.1498      4.1099    
  4.0936      4.1099      4.1498      4.1787      4.1369      3.9569      3.5917      3.0566      2.4595      1.9816    
  1.9817      2.3258      2.8817      3.4617      3.9166      4.1867      4.2928      4.2956      4.2596      4.2320    
  4.2319      4.2596      4.2957      4.2929      4.1867      3.9165      3.4618      2.8818      2.3258      1.9817    
  2.4595      2.8817      3.4096      3.8832      4.2073      4.3685      4.4087      4.3876      4.3567      4.3439    
  4.3566      4.3876      4.4088      4.3685      4.2072      3.8832      3.4097      2.8818      2.4595      2.2974    
  3.0566      3.4617      3.8832      4.2121      4.4054      4.4795      4.4804      4.4561      4.4380      4.4380    
  4.4560      4.4804      4.4795      4.4053      4.2120      3.8832      3.4617      3.0565      2.8055      2.8055    
  3.5917      3.9166      4.2073      4.4054      4.5034      4.5290      4.5203      4.5068      4.5011      4.5068    
  4.5203      4.5291      4.5035      4.4054      4.2073      3.9166      3.5916      3.3315      3.2316      3.3316    
  3.9570      4.1867      4.3685      4.4795      4.5290      4.5426      4.5433      4.5418      4.5418      4.5433    
  4.5426      4.5291      4.4795      4.3686      4.1868      3.9569      3.7375      3.6021      3.6021      3.7376    
  4.1369      4.2928      4.4087      4.4804      4.5203      4.5433      4.5560      4.5601      4.5559      4.5433    
  4.5203      4.4804      4.4087      4.2929      4.1370      3.9696      3.8383      3.7884      3.8384      3.9696    
  4.1786      4.2956      4.3876      4.4561      4.5068      4.5418      4.5601      4.5601      4.5418      4.5068    
  4.4560      4.3875      4.2956      4.1787      4.0488      3.9329      3.8638      3.8637      3.9329      4.0487    
  4.1498      4.2596      4.3567      4.4380      4.5011      4.5418      4.5559      4.5418      4.5011      4.4381    
  4.3566      4.2595      4.1497      4.0336      3.9262      3.8487      3.8203      3.8487      3.9262      4.0336    
  4.1099      4.2320      4.3439      4.4380      4.5068      4.5433      4.5433      4.5068      4.4381      4.3440    
  4.2320      4.1099      3.9867      3.8742      3.7866      3.7382      3.7382      3.7866      3.8742      3.9868    
  4.0936      4.2319      4.3566      4.4560      4.5203      4.5426      4.5203      4.4560      4.3566      4.2320    
  4.0937      3.9540      3.8258      3.7219      3.6540      3.6304      3.6541      3.7220      3.8258      3.9540    
  4.1099      4.2596      4.3876      4.4804      4.5291      4.5291      4.4804      4.3875      4.2595      4.1099    
  3.9540      3.8074      3.6842      3.5956      3.5494      3.5494      3.5957      3.6842      3.8073      3.9539    
  4.1498      4.2957      4.4088      4.4795      4.5035      4.4795      4.4087      4.2956      4.1497      3.9867    
  3.8258      3.6842      3.5750      3.5067      3.4835      3.5067      3.5750      3.6841      3.8257      3.9867    
  4.1787      4.2929      4.3685      4.4053      4.4054      4.3686      4.2929      4.1787      4.0336      3.8742    
  3.7219      3.5956      3.5067      3.4611      3.4611      3.5067      3.5956      3.7219      3.8742      4.0337    
  4.1369      4.1867      4.2072      4.2120      4.2073      4.1868      4.1370      4.0488      3.9262      3.7866    
  3.6540      3.5494      3.4835      3.4611      3.4835      3.5494      3.6541      3.7866      3.9262      4.0488    
  3.9569      3.9165      3.8832      3.8832      3.9166      3.9569      3.9696      3.9329      3.8487      3.7382    
  3.6304      3.5494      3.5067      3.5067      3.5494      3.6304      3.7382      3.8487      3.9329      3.9696    
  3.5917      3.4618      3.4097      3.4617      3.5916      3.7375      3.8383      3.8638      3.8203      3.7382    
  3.6541      3.5957      3.5750      3.5956      3.6541      3.7382      3.8202      3.8637      3.8383      3.7376    
  3.0566      2.8818      2.8818      3.0565      3.3315      3.6021      3.7884      3.8637      3.8487      3.7866    
  3.7220      3.6842      3.6841      3.7219      3.7866      3.8487      3.8637      3.7884      3.6021      3.3316    
  2.4595      2.3258      2.4595      2.8055      3.2316      3.6021      3.8384      3.9329      3.9262      3.8742    
  3.8258      3.8073      3.8257      3.8742      3.9262      3.9329      3.8383      3.6021      3.2316      2.8055    
  1.9816      1.9817      2.2974      2.8055      3.3316      3.7376      3.9696      4.0487      4.0336      3.9868    
  3.9540      3.9539      3.9867      4.0337      4.0488      3.9696      3.7376      3.3316      2.8055      2.2972    
  2.6568      2.7827      3.1085      3.5098      3.8589      4.0818      4.1720      4.1680      4.1223      4.0797    
  4.0635      4.0796      4.1223      4.1681      4.1720      4.0818      3.8589      3.5098      3.1085      2.7826    
  2.7827      3.0212      3.4034      3.7949      4.0908      4.2515      4.2960      4.2722      4.2298      4.2024    
  4.2023      4.2298      4.2722      4.2960      4.2514      4.0908      3.7950      3.4035      3.0212      2.7827    
  3.1085      3.4034      3.7678      4.0873      4.2951      4.3847      4.3904      4.3585      4.3274      4.3154    
  4.3274      4.3585      4.3904      4.3847      4.2950      4.0873      3.7679      3.4035      3.1086      2.9948    
  3.5098      3.7949      4.0873      4.3086      4.4296      4.4653      4.4523      4.4271      4.4107      4.4107    
  4.4271      4.4524      4.4654      4.4295      4.3085      4.0874      3.7950      3.5098      3.3319      3.3319    
  3.8589      4.0908      4.2951      4.4296      4.4910      4.5017      4.4915      4.4803      4.4758      4.4803    
  4.4915      4.5018      4.4910      4.4296      4.2951      4.0908      3.8588      3.6716      3.5994      3.6717    
  4.0818      4.2515      4.3847      4.4653      4.5017      4.5138      4.5172      4.5180      4.5180      4.5172    
  4.5138      4.5018      4.4654      4.3848      4.2515      4.0818      3.9191      3.8184      3.8185      3.9192    
  4.1720      4.2960      4.3904      4.4523      4.4915      4.5172      4.5327      4.5380      4.5326      4.5172    
  4.4915      4.4523      4.3904      4.2960      4.1721      4.0406      3.9379      3.8989      3.9379      4.0405    
  4.1680      4.2722      4.3585      4.4271      4.4803      4.5180      4.5380      4.5379      4.5180      4.4803    
  4.4271      4.3584      4.2722      4.1680      4.0560      3.9579      3.8999      3.8999      3.9579      4.0559    
  4.1223      4.2298      4.3274      4.4107      4.4758      4.5180      4.5326      4.5180      4.4759      4.4107    
  4.3274      4.2298      4.1222      4.0121      3.9126      3.8419      3.8162      3.8419      3.9125      4.0120    
  4.0797      4.2024      4.3154      4.4107      4.4803      4.5172      4.5172      4.4803      4.4107      4.3155    
  4.2024      4.0797      3.9570      3.8461      3.7607      3.7140      3.7140      3.7607      3.8461      3.9570    
  4.0635      4.2023      4.3274      4.4271      4.4915      4.5138      4.4915      4.4271      4.3274      4.2024    
  4.0635      3.9234      3.7949      3.6909      3.6231      3.5995      3.6231      3.6910      3.7949      3.9234    
  4.0796      4.2298      4.3585      4.4524      4.5018      4.5018      4.4523      4.3584      4.2298      4.0797    
  3.9234      3.7763      3.6524      3.5633      3.5167      3.5167      3.5633      3.6524      3.7762      3.9233    
  4.1223      4.2722      4.3904      4.4654      4.4910      4.4654      4.3904      4.2722      4.1222      3.9570    
  3.7949      3.6524      3.5425      3.4736      3.4502      3.4736      3.5425      3.6524      3.7948      3.9570    
  4.1681      4.2960      4.3847      4.4295      4.4296      4.3848      4.2960      4.1680      4.0121      3.8461    
  3.6909      3.5633      3.4736      3.4277      3.4277      3.4736      3.5632      3.6909      3.8461      4.0121    
  4.1720      4.2514      4.2950      4.3085      4.2951      4.2515      4.1721      4.0560      3.9126      3.7607    
  3.6231      3.5167      3.4502      3.4277      3.4502      3.5167      3.6231      3.7608      3.9126      4.0560    
  4.0818      4.0908      4.0873      4.0874      4.0908      4.0818      4.0406      3.9579      3.8419      3.7140    
  3.5995      3.5167      3.4736      3.4736      3.5167      3.5995      3.7140      3.8419      3.9579      4.0405    
  3.8589      3.7950      3.7679      3.7950      3.8588      3.9191      3.9379      3.8999      3.8162      3.7140    
  3.6231      3.5633      3.5425      3.5632      3.6231      3.7140      3.8162      3.8998      3.9379      3.9192    
  3.5098      3.4035      3.4035      3.5098      3.6716      3.8184      3.8989      3.8999      3.8419      3.7607    
  3.6910      3.6524      3.6524      3.6909      3.7608      3.8419      3.8998      3.8989      3.8185      3.6717    
  3.1085      3.0212      3.1086      3.3319      3.5994      3.8185      3.9379      3.9579      3.9125      3.8461    
  3.7949      3.7762      3.7948      3.8461      3.9126      3.9579      3.9379      3.8185      3.5995      3.3319    
  2.7826      2.7827      2.9948      3.3319      3.6717      3.9192      4.0405      4.0559      4.0120      3.9570    
  3.9234      3.9233      3.9570      4.0121      4.0560      4.0405      3.9192      3.6717      3.3319      2.9946    
  3.4517      3.5233      3.7058      3.9226      4.0965      4.1860      4.1929      4.1477      4.0887      4.0449    
  4.0291      4.0448      4.0887      4.1478      4.1930      4.1860      4.0965      3.9226      3.7057      3.5232    
  3.5233      3.6621      3.8801      4.0941      4.2405      4.2991      4.2874      4.2413      4.1953      4.1687    
  4.1686      4.1952      4.2413      4.2875      4.2990      4.2405      4.0942      3.8802      3.6621      3.5233    
  3.7058      3.8801      4.0902      4.2646      4.3636      4.3876      4.3632      4.3242      4.2944      4.2834    
  4.2943      4.3242      4.3633      4.3875      4.3635      4.2646      4.0904      3.8802      3.7058      3.6378    
  3.9226      4.0941      4.2646      4.3851      4.4396      4.4416      4.4185      4.3944      4.3803      4.3802    
  4.3943      4.4186      4.4417      4.4395      4.3850      4.2646      4.0942      3.9226      3.8140      3.8140    
  4.0965      4.2405      4.3636      4.4396      4.4686      4.4683      4.4589      4.4509      4.4479      4.4508    
  4.4589      4.4684      4.4686      4.4395      4.3636      4.2405      4.0965      3.9785      3.9328      3.9786    
  4.1860      4.2991      4.3876      4.4416      4.4683      4.4812      4.4883      4.4917      4.4917      4.4882    
  4.4812      4.4683      4.4416      4.3876      4.2991      4.1860      4.0772      4.0097      4.0098      4.0773    
  4.1929      4.2874      4.3632      4.4185      4.4589      4.4883      4.5070      4.5135      4.5069      4.4882    
  4.4589      4.4185      4.3632      4.2875      4.1930      4.0952      4.0199      3.9914      4.0199      4.0952    
  4.1477      4.2413      4.3242      4.3944      4.4509      4.4917      4.5135      4.5135      4.4917      4.4509    
  4.3943      4.3241      4.2413      4.1478      4.0521      3.9708      3.9235      3.9235      3.9708      4.0520    
  4.0887      4.1953      4.2944      4.3803      4.4479      4.4917      4.5069      4.4917      4.4479      4.3803    
  4.2943      4.1952      4.0886      3.9831      3.8907      3.8265      3.8034      3.8265      3.8907      3.9831    
  4.0449      4.1687      4.2834      4.3802      4.4508      4.4882      4.4882      4.4509      4.3803      4.2835    
  4.1687      4.0449      3.9222      3.8125      3.7290      3.6837      3.6837      3.7290      3.8125      3.9222    
  4.0291      4.1686      4.2943      4.3943      4.4589      4.4812      4.4589      4.3943      4.2943      4.1687    
  4.0291      3.8883      3.7593      3.6551      3.5873      3.5637      3.5873      3.6552      3.7593      3.8883    
  4.0448      4.1952      4.3242      4.4186      4.4684      4.4683      4.4185      4.3241      4.1952      4.0449    
  3.8883      3.7407      3.6161      3.5261      3.4790      3.4790      3.5261      3.6161      3.7406      3.8882    
  4.0887      4.2413      4.3633      4.4417      4.4686      4.4416      4.3632      4.2413      4.0886      3.9222    
  3.7593      3.6161      3.5053      3.4356      3.4119      3.4356      3.5053      3.6160      3.7592      3.9221    
  4.1478      4.2875      4.3875      4.4395      4.4395      4.3876      4.2875      4.1478      3.9831      3.8125    
  3.6551      3.5261      3.4356      3.3892      3.3892      3.4356      3.5261      3.6551      3.8125      3.9831    
  4.1930      4.2990      4.3635      4.3850      4.3636      4.2991      4.1930      4.0521      3.8907      3.7290    
  3.5873      3.4790      3.4119      3.3892      3.4119      3.4790      3.5873      3.7290      3.8907      4.0521    
  4.1860      4.2405      4.2646      4.2646      4.2405      4.1860      4.0952      3.9708      3.8265      3.6837    
  3.5637      3.4790      3.4356      3.4356      3.4790      3.5637      3.6837      3.8265      3.9708      4.0952    
  4.0965      4.0942      4.0904      4.0942      4.0965      4.0772      4.0199      3.9235      3.8034      3.6837    
  3.5873      3.5261      3.5053      3.5261      3.5873      3.6837      3.8033      3.9234      4.0199      4.0772    
  3.9226      3.8802      3.8802      3.9226      3.9785      4.0097      3.9914      3.9235      3.8265      3.7290    
  3.6552      3.6161      3.6160      3.6551      3.7290      3.8265      3.9234      3.9914      4.0098      3.9786    
  3.7057      3.6621      3.7058      3.8140      3.9328      4.0098      4.0199      3.9708      3.8907      3.8125    
  3.7593      3.7406      3.7592      3.8125      3.8907      3.9708      4.0199      4.0098      3.9329      3.8140    
  3.5232      3.5233      3.6378      3.8140      3.9786      4.0773      4.0952      4.0520      3.9831      3.9222    
  3.8883      3.8882      3.9221      3.9831      4.0521      4.0952      4.0772      3.9786      3.8140      3.6377    
  4.0294      4.0600      4.1343      4.2121      4.2549      4.2456      4.1926      4.1200      4.0544      4.0109    
  3.9958      4.0108      4.0544      4.1202      4.1926      4.2456      4.2549      4.2122      4.1342      4.0598    
  4.0600      4.1232      4.2171      4.2974      4.3325      4.3167      4.2666      4.2079      4.1617      4.1368    
  4.1367      4.1616      4.2080      4.2666      4.3167      4.3325      4.2975      4.2172      4.1231      4.0599    
  4.1343      4.2171      4.3106      4.3763      4.3957      4.3739      4.3317      4.2911      4.2638      4.2542    
  4.2637      4.2911      4.3318      4.3739      4.3956      4.3763      4.3107      4.2172      4.1343      4.1011    
  4.2121      4.2974      4.3763      4.4227      4.4306      4.4120      4.3858      4.3647      4.3535      4.3534    
  4.3647      4.3859      4.4120      4.4305      4.4226      4.3764      4.2975      4.2121      4.1565      4.1565    
  4.2549      4.3325      4.3957      4.4306      4.4398      4.4359      4.4298      4.4257      4.4244      4.4257    
  4.4299      4.4360      4.4398      4.4305      4.3956      4.3325      4.2549      4.1898      4.1644      4.1899    
  4.2456      4.3167      4.3739      4.4120      4.4359      4.4523      4.4639      4.4702      4.4702      4.4639    
  4.4524      4.4360      4.4120      4.3739      4.3167      4.2456      4.1777      4.1359      4.1359      4.1778    
  4.1926      4.2666      4.3317      4.3858      4.4298      4.4639      4.4862      4.4940      4.4861      4.4639    
  4.4299      4.3859      4.3317      4.2666      4.1926      4.1200      4.0656      4.0454      4.0657      4.1200    
  4.1200      4.2079      4.2911      4.3647      4.4257      4.4702      4.4940      4.4939      4.4702      4.4257    
  4.3647      4.2910      4.2079      4.1201      4.0356      3.9669      3.9280      3.9280      3.9669      4.0356    
  4.0544      4.1617      4.2638      4.3535      4.4244      4.4702      4.4861      4.4702      4.4244      4.3535    
  4.2637      4.1616      4.0544      3.9511      3.8635      3.8042      3.7831      3.8042      3.8635      3.9511    
  4.0109      4.1368      4.2542      4.3534      4.4257      4.4639      4.4639      4.4257      4.3535      4.2542    
  4.1368      4.0109      3.8874      3.7785      3.6967      3.6526      3.6526      3.6967      3.7785      3.8875    
  3.9958      4.1367      4.2637      4.3647      4.4299      4.4524      4.4299      4.3647      4.2637      4.1368    
  3.9958      3.8538      3.7243      3.6200      3.5523      3.5289      3.5524      3.6201      3.7243      3.8538    
  4.0108      4.1616      4.2911      4.3859      4.4360      4.4360      4.3859      4.2910      4.1616      4.0109    
  3.8538      3.7057      3.5805      3.4900      3.4426      3.4426      3.4901      3.5805      3.7057      3.8538    
  4.0544      4.2080      4.3318      4.4120      4.4398      4.4120      4.3317      4.2079      4.0544      3.8874    
  3.7243      3.5805      3.4690      3.3986      3.3746      3.3986      3.4690      3.5805      3.7242      3.8874    
  4.1202      4.2666      4.3739      4.4305      4.4305      4.3739      4.2666      4.1201      3.9511      3.7785    
  3.6200      3.4900      3.3986      3.3517      3.3516      3.3986      3.4900      3.6200      3.7785      3.9511    
  4.1926      4.3167      4.3956      4.4226      4.3956      4.3167      4.1926      4.0356      3.8635      3.6967    
  3.5523      3.4426      3.3746      3.3516      3.3746      3.4426      3.5524      3.6967      3.8636      4.0356    
  4.2456      4.3325      4.3763      4.3764      4.3325      4.2456      4.1200      3.9669      3.8042      3.6526    
  3.5289      3.4426      3.3986      3.3986      3.4426      3.5289      3.6527      3.8042      3.9669      4.1200    
  4.2549      4.2975      4.3107      4.2975      4.2549      4.1777      4.0656      3.9280      3.7831      3.6526    
  3.5524      3.4901      3.4690      3.4900      3.5524      3.6527      3.7831      3.9279      4.0656      4.1778    
  4.2122      4.2172      4.2172      4.2121      4.1898      4.1359      4.0454      3.9280      3.8042      3.6967    
  3.6201      3.5805      3.5805      3.6200      3.6967      3.8042      3.9279      4.0453      4.1359      4.1899    
  4.1342      4.1231      4.1343      4.1565      4.1644      4.1359      4.0657      3.9669      3.8635      3.7785    
  3.7243      3.7057      3.7242      3.7785      3.8636      3.9669      4.0656      4.1359      4.1645      4.1565    
  4.0598      4.0599      4.1011      4.1565      4.1899      4.1778      4.1200      4.0356      3.9511      3.8875    
  3.8538      3.8538      3.8874      3.9511      4.0356      4.1200      4.1778      4.1899      4.1565      4.1010    
  4.3589      4.3640      4.3714      4.3641      4.3279      4.2612      4.1761      4.0921      4.0251      3.9830    
  3.9686      3.9829      4.0251      4.0922      4.1761      4.2612      4.3279      4.3641      4.3713      4.3638    
  4.3640      4.3800      4.3971      4.3959      4.3653      4.3085      4.2407      4.1795      4.1352      4.1124    
  4.1123      4.1351      4.1795      4.2408      4.3085      4.3653      4.3960      4.3971      4.3799      4.3639    
  4.3714      4.3971      4.4188      4.4198      4.3945      4.3510      4.3043      4.2662      4.2423      4.2342    