Be                                      
   1.00000000000000     
     2.262760    0.000000    0.000000
     1.131380    1.959608    0.000000
     0.000000    0.000000    3.573160
   Be
     2
Direct
  0.000000  0.000000  0.000000
  0.333333  0.333333  0.500000
 
   20   20   32
 0.86522724238E+00 0.11107833815E+01 0.17521698907E+01 0.25599101566E+01 0.32952833509E+01
 0.38137528839E+01 0.40907403237E+01 0.41828642021E+01 0.41737310786E+01 0.41379167772E+01
 0.41218178692E+01 0.41379174494E+01 0.41737295560E+01 0.41828605782E+01 0.40907399521E+01
 0.38137603183E+01 0.32952954616E+01 0.25599184173E+01 0.17521699784E+01 0.11107799118E+01
 0.11107833815E+01 0.15683470684E+01 0.23112274213E+01 0.30937954414E+01 0.37197686334E+01
 0.41081159820E+01 0.42814581329E+01 0.43143342853E+01 0.42868607546E+01 0.42596808003E+01
 0.42596825450E+01 0.42868620228E+01 0.43143245097E+01 0.42814284972E+01 0.41080756077E+01
 0.37197516077E+01 0.30938393133E+01 0.23113332665E+01 0.15684619074E+01 0.11108332353E+01
 0.17521698907E+01 0.23112274213E+01 0.30146682076E+01 0.36540301668E+01 0.41035276907E+01
 0.43425142731E+01 0.44213151293E+01 0.44134612952E+01 0.43838354423E+01 0.43706432967E+01
 0.43838411184E+01 0.44134688900E+01 0.44213109041E+01 0.43424832499E+01 0.41034788547E+01
 0.36540046921E+01 0.30147054224E+01 0.23113165819E+01 0.17522460401E+01 0.15380820147E+01
 0.25599101566E+01 0.30937954414E+01 0.36540301668E+01 0.40987657891E+01 0.43703858748E+01
 0.44870482847E+01 0.45047196911E+01 0.44828259584E+01 0.44636292227E+01 0.44636305275E+01
 0.44828350971E+01 0.45047420694E+01 0.44870736575E+01 0.43703912538E+01 0.40987370439E+01
 0.36539770395E+01 0.30937424651E+01 0.25598758694E+01 0.22304332650E+01 0.22304444074E+01
 0.32952833509E+01 0.37197686334E+01 0.41035276907E+01 0.43703858748E+01 0.45090688210E+01
 0.45522979066E+01 0.45468094472E+01 0.45314756755E+01 0.45247043927E+01 0.45314679190E+01
 0.45468099144E+01 0.45523247525E+01 0.45091216719E+01 0.43704346250E+01 0.41035274753E+01
 0.37196972736E+01 0.32951703563E+01 0.29569664890E+01 0.28273460210E+01 0.29570519968E+01
 0.38137528839E+01 0.41081159820E+01 0.43425142731E+01 0.44870482847E+01 0.45522979066E+01
 0.45689544313E+01 0.45675053523E+01 0.45638970231E+01 0.45638874634E+01 0.45674803408E+01
 0.45689294332E+01 0.45522995100E+01 0.44870920953E+01 0.43425794687E+01 0.41081541542E+01
 0.38137342520E+01 0.35336828461E+01 0.33610882005E+01 0.33611152105E+01 0.35337341257E+01
 0.40907403237E+01 0.42814581329E+01 0.44213151293E+01 0.45047196911E+01 0.45468094472E+01
 0.45675053523E+01 0.45775143658E+01 0.45805779133E+01 0.45775078010E+01 0.45674783342E+01
 0.45467604904E+01 0.45046755203E+01 0.44213114834E+01 0.42815059178E+01 0.40908158478E+01
 0.38851112560E+01 0.37233265171E+01 0.36616474978E+01 0.37232897391E+01 0.38850438376E+01
 0.41828642021E+01 0.43143342853E+01 0.44134612952E+01 0.44828259584E+01 0.45314756755E+01
 0.45638970231E+01 0.45805779133E+01 0.45805921157E+01 0.45639226431E+01 0.45314770308E+01
 0.44827819964E+01 0.44133889671E+01 0.43142805563E+01 0.41828703274E+01 0.40334769051E+01
 0.38985482556E+01 0.38174759479E+01 0.38174403582E+01 0.38984680369E+01 0.40334108503E+01
 0.41737310786E+01 0.42868607546E+01 0.43838354423E+01 0.44636292227E+01 0.45247043927E+01
 0.45638874634E+01 0.45775078010E+01 0.45639226431E+01 0.45247598318E+01 0.44636735952E+01
 0.43838349907E+01 0.42868083051E+01 0.41736595501E+01 0.40505298445E+01 0.39342371672E+01
 0.38492669107E+01 0.38179174107E+01 0.38492489933E+01 0.39342365664E+01 0.40505735695E+01
 0.41379167772E+01 0.42596808003E+01 0.43706432967E+01 0.44636305275E+01 0.45314679190E+01
 0.45674803408E+01 0.45674783342E+01 0.45314770308E+01 0.44636735952E+01 0.43707127309E+01
 0.42597351336E+01 0.41379183542E+01 0.40138748083E+01 0.38991020072E+01 0.38087184236E+01
 0.37584433120E+01 0.37584611586E+01 0.38087692397E+01 0.38991699309E+01 0.40139250338E+01
 0.41218178692E+01 0.42596825450E+01 0.43838411184E+01 0.44828350971E+01 0.45468099144E+01
 0.45689294332E+01 0.45467604904E+01 0.44827819964E+01 0.43838349907E+01 0.42597351336E+01
 0.41218938725E+01 0.39825308313E+01 0.38544154102E+01 0.37504477018E+01 0.36823753041E+01
 0.36586601702E+01 0.36824126157E+01 0.37504892876E+01 0.38544200148E+01 0.39824822974E+01
 0.41379174494E+01 0.42868620228E+01 0.44134688900E+01 0.45047420694E+01 0.45523247525E+01
 0.45522995100E+01 0.45046755203E+01 0.44133889671E+01 0.42868083051E+01 0.41379183542E+01
 0.39825308313E+01 0.38364103835E+01 0.37137109367E+01 0.36256263058E+01 0.35797104426E+01
 0.35797128687E+01 0.36256203068E+01 0.37136755578E+01 0.38363500870E+01 0.39824814826E+01
 0.41737295560E+01 0.43143245097E+01 0.44213109041E+01 0.44870736575E+01 0.45091216719E+01
 0.44870920953E+01 0.44213114834E+01 0.43142805563E+01 0.41736595501E+01 0.40138748083E+01
 0.38544154102E+01 0.37137109367E+01 0.36051772641E+01 0.35372777656E+01 0.35142322541E+01
 0.35372539491E+01 0.36051356830E+01 0.37136739647E+01 0.38544154397E+01 0.40139240439E+01
 0.41828605782E+01 0.42814284972E+01 0.43424832499E+01 0.43703912538E+01 0.43704346250E+01
 0.43425794687E+01 0.42815059178E+01 0.41828703274E+01 0.40505298445E+01 0.38991020072E+01
 0.37504477018E+01 0.36256263058E+01 0.35372777656E+01 0.34918475389E+01 0.34918381315E+01
 0.35372599820E+01 0.36256248697E+01 0.37504824631E+01 0.38991649741E+01 0.40505798141E+01
 0.40907399521E+01 0.41080756077E+01 0.41034788547E+01 0.40987370439E+01 0.41035274753E+01
 0.41081541542E+01 0.40908158478E+01 0.40334769051E+01 0.39342371672E+01 0.38087184236E+01
 0.36823753041E+01 0.35797104426E+01 0.35142322541E+01 0.34918381315E+01 0.35142365841E+01
 0.35797298781E+01 0.36824126018E+01 0.38087548520E+01 0.39342428597E+01 0.40334357705E+01
 0.38137603183E+01 0.37197516077E+01 0.36540046921E+01 0.36539770395E+01 0.37196972736E+01
 0.38137342520E+01 0.38851112560E+01 0.38985482556E+01 0.38492669107E+01 0.37584433120E+01
 0.36586601702E+01 0.35797128687E+01 0.35372539491E+01 0.35372599820E+01 0.35797298781E+01
 0.36586786536E+01 0.37584419656E+01 0.38492312636E+01 0.38984956753E+01 0.38850848544E+01
 0.32952954616E+01 0.30938393133E+01 0.30147054224E+01 0.30937424651E+01 0.32951703563E+01
 0.35336828461E+01 0.37233265171E+01 0.38174759479E+01 0.38179174107E+01 0.37584611586E+01
 0.36824126157E+01 0.36256203068E+01 0.36051356830E+01 0.36256248697E+01 0.36824126018E+01
 0.37584419656E+01 0.38178740121E+01 0.38174313553E+01 0.37233270007E+01 0.35337588576E+01
 0.25599184173E+01 0.23113332665E+01 0.23113165819E+01 0.25598758694E+01 0.29569664890E+01
 0.33610882005E+01 0.36616474978E+01 0.38174403582E+01 0.38492489933E+01 0.38087692397E+01
 0.37504892876E+01 0.37136755578E+01 0.37136739647E+01 0.37504824631E+01 0.38087548520E+01
 0.38492312636E+01 0.38174313553E+01 0.36616598143E+01 0.33611247648E+01 0.29570161707E+01
 0.17521699784E+01 0.15684619074E+01 0.17522460401E+01 0.22304332650E+01 0.28273460210E+01
 0.33611152105E+01 0.37232897391E+01 0.38984680369E+01 0.39342365664E+01 0.38991699309E+01
 0.38544200148E+01 0.38363500870E+01 0.38544154397E+01 0.38991649741E+01 0.39342428597E+01
 0.38984956753E+01 0.37233270007E+01 0.33611247648E+01 0.28272963524E+01 0.22303393417E+01
 0.11107799118E+01 0.11108332353E+01 0.15380820147E+01 0.22304444074E+01 0.29570519968E+01
 0.35337341257E+01 0.38850438376E+01 0.40334108503E+01 0.40505735695E+01 0.40139250338E+01
 0.39824822974E+01 0.39824814826E+01 0.40139240439E+01 0.40505798141E+01 0.40334357705E+01
 0.38850848544E+01 0.35337588576E+01 0.29570161707E+01 0.22303393417E+01 0.15379616672E+01
 0.11226876432E+01 0.13512041798E+01 0.19475547708E+01 0.26972826397E+01 0.33775486318E+01
 0.38538420565E+01 0.41040732141E+01 0.41822546138E+01 0.41675957822E+01 0.41305739472E+01
 0.41143837232E+01 0.41305379065E+01 0.41675943147E+01 0.41822920166E+01 0.41040851485E+01
 0.38538261539E+01 0.33775601837E+01 0.26973063356E+01 0.19475234188E+01 0.13511415807E+01
 0.13512041798E+01 0.17775279716E+01 0.24689384121E+01 0.31957399762E+01 0.37746390188E+01
 0.41304411260E+01 0.42852073808E+01 0.43097008695E+01 0.42797539355E+01 0.42523894851E+01
 0.42523641983E+01 0.42797259897E+01 0.43097140118E+01 0.42852065314E+01 0.41303853345E+01
 0.37746065503E+01 0.31958093256E+01 0.24690566017E+01 0.17775997972E+01 0.13512204928E+01
 0.19475547708E+01 0.24689384121E+01 0.31240533636E+01 0.37178267838E+01 0.41328218736E+01
 0.43503467859E+01 0.44184163232E+01 0.44067688013E+01 0.43766969698E+01 0.43635925910E+01
 0.43766666997E+01 0.44067718876E+01 0.44184388208E+01 0.43503081863E+01 0.41327367765E+01
 0.37178089218E+01 0.31241404793E+01 0.24690445136E+01 0.19476073663E+01 0.17477567595E+01
 0.26972826397E+01 0.31957399762E+01 0.37178267838E+01 0.41306992306E+01 0.43807155489E+01
 0.44855614068E+01 0.44984931606E+01 0.44758153433E+01 0.44568995883E+01 0.44568807937E+01
 0.44758058105E+01 0.44985365323E+01 0.44855989473E+01 0.43806832142E+01 0.41306382801E+01
 0.37178024790E+01 0.31957330463E+01 0.26972535625E+01 0.23893748859E+01 0.23893961527E+01
 0.33775486318E+01 0.37746390188E+01 0.41328218736E+01 0.43807155489E+01 0.45081282642E+01
 0.45463804928E+01 0.45398823413E+01 0.45250029669E+01 0.45184993233E+01 0.45249744286E+01
 0.45398919673E+01 0.45464403957E+01 0.45081783689E+01 0.43807256219E+01 0.41328085642E+01
 0.37745896275E+01 0.33774406970E+01 0.30606818658E+01 0.29392398315E+01 0.30607871940E+01
 0.38538420565E+01 0.41304411260E+01 0.43503467859E+01 0.44855614068E+01 0.45463804928E+01
 0.45620591935E+01 0.45611687465E+01 0.45581097812E+01 0.45580852000E+01 0.45611314290E+01
 0.45620584078E+01 0.45464106646E+01 0.44856000602E+01 0.43503956941E+01 0.41304805952E+01
 0.38538176634E+01 0.35904165992E+01 0.34280316661E+01 0.34280810922E+01 0.35905014120E+01
 0.41040732141E+01 0.42852073808E+01 0.44184163232E+01 0.44984931606E+01 0.45398823413E+01
 0.45611687465E+01 0.45718804393E+01 0.45752225994E+01 0.45718498526E+01 0.45611339634E+01
 0.45398510573E+01 0.44984621801E+01 0.44184139697E+01 0.42852642812E+01 0.41041577085E+01
 0.39089985476E+01 0.37555924101E+01 0.36971387893E+01 0.37555879475E+01 0.39089502039E+01
 0.41822546138E+01 0.43097008695E+01 0.44067688013E+01 0.44758153433E+01 0.45250029669E+01
 0.45581097812E+01 0.45752225994E+01 0.45752238915E+01 0.45581145841E+01 0.45249973493E+01
 0.44757704385E+01 0.44066916070E+01 0.43096529236E+01 0.41822842828E+01 0.40382772318E+01
 0.39085952133E+01 0.38307980356E+01 0.38307714942E+01 0.39085223073E+01 0.40381946701E+01
 0.41675957822E+01 0.42797539355E+01 0.43766969698E+01 0.44568995883E+01 0.45184993233E+01
 0.45580852000E+01 0.45718498526E+01 0.45581145841E+01 0.45185519483E+01 0.44569398121E+01
 0.43766802897E+01 0.42796835052E+01 0.41675270760E+01 0.40463848024E+01 0.39325544973E+01
 0.38496426098E+01 0.38190982079E+01 0.38496201187E+01 0.39325355919E+01 0.40464061920E+01
 0.41305739472E+01 0.42523894851E+01 0.43635925910E+01 0.44568807937E+01 0.45249744286E+01
 0.45611314290E+01 0.45611339634E+01 0.45249973493E+01 0.44569398121E+01 0.43636636865E+01
 0.42524257236E+01 0.41305547136E+01 0.40067867390E+01 0.38926796924E+01 0.38030854894E+01
 0.37533410772E+01 0.37533566287E+01 0.38031286111E+01 0.38927396932E+01 0.40068421781E+01
 0.41143837232E+01 0.42523641983E+01 0.43766666997E+01 0.44758058105E+01 0.45398919673E+01
 0.45620584078E+01 0.45398510573E+01 0.44757704385E+01 0.43766802897E+01 0.42524257236E+01
 0.41144534923E+01 0.39750159008E+01 0.38468965026E+01 0.37429795100E+01 0.36749715082E+01
 0.36512896393E+01 0.36750131564E+01 0.37430289445E+01 0.38469128810E+01 0.39749808500E+01
 0.41305379065E+01 0.42797259897E+01 0.44067718876E+01 0.44985365323E+01 0.45464403957E+01
 0.45464106646E+01 0.44984621801E+01 0.44066916070E+01 0.42796835052E+01 0.41305547136E+01
 0.39750159008E+01 0.38287728034E+01 0.37059541099E+01 0.36177623261E+01 0.35717824658E+01
 0.35717893857E+01 0.36177673889E+01 0.37059296064E+01 0.38287150330E+01 0.39749571448E+01
 0.41675943147E+01 0.43097140118E+01 0.44184388208E+01 0.44855989473E+01 0.45081783689E+01
 0.44856000602E+01 0.44184139697E+01 0.43096529236E+01 0.41675270760E+01 0.40067867390E+01
 0.38468965026E+01 0.37059541099E+01 0.35972693193E+01 0.35292748618E+01 0.35061959189E+01
 0.35292531576E+01 0.35972299434E+01 0.37059127645E+01 0.38468813307E+01 0.40068187986E+01
 0.41822920166E+01 0.42852065314E+01 0.43503081863E+01 0.43806832142E+01 0.43807256219E+01
 0.43503956941E+01 0.42852642812E+01 0.41822842828E+01 0.40463848024E+01 0.38926796924E+01
 0.37429795100E+01 0.36177623261E+01 0.35292748618E+01 0.34838072824E+01 0.34837933290E+01
 0.35292491263E+01 0.36177554876E+01 0.37430078476E+01 0.38927349379E+01 0.40464370372E+01
 0.41040851485E+01 0.41303853345E+01 0.41327367765E+01 0.41306382801E+01 0.41328085642E+01
 0.41304805952E+01 0.41041577085E+01 0.40382772318E+01 0.39325544973E+01 0.38030854894E+01
 0.36749715082E+01 0.35717824658E+01 0.35061959189E+01 0.34837933290E+01 0.35061874414E+01
 0.35717963011E+01 0.36750162739E+01 0.38031299779E+01 0.39325656724E+01 0.40382450942E+01
 0.38538261539E+01 0.37746065503E+01 0.37178089218E+01 0.37178024790E+01 0.37745896275E+01
 0.38538176634E+01 0.39089985476E+01 0.39085952133E+01 0.38496426098E+01 0.37533410772E+01
 0.36512896393E+01 0.35717893857E+01 0.35292531576E+01 0.35292491263E+01 0.35717963011E+01
 0.36513205881E+01 0.37533593043E+01 0.38496115722E+01 0.39085398217E+01 0.39089704289E+01
 0.33775601837E+01 0.31958093256E+01 0.31241404793E+01 0.31957330463E+01 0.33774406970E+01
 0.35904165992E+01 0.37555924101E+01 0.38307980356E+01 0.38190982079E+01 0.37533566287E+01
 0.36750131564E+01 0.36177673889E+01 0.35972299434E+01 0.36177554876E+01 0.36750162739E+01
 0.37533593043E+01 0.38190570795E+01 0.38307336319E+01 0.37555868426E+01 0.35905031234E+01
 0.26973063356E+01 0.24690566017E+01 0.24690445136E+01 0.26972535625E+01 0.30606818658E+01
 0.34280316661E+01 0.36971387893E+01 0.38307714942E+01 0.38496201187E+01 0.38031286111E+01
 0.37430289445E+01 0.37059296064E+01 0.37059127645E+01 0.37430078476E+01 0.38031299779E+01
 0.38496115722E+01 0.38307336319E+01 0.36971261180E+01 0.34280909400E+01 0.30607708021E+01
 0.19475234188E+01 0.17775997972E+01 0.19476073663E+01 0.23893748859E+01 0.29392398315E+01
 0.34280810922E+01 0.37555879475E+01 0.39085223073E+01 0.39325355919E+01 0.38927396932E+01
 0.38469128810E+01 0.38287150330E+01 0.38468813307E+01 0.38927349379E+01 0.39325656724E+01
 0.39085398217E+01 0.37555868426E+01 0.34280909400E+01 0.29392351420E+01 0.23893077155E+01
 0.13511415807E+01 0.13512204928E+01 0.17477567595E+01 0.23893961527E+01 0.30607871940E+01
 0.35905014120E+01 0.39089502039E+01 0.40381946701E+01 0.40464061920E+01 0.40068421781E+01
 0.39749808500E+01 0.39749571448E+01 0.40068187986E+01 0.40464370372E+01 0.40382450942E+01
 0.39089704289E+01 0.35905031234E+01 0.30607708021E+01 0.23893077155E+01 0.17476071929E+01
 0.17980984600E+01 0.19817032021E+01 0.24595156554E+01 0.30565549808E+01 0.35917150972E+01
 0.39569552654E+01 0.41368672008E+01 0.41786199342E+01 0.41497894018E+01 0.41099307455E+01
 0.40936133738E+01 0.41098636712E+01 0.41497881054E+01 0.41786921624E+01 0.41368893023E+01
 0.39569187950E+01 0.35917250978E+01 0.30565910817E+01 0.24594577775E+01 0.19815909314E+01
 0.19817032021E+01 0.23257705071E+01 0.28817095415E+01 0.34616742066E+01 0.39165768481E+01
 0.41867378759E+01 0.42928329884E+01 0.42956339265E+01 0.42596185394E+01 0.42319802818E+01
 0.42319316789E+01 0.42595652629E+01 0.42956672514E+01 0.42928596145E+01 0.41866732722E+01
 0.39165332748E+01 0.34617615194E+01 0.28818291365E+01 0.23257961318E+01 0.19816868868E+01
 0.24595156554E+01 0.28817095415E+01 0.34095629839E+01 0.38832198702E+01 0.42073472085E+01
 0.43685438985E+01 0.44087309280E+01 0.43875552549E+01 0.43566503644E+01 0.43439004456E+01
 0.43565885421E+01 0.43875534330E+01 0.44087767679E+01 0.43685023872E+01 0.42072361881E+01
 0.38832106706E+01 0.34096889284E+01 0.28818222155E+01 0.24595417913E+01 0.22973712688E+01
 0.30565549808E+01 0.34616742066E+01 0.38832198702E+01 0.42121300429E+01 0.44053828320E+01
 0.44794635154E+01 0.44803835831E+01 0.44560640641E+01 0.44380492142E+01 0.44380131375E+01
 0.44560376791E+01 0.44804427291E+01 0.44795092173E+01 0.44053179563E+01 0.42120438673E+01
 0.38832240570E+01 0.34617105350E+01 0.30565331912E+01 0.28055031819E+01 0.28055320608E+01
 0.35917150972E+01 0.39165768481E+01 0.42073472085E+01 0.44053828320E+01 0.45034214218E+01
 0.45290205726E+01 0.45203209682E+01 0.45068077112E+01 0.45010969972E+01 0.45067625923E+01
 0.45203386063E+01 0.45291059797E+01 0.45034639998E+01 0.44053552698E+01 0.42073225092E+01
 0.39165522152E+01 0.35916212332E+01 0.33314593649E+01 0.32315749890E+01 0.33315741270E+01
 0.39569552654E+01 0.41867378759E+01 0.43685438985E+01 0.44794635154E+01 0.45290205726E+01
 0.45425641220E+01 0.45433148886E+01 0.45418029128E+01 0.45417667723E+01 0.45432699629E+01
 0.45425862943E+01 0.45290745054E+01 0.44794936330E+01 0.43685735223E+01 0.41867757665E+01
 0.39569281101E+01 0.37375005693E+01 0.36020674803E+01 0.36021336132E+01 0.37376092666E+01
 0.41368672008E+01 0.42928329884E+01 0.44087309280E+01 0.44803835831E+01 0.45203209682E+01
 0.45433148886E+01 0.45559706017E+01 0.45601044647E+01 0.45559204266E+01 0.45432760964E+01
 0.45203089836E+01 0.44803676257E+01 0.44087302833E+01 0.42928941551E+01 0.41369533906E+01
 0.39696163003E+01 0.38383449238E+01 0.37883853261E+01 0.38383712044E+01 0.39695898158E+01
 0.41786199342E+01 0.42956339265E+01 0.43875552549E+01 0.44560640641E+01 0.45068077112E+01
 0.45418029128E+01 0.45601044647E+01 0.45600933026E+01 0.45417873745E+01 0.45067959206E+01
 0.44560223221E+01 0.43874803276E+01 0.42955955687E+01 0.41786690065E+01 0.40487717512E+01
 0.39329170958E+01 0.38637595525E+01 0.38637439971E+01 0.39328577607E+01 0.40486811414E+01
 0.41497894018E+01 0.42596185394E+01 0.43566503644E+01 0.44380492142E+01 0.45010969972E+01
 0.45417667723E+01 0.45559204266E+01 0.45417873745E+01 0.45011418854E+01 0.44380822663E+01
 0.43566201806E+01 0.42595370613E+01 0.41497286572E+01 0.40336323734E+01 0.39261970997E+01
 0.38486802468E+01 0.38202522123E+01 0.38486557765E+01 0.39261631674E+01 0.40336315555E+01
 0.41099307455E+01 0.42319802818E+01 0.43439004456E+01 0.44380131375E+01 0.45067625923E+01
 0.45432699629E+01 0.45432760964E+01 0.45067959206E+01 0.44380822663E+01 0.43439675426E+01
 0.42319963927E+01 0.41098931902E+01 0.39867075888E+01 0.38741854949E+01 0.37865725531E+01
 0.37381848835E+01 0.37381969841E+01 0.37866046784E+01 0.38742327033E+01 0.39867632758E+01
 0.40936133738E+01 0.42319316789E+01 0.43565885421E+01 0.44560376791E+01 0.45203386063E+01
 0.45425862943E+01 0.45203089836E+01 0.44560223221E+01 0.43566201806E+01 0.42319963927E+01
 0.40936708675E+01 0.39539826916E+01 0.38257747010E+01 0.37219172477E+01 0.36540245355E+01
 0.36303996291E+01 0.36540665735E+01 0.37219690465E+01 0.38257997182E+01 0.39539630999E+01
 0.41098636712E+01 0.42595652629E+01 0.43875534330E+01 0.44804427291E+01 0.45291059797E+01
 0.45290745054E+01 0.44803676257E+01 0.43874803276E+01 0.42595370613E+01 0.41098931902E+01
 0.39539826916E+01 0.38073895951E+01 0.36841902323E+01 0.35956394805E+01 0.35494373763E+01
 0.35494482771E+01 0.35956546732E+01 0.36841771865E+01 0.38073383119E+01 0.39539205017E+01
 0.41497881054E+01 0.42956672514E+01 0.44087767679E+01 0.44795092173E+01 0.45034639998E+01
 0.44794936330E+01 0.44087302833E+01 0.42955955687E+01 0.41497286572E+01 0.39867075888E+01
 0.38257747010E+01 0.36841902323E+01 0.35750401037E+01 0.35067231138E+01 0.34835259163E+01
 0.35067064750E+01 0.35750067551E+01 0.36841478489E+01 0.38257465360E+01 0.39867216843E+01
 0.41786921624E+01 0.42928596145E+01 0.43685023872E+01 0.44053179563E+01 0.44053552698E+01
 0.43685735223E+01 0.42928941551E+01 0.41786690065E+01 0.40336323734E+01 0.38741854949E+01
 0.37219172477E+01 0.35956394805E+01 0.35067231138E+01 0.34611124779E+01 0.34610963020E+01
 0.35066934025E+01 0.35956283123E+01 0.37219367972E+01 0.38742290847E+01 0.40336826558E+01
 0.41368893023E+01 0.41866732722E+01 0.42072361881E+01 0.42120438673E+01 0.42073225092E+01
 0.41867757665E+01 0.41369533906E+01 0.40487717512E+01 0.39261970997E+01 0.37865725531E+01
 0.36540245355E+01 0.35494373763E+01 0.34835259163E+01 0.34610963020E+01 0.34835067977E+01
 0.35494447876E+01 0.36540717987E+01 0.37866205669E+01 0.39262125952E+01 0.40487502231E+01
 0.39569187950E+01 0.39165332748E+01 0.38832106706E+01 0.38832240570E+01 0.39165522152E+01
 0.39569281101E+01 0.39696163003E+01 0.39329170958E+01 0.38486802468E+01 0.37381848835E+01
 0.36303996291E+01 0.35494482771E+01 0.35067064750E+01 0.35066934025E+01 0.35494447876E+01
 0.36304386705E+01 0.37382194224E+01 0.38486566211E+01 0.39328638980E+01 0.39695880476E+01
 0.35917250978E+01 0.34617615194E+01 0.34096889284E+01 0.34617105350E+01 0.35916212332E+01
 0.37375005693E+01 0.38383449238E+01 0.38637595525E+01 0.38202522123E+01 0.37381969841E+01
 0.36540665735E+01 0.35956546732E+01 0.35750067551E+01 0.35956283123E+01 0.36540717987E+01
 0.37382194224E+01 0.38202173112E+01 0.38636832187E+01 0.38383343524E+01 0.37375888818E+01
 0.30565910817E+01 0.28818291365E+01 0.28818222155E+01 0.30565331912E+01 0.33314593649E+01
 0.36020674803E+01 0.37883853261E+01 0.38637439971E+01 0.38486557765E+01 0.37866046784E+01
 0.37219690465E+01 0.36841771865E+01 0.36841478489E+01 0.37219367972E+01 0.37866205669E+01
 0.38486566211E+01 0.38636832187E+01 0.37883512332E+01 0.36021429752E+01 0.33315770993E+01
 0.24594577775E+01 0.23257961318E+01 0.24595417913E+01 0.28055031819E+01 0.32315749890E+01
 0.36021336132E+01 0.38383712044E+01 0.39328577607E+01 0.39261631674E+01 0.38742327033E+01
 0.38257997182E+01 0.38073383119E+01 0.38257465360E+01 0.38742290847E+01 0.39262125952E+01
 0.39328638980E+01 0.38383343524E+01 0.36021429752E+01 0.32316126064E+01 0.28054667050E+01
 0.19815909314E+01 0.19816868868E+01 0.22973712688E+01 0.28055320608E+01 0.33315741270E+01
 0.37376092666E+01 0.39695898158E+01 0.40486811414E+01 0.40336315555E+01 0.39867632758E+01
 0.39539630999E+01 0.39539205017E+01 0.39867216843E+01 0.40336826558E+01 0.40487502231E+01
 0.39695880476E+01 0.37375888818E+01 0.33315770993E+01 0.28054667050E+01 0.22972073566E+01
 0.26567510239E+01 0.27827442050E+01 0.31085492314E+01 0.35097949116E+01 0.38588898652E+01
 0.40818440430E+01 0.41720211237E+01 0.41679631653E+01 0.41222553601E+01 0.40797301244E+01
 0.40634802930E+01 0.40796420199E+01 0.41222543376E+01 0.41680591760E+01 0.41720498497E+01
 0.40817927047E+01 0.38588976700E+01 0.35098387600E+01 0.31084734129E+01 0.27825985572E+01
 0.27827442050E+01 0.30212447802E+01 0.34033520221E+01 0.37949249624E+01 0.40908365863E+01
 0.42514885298E+01 0.42959556407E+01 0.42722011930E+01 0.42298448981E+01 0.42023555859E+01
 0.42022905250E+01 0.42297734099E+01 0.42722486490E+01 0.42960038490E+01 0.42514222162E+01
 0.40907876603E+01 0.37950209340E+01 0.34034630015E+01 0.30212283118E+01 0.27827010163E+01
 0.31085492314E+01 0.34033520221E+01 0.37678008552E+01 0.40873244067E+01 0.42951175547E+01
 0.43847453508E+01 0.43903588737E+01 0.43584766888E+01 0.43274417764E+01 0.43154080449E+01
 0.43273570732E+01 0.43584701279E+01 0.43904211610E+01 0.43847053903E+01 0.42949939642E+01
 0.40873237654E+01 0.37679498680E+01 0.34034607469E+01 0.31085500587E+01 0.29947776366E+01
 0.35097949116E+01 0.37949249624E+01 0.40873244067E+01 0.43086309298E+01 0.44296304791E+01
 0.44653337305E+01 0.44523173512E+01 0.44271256037E+01 0.44107233892E+01 0.44106752281E+01
 0.44270867384E+01 0.44523855076E+01 0.44653830628E+01 0.44295428294E+01 0.43085297374E+01
 0.40873525263E+01 0.37949953834E+01 0.35097809232E+01 0.33318675462E+01 0.33319007651E+01
 0.38588898652E+01 0.40908365863E+01 0.42951175547E+01 0.44296304791E+01 0.44909522905E+01
 0.45016980645E+01 0.44915203396E+01 0.44803190582E+01 0.44758302774E+01 0.44802636889E+01
 0.44915440969E+01 0.45017988754E+01 0.44909844505E+01 0.44295717572E+01 0.42950845030E+01
 0.40908354453E+01 0.38588160744E+01 0.36715544538E+01 0.35994405179E+01 0.36716679093E+01
 0.40818440430E+01 0.42514885298E+01 0.43847453508E+01 0.44653337305E+01 0.45016980645E+01
 0.45138039826E+01 0.45172355288E+01 0.45180100188E+01 0.45179669791E+01 0.45171881352E+01
 0.45138446361E+01 0.45017679667E+01 0.44653532319E+01 0.43847554156E+01 0.42515223978E+01
 0.40818174982E+01 0.39190854538E+01 0.38184446462E+01 0.38185197801E+01 0.39192055424E+01
 0.41720211237E+01 0.42959556407E+01 0.43903588737E+01 0.44523173512E+01 0.44915203396E+01
 0.45172355288E+01 0.45326986899E+01 0.45379567274E+01 0.45326353369E+01 0.45171963366E+01
 0.44915261498E+01 0.44523155663E+01 0.43903596139E+01 0.42960159856E+01 0.41721025736E+01
 0.40405501662E+01 0.39378774743E+01 0.38989028886E+01 0.39379284743E+01 0.40405444824E+01
 0.41679631653E+01 0.42722011930E+01 0.43584766888E+01 0.44271256037E+01 0.44803190582E+01
 0.45180100188E+01 0.45379567274E+01 0.45379351199E+01 0.45179772667E+01 0.44803028120E+01
 0.44270904136E+01 0.43584100141E+01 0.42721744429E+01 0.41680254366E+01 0.40559960901E+01
 0.39579059566E+01 0.38999135624E+01 0.38999093704E+01 0.39578641022E+01 0.40559059925E+01
 0.41222553601E+01 0.42298448981E+01 0.43274417764E+01 0.44107233892E+01 0.44758302774E+01
 0.45179669791E+01 0.45326353369E+01 0.45179772667E+01 0.44758644066E+01 0.44107481941E+01
 0.43274028105E+01 0.42297602478E+01 0.41222062903E+01 0.40120518870E+01 0.39125741374E+01
 0.38419172859E+01 0.38162027001E+01 0.38418942074E+01 0.39125307594E+01 0.40120319831E+01
 0.40797301244E+01 0.42023555859E+01 0.43154080449E+01 0.44106752281E+01 0.44802636889E+01
 0.45171881352E+01 0.45171963366E+01 0.44803028120E+01 0.44107481941E+01 0.43154669887E+01
 0.42023524696E+01 0.40796789592E+01 0.39569567140E+01 0.38460539744E+01 0.37607210531E+01
 0.37139649686E+01 0.37139735377E+01 0.37607414752E+01 0.38460858886E+01 0.39570079248E+01
 0.40634802930E+01 0.42022905250E+01 0.43273570732E+01 0.44270867384E+01 0.44915440969E+01
 0.45138446361E+01 0.44915261498E+01 0.44270904136E+01 0.43274028105E+01 0.42023524696E+01
 0.40635211497E+01 0.39233732983E+01 0.37948739253E+01 0.36909281014E+01 0.36230704576E+01
 0.35994767151E+01 0.36231095743E+01 0.36909768368E+01 0.37949030426E+01 0.39233688384E+01
 0.40796420199E+01 0.42297734099E+01 0.43584701279E+01 0.44523855076E+01 0.45017988754E+01
 0.45017679667E+01 0.44523155663E+01 0.43584100141E+01 0.42297602478E+01 0.40796789592E+01
 0.39233732983E+01 0.37762788718E+01 0.36524402744E+01 0.35632539445E+01 0.35166508844E+01
 0.35166647892E+01 0.35632767259E+01 0.36524368091E+01 0.37762363207E+01 0.39233140689E+01
 0.41222543376E+01 0.42722486490E+01 0.43904211610E+01 0.44653830628E+01 0.44909844505E+01
 0.44653532319E+01 0.43903596139E+01 0.42721744429E+01 0.41222062903E+01 0.39569567140E+01
 0.37948739253E+01 0.36524402744E+01 0.35425373787E+01 0.34736369178E+01 0.34502166869E+01
 0.34736274576E+01 0.35425123353E+01 0.36523994405E+01 0.37948366492E+01 0.39569551208E+01
 0.41680591760E+01 0.42960038490E+01 0.43847053903E+01 0.44295428294E+01 0.44295717572E+01
 0.43847554156E+01 0.42960159856E+01 0.41680254366E+01 0.40120518870E+01 0.38460539744E+01
 0.36909281014E+01 0.35632539445E+01 0.34736369178E+01 0.34277209190E+01 0.34277053760E+01
 0.34736079985E+01 0.35632400240E+01 0.36909378483E+01 0.38460842886E+01 0.40120966886E+01
 0.41720498497E+01 0.42514222162E+01 0.42949939642E+01 0.43085297374E+01 0.42950845030E+01
 0.42515223978E+01 0.41721025736E+01 0.40559960901E+01 0.39125741374E+01 0.37607210531E+01
 0.36230704576E+01 0.35166508844E+01 0.34502166869E+01 0.34277053760E+01 0.34501913147E+01
 0.35166525905E+01 0.36231152282E+01 0.37607680491E+01 0.39125926827E+01 0.40559850277E+01
 0.40817927047E+01 0.40907876603E+01 0.40873237654E+01 0.40873525263E+01 0.40908354453E+01
 0.40818174982E+01 0.40405501662E+01 0.39579059566E+01 0.38419172859E+01 0.37139649686E+01
 0.35994767151E+01 0.35166647892E+01 0.34736274576E+01 0.34736079985E+01 0.35166525905E+01
 0.35995183765E+01 0.37140100274E+01 0.38419028237E+01 0.39578597249E+01 0.40405232850E+01
 0.38588976700E+01 0.37950209340E+01 0.37679498680E+01 0.37949953834E+01 0.38588160744E+01
 0.39190854538E+01 0.39378774743E+01 0.38999135624E+01 0.38162027001E+01 0.37139735377E+01
 0.36231095743E+01 0.35632767259E+01 0.35425123353E+01 0.35632400240E+01 0.36231152282E+01
 0.37140100274E+01 0.38161764234E+01 0.38998346784E+01 0.39378638804E+01 0.39191672494E+01
 0.35098387600E+01 0.34034630015E+01 0.34034607469E+01 0.35097809232E+01 0.36715544538E+01
 0.38184446462E+01 0.38989028886E+01 0.38999093704E+01 0.38418942074E+01 0.37607414752E+01
 0.36909768368E+01 0.36524368091E+01 0.36523994405E+01 0.36909378483E+01 0.37607680491E+01
 0.38419028237E+01 0.38998346784E+01 0.38988540004E+01 0.38185277275E+01 0.36716868908E+01
 0.31084734129E+01 0.30212283118E+01 0.31085500587E+01 0.33318675462E+01 0.35994405179E+01
 0.38185197801E+01 0.39379284743E+01 0.39578641022E+01 0.39125307594E+01 0.38460858886E+01
 0.37949030426E+01 0.37762363207E+01 0.37948366492E+01 0.38460842886E+01 0.39125926827E+01
 0.39578597249E+01 0.39378638804E+01 0.38185277275E+01 0.35995110945E+01 0.33318606461E+01
 0.27825985572E+01 0.27827010163E+01 0.29947776366E+01 0.33319007651E+01 0.36716679093E+01
 0.39192055424E+01 0.40405444824E+01 0.40559059925E+01 0.40120319831E+01 0.39570079248E+01
 0.39233688384E+01 0.39233140689E+01 0.39569551208E+01 0.40120966886E+01 0.40559850277E+01
 0.40405232850E+01 0.39191672494E+01 0.36716868908E+01 0.33318606461E+01 0.29946152767E+01
 0.34516658847E+01 0.35233201025E+01 0.37058116171E+01 0.39225611834E+01 0.40965350086E+01
 0.41860315648E+01 0.41929262696E+01 0.41477405436E+01 0.40886817738E+01 0.40449406230E+01
 0.40291069543E+01 0.40448432676E+01 0.40886810448E+01 0.41478473339E+01 0.41929579020E+01
 0.41859728624E+01 0.40965404608E+01 0.39226074725E+01 0.37057279635E+01 0.35231602852E+01
 0.35233201025E+01 0.36621054364E+01 0.38801186126E+01 0.40940723618E+01 0.42405291722E+01
 0.42990704160E+01 0.42874042969E+01 0.42412722051E+01 0.41952735641E+01 0.41687131678E+01