   2   2   0   0
  0.7921913E+01  0.2262760E-09  0.2262760E-09  0.3573160E-09  0.5000000E-15
  1.000000000000000E-004
  CAR 
 Be                                      
    123.61367847    -10.42386858  301      7.71549250      1.00000000
    -10.424  0.0000E+00  0.0000E+00
     -9.977  0.0000E+00  0.0000E+00
     -9.530  0.0000E+00  0.0000E+00
     -9.083  0.0000E+00  0.0000E+00
     -8.637  0.0000E+00  0.0000E+00
     -8.190  0.0000E+00  0.0000E+00
     -7.743  0.0000E+00  0.0000E+00
     -7.296  0.0000E+00  0.0000E+00
     -6.850  0.0000E+00  0.0000E+00
     -6.403  0.0000E+00  0.0000E+00
     -5.956  0.0000E+00  0.0000E+00
     -5.509  0.0000E+00  0.0000E+00
     -5.062  0.0000E+00  0.0000E+00
     -4.616  0.3883E-17  0.1735E-17
     -4.169  0.2241E-01  0.1001E-01
     -3.722  0.1481E+00  0.7787E-01
     -3.275  0.1013E+00  0.1351E+00
     -2.828  0.1394E+00  0.1990E+00
     -2.382  0.3230E+00  0.3591E+00
     -1.935  0.1154E+00  0.4305E+00
     -1.488  0.2098E+00  0.5273E+00
     -1.041  0.3122E+00  0.6668E+00
     -0.594  0.3099E+00  0.8538E+00
     -0.148  0.3424E+00  0.1017E+01
      0.299  0.3140E+00  0.1168E+01
      0.746  0.1224E+00  0.1223E+01
      1.193  0.5960E+00  0.1489E+01
      1.640  0.3973E+00  0.1705E+01
      2.086  0.4694E+00  0.1925E+01
      2.533  0.7576E+00  0.2284E+01
      2.980  0.1557E+00  0.2370E+01
      3.427  0.4896E+00  0.2590E+01
      3.873  0.4909E+00  0.2825E+01
      4.320  0.5552E+00  0.3146E+01
      4.767  0.1367E+00  0.3217E+01
      5.214  0.5157E+00  0.3527E+01
      5.661  0.5154E+00  0.3856E+01
      6.107  0.0000E+00  0.3859E+01
      6.554  0.1277E-01  0.3865E+01
      7.001  0.2080E+00  0.3977E+01
      7.448  0.4368E-15  0.3977E+01
      7.895  0.3110E+00  0.4116E+01
      8.341  0.4844E+00  0.4334E+01
      8.788  0.1790E+00  0.4435E+01
      9.235  0.7420E+00  0.4788E+01
      9.682  0.1253E+01  0.5348E+01
     10.129  0.2641E+00  0.5466E+01
     10.575  0.5514E+00  0.5712E+01
     11.022  0.2516E-01  0.5781E+01
     11.469  0.5404E+00  0.6023E+01
     11.916  0.4704E+00  0.6236E+01
     12.363  0.4137E+00  0.6421E+01
     12.809  0.4456E+00  0.6644E+01
     13.256  0.7015E+00  0.6993E+01
     13.703  0.5658E+00  0.7285E+01
     14.150  0.7590E+00  0.7652E+01
     14.596  0.7856E+00  0.8015E+01
     15.043  0.2274E+00  0.8125E+01
     15.490  0.6199E+00  0.8441E+01
     15.937  0.7787E+00  0.8864E+01
     16.384  0.3909E+00  0.9042E+01
     16.830  0.4956E+00  0.9276E+01
     17.277  0.6446E+00  0.9590E+01
     17.724  0.8219E+00  0.1001E+02
     18.171  0.3447E+00  0.1018E+02
     18.618  0.5049E+00  0.1041E+02
     19.064  0.7283E+00  0.1075E+02
     19.511  0.1908E+00  0.1086E+02
     19.958  0.3867E+00  0.1111E+02
     20.405  0.1005E+01  0.1157E+02
     20.852  0.9133E+00  0.1205E+02
     21.298  0.1021E+01  0.1252E+02
     21.745  0.8332E+00  0.1291E+02
     22.192  0.6797E+00  0.1322E+02
     22.639  0.1842E+01  0.1404E+02
     23.086  0.8329E+00  0.1446E+02
     23.532  0.5772E+00  0.1480E+02
     23.979  0.7545E+00  0.1524E+02
     24.426  0.5000E+00  0.1546E+02
     24.873  0.3891E+00  0.1569E+02
     25.319  0.3575E+00  0.1586E+02
     25.766  0.3265E+00  0.1605E+02
     26.213  0.2780E+00  0.1619E+02
     26.660  0.7954E+00  0.1658E+02
     27.107  0.3293E+00  0.1676E+02
     27.553  0.4165E-07  0.1676E+02
     28.000  0.5325E+00  0.1700E+02
     28.447  0.2998E+00  0.1713E+02
     28.894  0.2554E-03  0.1714E+02
     29.341  0.9971E+00  0.1758E+02
     29.787  0.7840E+00  0.1798E+02
     30.234  0.1450E+01  0.1864E+02
     30.681  0.7691E+00  0.1899E+02
     31.128  0.2758E+00  0.1915E+02
     31.575  0.4859E+00  0.1938E+02
     32.021  0.6144E+00  0.1966E+02
     32.468  0.5854E+00  0.1992E+02
     32.915  0.1574E+00  0.2003E+02
     33.362  0.2698E+00  0.2015E+02
     33.809  0.3150E+00  0.2030E+02
     34.255  0.5533E+00  0.2055E+02
     34.702  0.7795E+00  0.2092E+02
     35.149  0.9718E+00  0.2141E+02
     35.596  0.1017E+01  0.2186E+02
     36.042  0.9185E+00  0.2237E+02
     36.489  0.4960E+00  0.2263E+02
     36.936  0.7787E+00  0.2303E+02
     37.383  0.3483E+00  0.2321E+02
     37.830  0.3965E+00  0.2339E+02
     38.276  0.1306E+01  0.2399E+02
     38.723  0.2455E+00  0.2413E+02
     39.170  0.4500E+00  0.2441E+02
     39.617  0.6037E+00  0.2472E+02
     40.064  0.6475E+00  0.2507E+02
     40.510  0.7602E+00  0.2541E+02
     40.957  0.9836E+00  0.2585E+02
     41.404  0.6786E+00  0.2616E+02
     41.851  0.6957E+00  0.2647E+02
     42.298  0.4944E+00  0.2671E+02
     42.744  0.1093E+01  0.2720E+02
     43.191  0.5016E+00  0.2758E+02
     43.638  0.7178E+00  0.2791E+02
     44.085  0.1169E+01  0.2848E+02
     44.532  0.8993E+00  0.2890E+02
     44.978  0.5688E+00  0.2927E+02
     45.425  0.6874E+00  0.2958E+02
     45.872  0.1484E+01  0.3024E+02
     46.319  0.7824E+00  0.3071E+02
     46.765  0.3049E+00  0.3084E+02
     47.212  0.2112E+00  0.3101E+02
     47.659  0.5510E+00  0.3126E+02
     48.106  0.7408E+00  0.3164E+02
     48.553  0.1134E+01  0.3217E+02
     48.999  0.6739E+00  0.3250E+02
     49.446  0.7293E+00  0.3284E+02
     49.893  0.6367E+00  0.3313E+02
     50.340  0.5997E+00  0.3344E+02
     50.787  0.5441E+00  0.3373E+02
     51.233  0.9574E+00  0.3416E+02
     51.680  0.1174E+01  0.3472E+02
     52.127  0.8852E+00  0.3523E+02
     52.574  0.5938E+00  0.3555E+02
     53.021  0.1086E+01  0.3606E+02
     53.467  0.7190E+00  0.3646E+02
     53.914  0.5857E+00  0.3678E+02
     54.361  0.1124E+01  0.3730E+02
     54.808  0.1408E+01  0.3799E+02
     55.255  0.4963E+00  0.3828E+02
     55.701  0.8599E+00  0.3868E+02
     56.148  0.6165E+00  0.3901E+02
     56.595  0.8788E+00  0.3945E+02
     57.042  0.1033E+01  0.3996E+02
     57.488  0.7633E+00  0.4034E+02
     57.935  0.5578E+00  0.4062E+02
     58.382  0.1093E+01  0.4115E+02
     58.829  0.6000E+00  0.4155E+02
     59.276  0.8954E+00  0.4199E+02
     59.722  0.6805E+00  0.4236E+02
     60.169  0.3900E+00  0.4258E+02
     60.616  0.6803E+00  0.4290E+02
     61.063  0.1605E+01  0.4364E+02
     61.510  0.6859E+00  0.4404E+02
     61.956  0.4856E+00  0.4427E+02
     62.403  0.9772E+00  0.4472E+02
     62.850  0.9251E+00  0.4521E+02
     63.297  0.5194E+00  0.4557E+02
     63.744  0.6198E+00  0.4585E+02
     64.190  0.7482E+00  0.4619E+02
     64.637  0.7555E+00  0.4655E+02
     65.084  0.1098E+01  0.4709E+02
     65.531  0.7156E+00  0.4744E+02
     65.978  0.9431E+00  0.4787E+02
     66.424  0.9371E+00  0.4837E+02
     66.871  0.7955E+00  0.4877E+02
     67.318  0.1287E+01  0.4942E+02
     67.765  0.5481E+00  0.4975E+02
     68.211  0.1002E+01  0.5026E+02
     68.658  0.5744E+00  0.5054E+02
     69.105  0.5823E+00  0.5083E+02
     69.552  0.8266E+00  0.5124E+02
     69.999  0.7040E+00  0.5161E+02
     70.445  0.7906E+00  0.5199E+02
     70.892  0.6271E+00  0.5227E+02
     71.339  0.1417E+01  0.5293E+02
     71.786  0.8075E+00  0.5335E+02
     72.233  0.1357E+01  0.5398E+02
     72.679  0.8748E+00  0.5437E+02
     73.126  0.1163E+01  0.5489E+02
     73.573  0.1102E+01  0.5544E+02
     74.020  0.9738E+00  0.5589E+02
     74.467  0.6749E+00  0.5622E+02
     74.913  0.7559E+00  0.5662E+02
     75.360  0.1084E+01  0.5711E+02
     75.807  0.8369E+00  0.5753E+02
     76.254  0.9901E+00  0.5800E+02
     76.701  0.1003E+01  0.5864E+02
     77.147  0.6020E+00  0.5893E+02
     77.594  0.7909E+00  0.5931E+02
     78.041  0.4072E+00  0.5956E+02
     78.488  0.5976E+00  0.5991E+02
     78.934  0.8003E+00  0.6028E+02
     79.381  0.9698E+00  0.6073E+02
     79.828  0.1215E+01  0.6135E+02
     80.275  0.5784E+00  0.6170E+02
     80.722  0.1296E+01  0.6234E+02
     81.168  0.5205E+00  0.6263E+02
     81.615  0.9612E+00  0.6307E+02
     82.062  0.7775E+00  0.6348E+02
     82.509  0.1556E+01  0.6417E+02
     82.956  0.1302E+01  0.6482E+02
     83.402  0.1121E+01  0.6544E+02
     83.849  0.6426E+00  0.6581E+02
     84.296  0.8831E+00  0.6624E+02
     84.743  0.1872E+01  0.6709E+02
     85.190  0.6815E+00  0.6746E+02
     85.636  0.1496E+01  0.6813E+02
     86.083  0.7786E+00  0.6849E+02
     86.530  0.3859E+00  0.6881E+02
     86.977  0.6225E+00  0.6918E+02
     87.424  0.1202E+01  0.6973E+02
     87.870  0.6312E+00  0.7003E+02
     88.317  0.1493E+01  0.7077E+02
     88.764  0.7044E+00  0.7119E+02
     89.211  0.5636E+00  0.7144E+02
     89.657  0.1077E+01  0.7193E+02
     90.104  0.6908E+00  0.7233E+02
     90.551  0.8615E+00  0.7278E+02
     90.998  0.7043E+00  0.7313E+02
     91.445  0.1148E+01  0.7379E+02
     91.891  0.8093E+00  0.7420E+02
     92.338  0.1139E+01  0.7472E+02
     92.785  0.5313E+00  0.7499E+02
     93.232  0.7819E+00  0.7545E+02
     93.679  0.1471E+01  0.7626E+02
     94.125  0.1018E+01  0.7672E+02
     94.572  0.7089E+00  0.7726E+02
     95.019  0.1119E+01  0.7784E+02
     95.466  0.8173E+00  0.7828E+02
     95.913  0.1316E+01  0.7888E+02
     96.359  0.1550E+01  0.7963E+02
     96.806  0.8185E+00  0.8003E+02
     97.253  0.6645E+00  0.8036E+02
     97.700  0.1648E+01  0.8111E+02
     98.147  0.1547E+01  0.8184E+02
     98.593  0.1108E+01  0.8234E+02
     99.040  0.8485E+00  0.8281E+02
     99.487  0.6764E+00  0.8312E+02
     99.934  0.1179E+01  0.8368E+02
    100.381  0.1532E+01  0.8444E+02
    100.827  0.1142E+01  0.8496E+02
    101.274  0.6464E+00  0.8534E+02
    101.721  0.6078E+00  0.8568E+02
    102.168  0.1575E+01  0.8642E+02
    102.614  0.1744E+00  0.8654E+02
    103.061  0.1119E+01  0.8710E+02
    103.508  0.8115E+00  0.8750E+02
    103.955  0.1535E+01  0.8822E+02
    104.402  0.7083E+00  0.8868E+02
    104.848  0.4729E+00  0.8895E+02
    105.295  0.6028E+00  0.8926E+02
    105.742  0.1135E+01  0.8982E+02
    106.189  0.1026E+01  0.9030E+02
    106.636  0.1014E+01  0.9077E+02
    107.082  0.8742E+00  0.9126E+02
    107.529  0.3653E+00  0.9143E+02
    107.976  0.1046E+01  0.9194E+02
    108.423  0.1065E+01  0.9246E+02
    108.870  0.1180E+01  0.9304E+02
    109.316  0.1092E+01  0.9359E+02
    109.763  0.5999E+00  0.9391E+02
    110.210  0.5405E+00  0.9416E+02
    110.657  0.1048E+01  0.9463E+02
    111.104  0.5813E+00  0.9498E+02
    111.550  0.3147E+00  0.9513E+02
    111.997  0.2098E+00  0.9523E+02
    112.444  0.3374E+00  0.9538E+02
    112.891  0.2594E+00  0.9553E+02
    113.337  0.7245E-01  0.9556E+02
    113.784  0.1733E+00  0.9566E+02
    114.231  0.1217E+00  0.9573E+02
    114.678  0.5977E-01  0.9576E+02
    115.125  0.2098E+00  0.9591E+02
    115.571  0.5355E-01  0.9593E+02
    116.018  0.1789E-01  0.9594E+02
    116.465  0.1749E-01  0.9595E+02
    116.912  0.0000E+00  0.9595E+02
    117.359  0.2266E-06  0.9595E+02
    117.805  0.1049E+00  0.9600E+02
    118.252  0.0000E+00  0.9600E+02
    118.699  0.0000E+00  0.9600E+02
    119.146  0.0000E+00  0.9600E+02
    119.593  0.0000E+00  0.9600E+02
    120.039  0.0000E+00  0.9600E+02
    120.486  0.0000E+00  0.9600E+02
    120.933  0.0000E+00  0.9600E+02
    121.380  0.0000E+00  0.9600E+02
    121.827  0.0000E+00  0.9600E+02
    122.273  0.0000E+00  0.9600E+02
    122.720  0.0000E+00  0.9600E+02
    123.167  0.0000E+00  0.9600E+02
    123.614  0.0000E+00  0.9600E+02
