    2    2    1    1
  0.7921913E+01  0.2262760E-09  0.2262760E-09  0.3573160E-09  0.5000000E-15
  1.000000000000000E-004
  CAR 
 Be                                      
      4     50     48
 
  0.0000000E+00  0.0000000E+00  0.0000000E+00  0.1953125E-02
      1         -4.331253   1.000000
      2          2.551613   1.000000
      3          8.064858   0.000000
      4         23.039398   0.000000
      5         23.039404   0.000000
      6         25.866948   0.000000
      7         25.866954   0.000000
      8         27.842659   0.000000
      9         34.123363   0.000000
     10         35.419084   0.000000
     11         35.419086   0.000000
     12         36.864859   0.000000
     13         39.955118   0.000000
     14         39.955119   0.000000
     15         40.194432   0.000000
     16         42.028592   0.000000
     17         42.028605   0.000000
     18         42.671513   0.000000
     19         42.989751   0.000000
     20         44.332472   0.000000
     21         44.332481   0.000000
     22         50.077370   0.000000
     23         61.011376   0.000000
     24         62.977477   0.000000
     25         71.194118   0.000000
     26         71.194153   0.000000
     27         74.206724   0.000000
     28         74.206790   0.000000
     29         76.242811   0.000000
     30         76.403495   0.000000
     31         76.403515   0.000000
     32         77.678321   0.000000
     33         77.678353   0.000000
     34         85.048555   0.000000
     35         89.294442   0.000000
     36         94.940925   0.000000
     37         97.221877   0.000000
     38         99.318825   0.000000
     39         99.319162   0.000000
     40        105.406077   0.000000
     41        105.406112   0.000000
     42        106.698681   0.000000
     43        106.699314   0.000000
     44        107.822071   0.000000
     45        113.341607   0.000000
     46        115.620463   0.000000
     47        115.620923   0.000000
     48        116.046764   0.000000
 
  0.1250000E+00 -0.3518252E-17  0.0000000E+00  0.1171875E-01
      1         -3.881042   1.000000
      2          3.140293   1.000000
      3          8.192145   0.000000
      4         19.957283   0.000000
      5         21.064534   0.000000
      6         25.762169   0.000000
      7         26.442487   0.000000
      8         26.894383   0.000000
      9         29.959426   0.000000
     10         35.279940   0.000000
     11         35.438611   0.000000
     12         36.488554   0.000000
     13         38.784859   0.000000
     14         39.143509   0.000000
     15         39.779586   0.000000
     16         42.608492   0.000000
     17         43.208523   0.000000
     18         44.190415   0.000000
     19         47.528283   0.000000
     20         48.777438   0.000000
     21         52.097294   0.000000
     22         52.857861   0.000000
     23         59.766124   0.000000
     24         60.621501   0.000000
     25         69.014707   0.000000
     26         69.559333   0.000000
     27         69.792311   0.000000
     28         71.400265   0.000000
     29         77.348320   0.000000
     30         77.767979   0.000000
     31         79.666213   0.000000
     32         81.724029   0.000000
     33         85.489592   0.000000
     34         85.819477   0.000000
     35         86.815152   0.000000
     36         91.381713   0.000000
     37         95.674702   0.000000
     38         95.778565   0.000000
     39         96.581747   0.000000
     40         99.299875   0.000000
     41        102.780869   0.000000
     42        105.280900   0.000000
     43        106.467874   0.000000
     44        107.657855   0.000000
     45        109.721972   0.000000
     46        110.564009   0.000000
     47        113.737343   0.000000
     48        115.483596   0.000000
 
  0.2500000E+00 -0.7036504E-17  0.0000000E+00  0.1171875E-01
      1         -2.529607   1.000000
      2          4.895283   1.000000
      3          8.284409   0.000000
      4         15.130088   0.000000
      5         18.606284   0.000000
      6         22.902418   0.000000
      7         23.475112   0.000000
      8         25.528047   0.000000
      9         26.881716   0.000000
     10         31.504999   0.000000
     11         35.801857   0.000000
     12         36.069631   0.000000
     13         39.036181   0.000000
     14         41.202197   0.000000
     15         42.230861   0.000000
     16         46.206641   0.000000
     17         48.146945   0.000000
     18         52.268187   0.000000
     19         52.424749   0.000000
     20         55.326070   0.000000
     21         55.977530   0.000000
     22         57.333232   0.000000
     23         58.571940   0.000000
     24         64.212109   0.000000
     25         66.372494   0.000000
     26         66.442149   0.000000
     27         67.569456   0.000000
     28         68.574481   0.000000
     29         75.724712   0.000000
     30         78.852554   0.000000
     31         81.301160   0.000000
     32         82.721976   0.000000
     33         85.283027   0.000000
     34         85.690086   0.000000
     35         88.262474   0.000000
     36         88.608342   0.000000
     37         93.586518   0.000000
     38         94.863479   0.000000
     39         95.293534   0.000000
     40         96.708023   0.000000
     41         99.438689   0.000000
     42         99.490803   0.000000
     43        103.797862   0.000000
     44        105.484880   0.000000
     45        108.111885   0.000000
     46        108.503841   0.000000
     47        110.637815   0.000000
     48        110.924689   0.000000
 
  0.3750000E+00  0.4495639E-16  0.0000000E+00  0.1171875E-01
      1         -0.304511   1.000000
      2          6.582861   1.000000
      3          7.752482   0.147728
      4         13.130400   0.000000
      5         17.002314   0.000000
      6         17.384752   0.000000
      7         19.315376   0.000000
      8         24.388600   0.000000
      9         26.660403   0.000000
     10         30.047959   0.000000
     11         33.989082   0.000000
     12         37.363068   0.000000
     13         40.639318   0.000000
     14         45.645032   0.000000
     15         47.630939   0.000000
     16         48.305106   0.000000
     17         48.642405   0.000000
     18         54.610806   0.000000
     19         55.305357   0.000000
     20         59.767262   0.000000
     21         60.023166   0.000000
     22         62.588622   0.000000
     23         64.955891   0.000000
     24         65.073255   0.000000
     25         65.429139   0.000000
     26         67.371230   0.000000
     27         67.943693   0.000000
     28         69.451895   0.000000
     29         70.386573   0.000000
     30         76.898096   0.000000
     31         76.946594   0.000000
     32         80.651884   0.000000
     33         82.196886   0.000000
     34         83.319603   0.000000
     35         84.692572   0.000000
     36         89.513960   0.000000
     37         93.260721   0.000000
     38         93.624090   0.000000
     39         96.093775   0.000000
     40         98.921877   0.000000
     41         98.962130   0.000000
     42        102.625464   0.000000
     43        102.984576   0.000000
     44        105.030116   0.000000
     45        106.945655   0.000000
     46        108.189282   0.000000
     47        108.198501   0.000000
     48        110.690936   0.000000
 
  0.5000000E+00 -0.1407301E-16  0.0000000E+00  0.5859375E-02
      1          2.018596   1.000000
      2          3.888355   1.000000
      3         10.636885   0.000000
      4         13.486912   0.000000
      5         13.716639   0.000000
      6         16.454344   0.000000
      7         17.084771   0.000000
      8         23.950254   0.000000
      9         26.673622   0.000000
     10         29.604883   0.000000
     11         33.382396   0.000000
     12         37.924430   0.000000
     13         43.533582   0.000000
     14         44.563030   0.000000
     15         46.774445   0.000000
     16         49.281828   0.000000
     17         55.747988   0.000000
     18         55.939941   0.000000
     19         56.943214   0.000000
     20         57.215056   0.000000
     21         60.511946   0.000000
     22         61.039278   0.000000
     23         65.068403   0.000000
     24         66.616730   0.000000
     25         67.156282   0.000000
     26         69.914311   0.000000
     27         71.573366   0.000000
     28         71.839655   0.000000
     29         72.805370   0.000000
     30         72.854705   0.000000
     31         73.526613   0.000000
     32         77.154070   0.000000
     33         79.237926   0.000000
     34         82.406427   0.000000
     35         88.638769   0.000000
     36         88.856035   0.000000
     37         90.903116   0.000000
     38         91.660819   0.000000
     39         96.905369   0.000000
     40         97.173081   0.000000
     41         98.679152   0.000000
     42        103.661909   0.000000
     43        104.584559   0.000000
     44        105.691482   0.000000
     45        106.404204   0.000000
     46        106.992666   0.000000
     47        107.106465   0.000000
     48        107.819650   0.000000
 
  0.2500000E+00  0.1250000E+00  0.0000000E+00  0.1171875E-01
      1         -2.978744   1.000000
      2          4.312605   1.000000
      3          8.382769   0.000000
      4         16.764926   0.000000
      5         18.023524   0.000000
      6         24.666211   0.000000
      7         25.133035   0.000000
      8         25.138539   0.000000
      9         29.889293   0.000000
     10         30.774328   0.000000
     11         32.610804   0.000000
     12         35.937559   0.000000
     13         41.100373   0.000000
     14         41.589347   0.000000
     15         43.840272   0.000000
     16         45.545409   0.000000
     17         45.690012   0.000000
     18         45.869018   0.000000
     19         50.193609   0.000000
     20         55.693458   0.000000
     21         56.521026   0.000000
     22         57.654063   0.000000
     23         58.121069   0.000000
     24         60.793913   0.000000
     25         63.974392   0.000000
     26         67.064794   0.000000
     27         68.475613   0.000000
     28         74.532766   0.000000
     29         76.464048   0.000000
     30         76.746935   0.000000
     31         80.491641   0.000000
     32         82.417916   0.000000
     33         84.204948   0.000000
     34         88.033333   0.000000
     35         90.460894   0.000000
     36         92.189381   0.000000
     37         92.819227   0.000000
     38         93.645530   0.000000
     39         96.084745   0.000000
     40         97.417069   0.000000
     41         97.805637   0.000000
     42         98.599170   0.000000
     43        100.308021   0.000000
     44        108.159659   0.000000
     45        108.437888   0.000000
     46        110.051082   0.000000
     47        113.793672   0.000000
     48        114.700082   0.000000
 
  0.3750000E+00  0.1250000E+00  0.0000000E+00  0.2343750E-01
      1         -1.173556   1.000000
      2          6.629002   1.000000
      3          8.103942   0.000000
      4         12.753907   0.000000
      5         15.760259   0.000000
      6         20.228922   0.000000
      7         22.126411   0.000000
      8         23.902774   0.000000
      9         26.832156   0.000000
     10         29.364615   0.000000
     11         35.791443   0.000000
     12         36.652454   0.000000
     13         42.505053   0.000000
     14         42.790948   0.000000
     15         45.569632   0.000000
     16         49.395467   0.000000
     17         50.086599   0.000000
     18         51.670827   0.000000
     19         53.199300   0.000000
     20         54.470575   0.000000
     21         59.324618   0.000000
     22         60.146913   0.000000
     23         62.392464   0.000000
     24         64.016938   0.000000
     25         65.710498   0.000000
     26         68.008028   0.000000
     27         70.705197   0.000000
     28         71.683544   0.000000
     29         73.981591   0.000000
     30         75.194315   0.000000
     31         79.378389   0.000000
     32         81.334778   0.000000
     33         82.726232   0.000000
     34         84.018790   0.000000
     35         85.495586   0.000000
     36         91.432546   0.000000
     37         94.166448   0.000000
     38         95.576364   0.000000
     39         96.371501   0.000000
     40         97.931911   0.000000
     41        100.116901   0.000000
     42        100.849993   0.000000
     43        101.937362   0.000000
     44        103.273578   0.000000
     45        103.879421   0.000000
     46        106.098431   0.000000
     47        110.325302   0.000000
     48        110.689587   0.000000
 
  0.5000000E+00  0.1250000E+00  0.0000000E+00  0.2343750E-01
      1          1.435841   1.000000
      2          5.346709   1.000000
      3          9.900316   0.000000
      4         12.205027   0.000000
      5         14.124793   0.000000
      6         15.221844   0.000000
      7         19.857666   0.000000
      8         23.173983   0.000000
      9         25.311439   0.000000
     10         29.081695   0.000000
     11         37.532379   0.000000
     12         39.195369   0.000000
     13         43.485915   0.000000
     14         44.536472   0.000000
     15         46.771523   0.000000
     16         47.598718   0.000000
     17         52.468902   0.000000
     18         54.367259   0.000000
     19         56.735237   0.000000
     20         56.821575   0.000000
     21         58.577106   0.000000
     22         61.828920   0.000000
     23         62.432084   0.000000
     24         66.045713   0.000000
     25         68.759540   0.000000
     26         70.076563   0.000000
     27         70.896857   0.000000
     28         71.160126   0.000000
     29         75.052220   0.000000
     30         76.280946   0.000000
     31         77.201315   0.000000
     32         80.674822   0.000000
     33         83.393930   0.000000
     34         84.965209   0.000000
     35         85.332155   0.000000
     36         87.627932   0.000000
     37         90.574258   0.000000
     38         93.051323   0.000000
     39         95.174417   0.000000
     40         97.766662   0.000000
     41         98.476969   0.000000
     42         99.826568   0.000000
     43        100.460831   0.000000
     44        101.939752   0.000000
     45        103.775596   0.000000
     46        106.781763   0.000000
     47        107.778967   0.000000
     48        108.992315   0.000000
 
  0.5000000E+00  0.2500000E+00  0.0000000E+00  0.1171875E-01
      1          1.095868   1.000000
      2          7.815557   0.002326
      3          8.924560   0.000000
      4          9.440448   0.000000
      5         14.086434   0.000000
      6         17.439682   0.000000
      7         21.224136   0.000000
      8         21.958780   0.000000
      9         22.041130   0.000000
     10         34.050847   0.000000
     11         36.166901   0.000000
     12         39.145291   0.000000
     13         45.148745   0.000000
     14         45.716620   0.000000
     15         46.565405   0.000000
     16         48.449063   0.000000
     17         50.859914   0.000000
     18         52.032507   0.000000
     19         55.412870   0.000000
     20         55.631212   0.000000
     21         55.732844   0.000000
     22         59.312363   0.000000
     23         60.834414   0.000000
     24         67.179129   0.000000
     25         69.594832   0.000000
     26         70.045982   0.000000
     27         73.719149   0.000000
     28         76.522409   0.000000
     29         76.864199   0.000000
     30         78.331663   0.000000
     31         80.423670   0.000000
     32         80.500210   0.000000
     33         82.790510   0.000000
     34         82.859215   0.000000
     35         86.609620   0.000000
     36         88.206442   0.000000
     37         89.580477   0.000000
     38         95.960599   0.000000
     39         96.214964   0.000000
     40         97.654724   0.000000
     41         97.946204   0.000000
     42         98.002883   0.000000
     43         99.329279   0.000000
     44         99.963812   0.000000
     45        102.872974   0.000000
     46        104.441024   0.000000
     47        106.212498   0.000000
     48        108.128747   0.000000
 
 -0.3750000E+00  0.2500000E+00  0.0000000E+00  0.1171875E-01
      1          3.669448   1.000000
      2          5.143514   1.000000
      3          8.176148   0.000000
      4         12.371782   0.000000
      5         13.742588   0.000000
      6         14.380535   0.000000
      7         20.403708   0.000000
      8         20.536248   0.000000
      9         21.588160   0.000000
     10         34.775375   0.000000
     11         41.179212   0.000000
     12         41.692158   0.000000
     13         41.891757   0.000000
     14         44.106402   0.000000
     15         45.803592   0.000000
     16         51.107202   0.000000
     17         51.594954   0.000000
     18         52.020022   0.000000
     19         53.247281   0.000000
     20         55.692601   0.000000
     21         59.090035   0.000000
     22         59.777759   0.000000
     23         60.398655   0.000000
     24         60.418151   0.000000
     25         72.068943   0.000000
     26         72.885284   0.000000
     27         75.044700   0.000000
     28         78.134265   0.000000
     29         79.329343   0.000000
     30         80.427486   0.000000
     31         83.654011   0.000000
     32         84.451160   0.000000
     33         85.093908   0.000000
     34         87.215050   0.000000
     35         87.700889   0.000000
     36         88.860692   0.000000
     37         89.002145   0.000000
     38         89.760750   0.000000
     39         91.862122   0.000000
     40         92.065916   0.000000
     41         94.950773   0.000000
     42         95.009480   0.000000
     43         96.816663   0.000000
     44        100.259837   0.000000
     45        100.593579   0.000000
     46        101.780603   0.000000
     47        101.815123   0.000000
     48        103.106759   0.000000
 
 -0.1428576E-32  0.1121682E-33  0.1250000E+00  0.3906250E-02
      1         -4.196243   1.000000
      2          1.811755   1.000000
      3          9.118521   0.000000
      4         23.162091   0.000000
      5         23.162092   0.000000
      6         25.821808   0.000000
      7         25.821811   0.000000
      8         26.807833   0.000000
      9         34.753783   0.000000
     10         34.927789   0.000000
     11         34.927791   0.000000
     12         36.465454   0.000000
     13         37.883377   0.000000
     14         38.781996   0.000000
     15         38.781998   0.000000
     16         43.095228   0.000000
     17         43.102942   0.000000
     18         43.102952   0.000000
     19         45.913454   0.000000
     20         45.913461   0.000000
     21         46.457947   0.000000
     22         49.628717   0.000000
     23         60.308095   0.000000
     24         63.776568   0.000000
     25         67.010518   0.000000
     26         67.010520   0.000000
     27         71.400409   0.000000
     28         71.400415   0.000000
     29         75.273785   0.000000
     30         78.731333   0.000000
     31         78.731349   0.000000
     32         83.014567   0.000000
     33         83.014570   0.000000
     34         85.927158   0.000000
     35         86.893522   0.000000
     36         91.889036   0.000000
     37         99.444171   0.000000
     38         99.444544   0.000000
     39        104.222791   0.000000
     40        105.122685   0.000000
     41        105.122985   0.000000
     42        106.871744   0.000000
     43        106.872417   0.000000
     44        108.007227   0.000000
     45        110.061881   0.000000
     46        114.628909   0.000000
     47        114.629613   0.000000
     48        116.193226   0.000000
 
  0.1250000E+00 -0.1994821E-19  0.1250000E+00  0.2343750E-01
      1         -3.745695   1.000000
      2          2.349729   1.000000
      3          9.291170   0.000000
      4         20.084603   0.000000
      5         21.212759   0.000000
      6         25.437327   0.000000
      7         26.153049   0.000000
      8         26.201014   0.000000
      9         29.989440   0.000000
     10         34.254332   0.000000
     11         35.330732   0.000000
     12         35.939731   0.000000
     13         38.427363   0.000000
     14         39.938462   0.000000
     15         41.901992   0.000000
     16         42.547251   0.000000
     17         43.053096   0.000000
     18         43.763373   0.000000
     19         48.879065   0.000000
     20         50.080710   0.000000
     21         50.975278   0.000000
     22         54.119315   0.000000
     23         58.574329   0.000000
     24         61.494030   0.000000
     25         64.591372   0.000000
     26         66.474571   0.000000
     27         71.054853   0.000000
     28         74.888280   0.000000
     29         76.340655   0.000000
     30         76.788144   0.000000
     31         79.549646   0.000000
     32         83.556146   0.000000
     33         86.070019   0.000000
     34         86.537334   0.000000
     35         89.175800   0.000000
     36         90.170000   0.000000
     37         91.639162   0.000000
     38         96.010789   0.000000
     39         98.666152   0.000000
     40        102.894869   0.000000
     41        103.126939   0.000000
     42        105.922539   0.000000
     43        107.558491   0.000000
     44        107.978211   0.000000
     45        108.121143   0.000000
     46        110.661841   0.000000
     47        112.471613   0.000000
     48        117.521063   0.000000
 
  0.2500000E+00 -0.3538200E-17  0.1250000E+00  0.2343750E-01
      1         -2.394316   1.000000
      2          3.901775   1.000000
      3          9.520255   0.000000
      4         15.283441   0.000000
      5         18.767152   0.000000
      6         21.459114   0.000000
      7         24.498611   0.000000
      8         24.999281   0.000000
      9         27.038899   0.000000
     10         31.631628   0.000000
     11         34.372242   0.000000
     12         36.509908   0.000000
     13         39.088220   0.000000
     14         41.527846   0.000000
     15         43.825470   0.000000
     16         46.093863   0.000000
     17         47.283380   0.000000
     18         51.680192   0.000000
     19         53.065640   0.000000
     20         55.352700   0.000000
     21         56.555315   0.000000
     22         56.792858   0.000000
     23         59.085898   0.000000
     24         62.007559   0.000000
     25         64.769446   0.000000
     26         65.926241   0.000000
     27         69.482432   0.000000
     28         73.289424   0.000000
     29         75.679099   0.000000
     30         78.877345   0.000000
     31         79.435961   0.000000
     32         81.622185   0.000000
     33         84.165641   0.000000
     34         86.117525   0.000000
     35         86.957323   0.000000
     36         90.188683   0.000000
     37         93.148307   0.000000
     38         93.736304   0.000000
     39         94.511629   0.000000
     40         96.156678   0.000000
     41        100.086319   0.000000
     42        103.851442   0.000000
     43        104.592381   0.000000
     44        106.570249   0.000000
     45        107.598976   0.000000
     46        108.939864   0.000000
     47        110.531738   0.000000
     48        111.877587   0.000000
 
  0.3750000E+00  0.4845470E-16  0.1250000E+00  0.2343750E-01
      1         -0.174632   1.000000
      2          5.609388   1.000000
      3          8.481715   0.000000
      4         13.458720   0.000000
      5         16.572577   0.000000
      6         17.167396   0.000000
      7         20.592017   0.000000
      8         23.776802   0.000000
      9         26.552982   0.000000
     10         30.154580   0.000000
     11         34.929486   0.000000
     12         35.442652   0.000000
     13         41.218994   0.000000
     14         43.654078   0.000000
     15         48.463274   0.000000
     16         48.783389   0.000000
     17         50.847299   0.000000
     18         53.533083   0.000000
     19         54.739191   0.000000
     20         58.298245   0.000000
     21         61.213072   0.000000
     22         61.645250   0.000000
     23         63.962222   0.000000
     24         65.067890   0.000000
     25         65.583190   0.000000
     26         67.840894   0.000000
     27         69.143867   0.000000
     28         71.590381   0.000000
     29         71.992128   0.000000
     30         76.301018   0.000000
     31         77.625548   0.000000
     32         79.784668   0.000000
     33         82.616335   0.000000
     34         82.906850   0.000000
     35         84.657245   0.000000
     36         89.108422   0.000000
     37         91.580895   0.000000
     38         93.335942   0.000000
     39         94.201886   0.000000
     40         98.899477   0.000000
     41         99.712431   0.000000
     42        100.146203   0.000000
     43        104.216225   0.000000
     44        104.621068   0.000000
     45        106.309876   0.000000
     46        107.354001   0.000000
     47        110.031223   0.000000
     48        110.506998   0.000000
 
  0.5000000E+00 -0.1057470E-16  0.1250000E+00  0.1171875E-01
      1          2.130211   1.000000
      2          3.892253   1.000000
      3         10.254005   0.000000
      4         11.592198   0.000000
      5         15.901039   0.000000
      6         16.620451   0.000000
      7         17.813641   0.000000
      8         23.318568   0.000000
      9         26.567418   0.000000
     10         29.705001   0.000000
     11         34.357593   0.000000
     12         36.320700   0.000000
     13         41.589667   0.000000
     14         43.866778   0.000000
     15         49.352777   0.000000
     16         50.965695   0.000000
     17         54.827707   0.000000
     18         55.579972   0.000000
     19         57.125447   0.000000
     20         57.291477   0.000000
     21         59.204493   0.000000
     22         60.675356   0.000000
     23         65.280713   0.000000
     24         65.652206   0.000000
     25         67.692363   0.000000
     26         70.361961   0.000000
     27         71.035911   0.000000
     28         72.427855   0.000000
     29         74.188306   0.000000
     30         74.464557   0.000000
     31         76.008647   0.000000
     32         77.180507   0.000000
     33         79.506209   0.000000
     34         81.721596   0.000000
     35         86.889129   0.000000
     36         89.086646   0.000000
     37         89.642252   0.000000
     38         92.030383   0.000000
     39         95.851341   0.000000
     40         97.158407   0.000000
     41         98.137569   0.000000
     42         99.203356   0.000000
     43        100.664012   0.000000
     44        101.690526   0.000000
     45        106.109141   0.000000
     46        108.214573   0.000000
     47        108.958620   0.000000
     48        109.326563   0.000000
 
  0.2500000E+00  0.1250000E+00  0.1250000E+00  0.2343750E-01
      1         -2.843158   1.000000
      2          3.401427   1.000000
      3          9.584516   0.000000
      4         16.896312   0.000000
      5         18.134484   0.000000
      6         23.748595   0.000000
      7         24.408499   0.000000
      8         25.324853   0.000000
      9         30.184388   0.000000
     10         30.954391   0.000000
     11         33.465801   0.000000
     12         34.839567   0.000000
     13         40.680938   0.000000
     14         41.031048   0.000000
     15         44.865796   0.000000
     16         45.363132   0.000000
     17         45.949553   0.000000
     18         47.922251   0.000000
     19         50.030716   0.000000
     20         54.682102   0.000000
     21         55.505742   0.000000
     22         56.502183   0.000000
     23         59.093167   0.000000
     24         62.618408   0.000000
     25         62.918837   0.000000
     26         66.563417   0.000000
     27         69.170128   0.000000
     28         73.387210   0.000000
     29         75.854882   0.000000
     30         80.596668   0.000000
     31         80.615555   0.000000
     32         81.681974   0.000000
     33         82.629877   0.000000
     34         88.683355   0.000000
     35         89.378218   0.000000
     36         90.200534   0.000000
     37         92.031132   0.000000
     38         94.377916   0.000000
     39         96.147927   0.000000
     40         97.227612   0.000000
     41         97.326560   0.000000
     42         99.892969   0.000000
     43        106.015814   0.000000
     44        108.856639   0.000000
     45        109.045876   0.000000
     46        109.341167   0.000000
     47        112.178183   0.000000
     48        114.882196   0.000000
 
  0.3750000E+00  0.1250000E+00  0.1250000E+00  0.4687500E-01
      1         -1.039740   1.000000
      2          5.301033   1.000000
      3          9.510143   0.000000
      4         13.018999   0.000000
      5         15.703031   0.000000
      6         19.549694   0.000000
      7         22.280253   0.000000
      8         23.575476   0.000000