Be                                      
           1
     2.262760    0.000000    0.000000
     1.131380    1.959608    0.000000
     0.000000    0.000000    3.573160
   Be
     2
Direct configuration=     1
   0.00000000  0.00000000  0.00000000
   0.33333333  0.33333333  0.50000000
