 DBCSR| CPU Multiplication driver                                           BLAS (U)
 DBCSR| Multrec recursion limit                                              512 (U)
 DBCSR| Multiplication stack size                                           1000 (D)
 DBCSR| Maximum elements for images                                    UNLIMITED (U)
 DBCSR| Multiplicative factor virtual images                                   1 (U)
 DBCSR| Use multiplication densification                                       T (D)
 DBCSR| Multiplication size stacks                                             3 (U)
 DBCSR| Use memory pool for CPU allocation                                     F (U)
 DBCSR| Number of 3D layers                                               SINGLE (U)
 DBCSR| Use MPI memory allocation                                              F (U)
 DBCSR| Use RMA algorithm                                                      F (U)
 DBCSR| Use Communication thread                                               T (U)
 DBCSR| Communication thread load                                             45 (D)
 DBCSR| MPI: My process id                                                     0
 DBCSR| MPI: Number of processes                                               8
 DBCSR| OMP: Current number of threads                                        12
 DBCSR| OMP: Max number of threads                                            12
 DBCSR| Split modifier for TAS multiplication algorithm                  1.0E+00 (U)


  **** **** ******  **  PROGRAM STARTED AT               2025-08-07 20:31:58.723
 ***** ** ***  *** **   PROGRAM STARTED ON                          i03r10c02s07
 **    ****   ******    PROGRAM STARTED BY                               di38fab
 ***** **    ** ** **   PROGRAM PROCESS ID                               1621944
  **** **  *******  **  PROGRAM STARTED IN /hppfs/scratch/04/di38fab/09_GTH/Delt
                                           a_Set/W/aug-DZVP-MOLOPT-GTH-tier-1/8x
                                           8x8

 CP2K| version string:                 CP2K version 2025.1 (Development Version)
 CP2K| source code revision number:                                  git:3130539
 CP2K| cp2kflags: omp libint fftw3 libxc parallel scalapack max_contr=4         
 CP2K| is freely available from                            https://www.cp2k.org/
 CP2K| Program compiled at                         Tue Jun  3 16:14:32 CEST 2025
 CP2K| Program compiled on                                               login01
 CP2K| Program compiled for                                        Supermuc-foss
 CP2K| Data directory path                  /hppfs/work/pn36zo/di38fab/cp2k/data
 CP2K| Input file name                                                    GW.inp

 GLOBAL| Force Environment number                                              1
 GLOBAL| Basis set file name            /hppfs/scratch/04/di38fab/09_GTH/BASIS_A
 GLOBAL| Potential file name            /hppfs/work/pn36zo/di38fab/cp2k/data/GTH
 GLOBAL| MM Potential file name                                     MM_POTENTIAL
 GLOBAL| Coordinate file name                                              W.cif
 GLOBAL| Method name                                                        CP2K
 GLOBAL| Project name                                                       WSe2
 GLOBAL| Run type                                                         ENERGY
 GLOBAL| FFT library                                                       FFTW3
 GLOBAL| Diagonalization library                                       ScaLAPACK
 GLOBAL| Cholesky decomposition library                                ScaLAPACK
 GLOBAL| DGEMM library                                                      BLAS
 GLOBAL| Orthonormality check for eigenvectors                          DISABLED
 GLOBAL| Matrix multiplication library                                 ScaLAPACK
 GLOBAL| All-to-all communication in single precision                          F
 GLOBAL| FFTs using library dependent lengths                                  F
 GLOBAL| Grid backend                                                       AUTO
 GLOBAL| Global print level                                               MEDIUM
 GLOBAL| MPI I/O enabled                                                       T
 GLOBAL| Total number of message passing processes                             8
 GLOBAL| Number of threads for this process                                   12
 GLOBAL| This output is from process                                           0
 GLOBAL| OpenMP stack size per thread (OMP_STACKSIZE)                    default
 GLOBAL| CPU model name             Intel(R) Xeon(R) Platinum 8174 CPU @ 3.10GHz

 MEMORY| system memory details [Kb]
 MEMORY|                        rank 0           min           max       average
 MEMORY| MemTotal             98436660      98436660      98436660      98436660
 MEMORY| MemFree              85419756      85329276      85419756      85374516
 MEMORY| Buffers                     0             0             0             0
 MEMORY| Cached                2362716       2362716       2377044       2369880
 MEMORY| Slab                  1210188       1196796       1210188       1203492
 MEMORY| SReclaimable           271024        267768        271024        269396
 MEMORY| MemLikelyFree        88053496      87974088      88053496      88013792


 *** Fundamental physical constants (SI units) ***

 *** Literature: B. J. Mohr and B. N. Taylor,
 ***             CODATA recommended values of the fundamental physical
 ***             constants: 2006, Web Version 5.1
 ***             http://physics.nist.gov/constants

 Speed of light in vacuum [m/s]                             2.99792458000000E+08
 Magnetic constant or permeability of vacuum [N/A**2]       1.25663706143592E-06
 Electric constant or permittivity of vacuum [F/m]          8.85418781762039E-12
 Planck constant (h) [J*s]                                  6.62606896000000E-34
 Planck constant (h-bar) [J*s]                              1.05457162825177E-34
 Elementary charge [C]                                      1.60217648700000E-19
 Electron mass [kg]                                         9.10938215000000E-31
 Electron g factor [ ]                                     -2.00231930436220E+00
 Proton mass [kg]                                           1.67262163700000E-27
 Fine-structure constant                                    7.29735253760000E-03
 Rydberg constant [1/m]                                     1.09737315685270E+07
 Avogadro constant [1/mol]                                  6.02214179000000E+23
 Boltzmann constant [J/K]                                   1.38065040000000E-23
 Atomic mass unit [kg]                                      1.66053878200000E-27
 Bohr radius [m]                                            5.29177208590000E-11

 *** Conversion factors ***

 [u] -> [a.u.]                                              1.82288848426455E+03
 [Angstrom] -> [Bohr] = [a.u.]                              1.88972613288564E+00
 [a.u.] = [Bohr] -> [Angstrom]                              5.29177208590000E-01
 [a.u.] -> [s]                                              2.41888432650478E-17
 [a.u.] -> [fs]                                             2.41888432650478E-02
 [a.u.] -> [J]                                              4.35974393937059E-18
 [a.u.] -> [N]                                              8.23872205491840E-08
 [a.u.] -> [K]                                              3.15774647902944E+05
 [a.u.] -> [kJ/mol]                                         2.62549961709828E+03
 [a.u.] -> [kcal/mol]                                       6.27509468713739E+02
 [a.u.] -> [Pa]                                             2.94210107994716E+13
 [a.u.] -> [bar]                                            2.94210107994716E+08
 [a.u.] -> [atm]                                            2.90362800883016E+08
 [a.u.] -> [eV]                                             2.72113838565563E+01
 [a.u.] -> [Hz]                                             6.57968392072181E+15
 [a.u.] -> [1/cm] (wave numbers)                            2.19474631370540E+05
 [a.u./Bohr**2] -> [1/cm]                                   5.14048714338585E+03
 

 CELL_TOP| Volume [angstrom^3]:                                        32.451991
 CELL_TOP| Vector a [angstrom     3.190     0.000     0.000   |a| =     3.189680
 CELL_TOP| Vector b [angstrom     0.000     3.190     0.000   |b| =     3.189680
 CELL_TOP| Vector c [angstrom     0.000     0.000     3.190   |c| =     3.189680
 CELL_TOP| Angle (b,c), alpha [degree]:                                90.000000
 CELL_TOP| Angle (a,c), beta  [degree]:                                90.000000
 CELL_TOP| Angle (a,b), gamma [degree]:                                90.000000
 CELL_TOP| Numerically orthorhombic:                                         YES
 CELL_TOP| Periodicity                                                       XYZ

 CELL_CIF| Volume [angstrom^3]:                                        32.451991
 CELL_CIF| Vector a [angstrom     3.190     0.000     0.000   |a| =     3.189680
 CELL_CIF| Vector b [angstrom     0.000     3.190     0.000   |b| =     3.189680
 CELL_CIF| Vector c [angstrom     0.000     0.000     3.190   |c| =     3.189680
 CELL_CIF| Angle (b,c), alpha [degree]:                                90.000000
 CELL_CIF| Angle (a,c), beta  [degree]:                                90.000000
 CELL_CIF| Angle (a,b), gamma [degree]:                                90.000000
 CELL_CIF| Numerically orthorhombic:                                         YES
 CELL_CIF| Periodicity                                                       XYZ

 GENERATE|  Preliminary Number of Bonds generated:                             0
 GENERATE|  Achieved consistency in connectivity generation.

 CELL| Volume [angstrom^3]:                                            32.451991
 CELL| Vector a [angstrom]:       3.190     0.000     0.000   |a| =     3.189680
 CELL| Vector b [angstrom]:       0.000     3.190     0.000   |b| =     3.189680
 CELL| Vector c [angstrom]:       0.000     0.000     3.190   |c| =     3.189680
 CELL| Angle (b,c), alpha [degree]:                                    90.000000
 CELL| Angle (a,c), beta  [degree]:                                    90.000000
 CELL| Angle (a,b), gamma [degree]:                                    90.000000
 CELL| Numerically orthorhombic:                                             YES
 CELL| Periodicity                                                           XYZ

 CELL_REF| Volume [angstrom^3]:                                        32.451991
 CELL_REF| Vector a [angstrom     3.190     0.000     0.000   |a| =     3.189680
 CELL_REF| Vector b [angstrom     0.000     3.190     0.000   |b| =     3.189680
 CELL_REF| Vector c [angstrom     0.000     0.000     3.190   |c| =     3.189680
 CELL_REF| Angle (b,c), alpha [degree]:                                90.000000
 CELL_REF| Angle (a,c), beta  [degree]:                                90.000000
 CELL_REF| Angle (a,b), gamma [degree]:                                90.000000
 CELL_REF| Numerically orthorhombic:                                         YES
 CELL_REF| Periodicity                                                       XYZ

 *** WARNING in cryssym.F:180 :: Symmetry library SPGLIB not available ***


 *******************************************************************************
                                    Kpoints
 *******************************************************************************
 BRILLOUIN| K-point scheme                                        Monkhorst-Pack
 BRILLOUIN| K-Point grid                                             8    8    8
 BRILLOUIN| Accuracy in Symmetry determination                      0.100000E-05
 BRILLOUIN| K-Point point group symmetrization                               OFF
 BRILLOUIN| Wavefunction type                                            COMPLEX
 BRILLOUIN| List of Kpoints [2 Pi/Bohr]                                      256
 BRILLOUIN| Number           Weight            X              Y              Z
 BRILLOUIN|     1           0.00391       -0.43750       -0.43750       -0.43750
 BRILLOUIN|     2           0.00391       -0.43750       -0.43750       -0.31250
 BRILLOUIN|     3           0.00391       -0.43750       -0.43750       -0.18750
 BRILLOUIN|     4           0.00391       -0.43750       -0.43750       -0.06250
 BRILLOUIN|     5           0.00391       -0.43750       -0.43750        0.06250
 BRILLOUIN|     6           0.00391       -0.43750       -0.43750        0.18750
 BRILLOUIN|     7           0.00391       -0.43750       -0.43750        0.31250
 BRILLOUIN|     8           0.00391       -0.43750       -0.43750        0.43750
 BRILLOUIN|     9           0.00391       -0.43750       -0.31250       -0.43750
 BRILLOUIN|    10           0.00391       -0.43750       -0.31250       -0.31250
 BRILLOUIN|    11           0.00391       -0.43750       -0.31250       -0.18750
 BRILLOUIN|    12           0.00391       -0.43750       -0.31250       -0.06250
 BRILLOUIN|    13           0.00391       -0.43750       -0.31250        0.06250
 BRILLOUIN|    14           0.00391       -0.43750       -0.31250        0.18750
 BRILLOUIN|    15           0.00391       -0.43750       -0.31250        0.31250
 BRILLOUIN|    16           0.00391       -0.43750       -0.31250        0.43750
 BRILLOUIN|    17           0.00391       -0.43750       -0.18750       -0.43750
 BRILLOUIN|    18           0.00391       -0.43750       -0.18750       -0.31250
 BRILLOUIN|    19           0.00391       -0.43750       -0.18750       -0.18750
 BRILLOUIN|    20           0.00391       -0.43750       -0.18750       -0.06250
 BRILLOUIN|    21           0.00391       -0.43750       -0.18750        0.06250
 BRILLOUIN|    22           0.00391       -0.43750       -0.18750        0.18750
 BRILLOUIN|    23           0.00391       -0.43750       -0.18750        0.31250
 BRILLOUIN|    24           0.00391       -0.43750       -0.18750        0.43750
 BRILLOUIN|    25           0.00391       -0.43750       -0.06250       -0.43750
 BRILLOUIN|    26           0.00391       -0.43750       -0.06250       -0.31250
 BRILLOUIN|    27           0.00391       -0.43750       -0.06250       -0.18750
 BRILLOUIN|    28           0.00391       -0.43750       -0.06250       -0.06250
 BRILLOUIN|    29           0.00391       -0.43750       -0.06250        0.06250
 BRILLOUIN|    30           0.00391       -0.43750       -0.06250        0.18750
 BRILLOUIN|    31           0.00391       -0.43750       -0.06250        0.31250
 BRILLOUIN|    32           0.00391       -0.43750       -0.06250        0.43750
 BRILLOUIN|    33           0.00391       -0.43750        0.06250       -0.43750
 BRILLOUIN|    34           0.00391       -0.43750        0.06250       -0.31250
 BRILLOUIN|    35           0.00391       -0.43750        0.06250       -0.18750
 BRILLOUIN|    36           0.00391       -0.43750        0.06250       -0.06250
 BRILLOUIN|    37           0.00391       -0.43750        0.06250        0.06250
 BRILLOUIN|    38           0.00391       -0.43750        0.06250        0.18750
 BRILLOUIN|    39           0.00391       -0.43750        0.06250        0.31250
 BRILLOUIN|    40           0.00391       -0.43750        0.06250        0.43750
 BRILLOUIN|    41           0.00391       -0.43750        0.18750       -0.43750
 BRILLOUIN|    42           0.00391       -0.43750        0.18750       -0.31250
 BRILLOUIN|    43           0.00391       -0.43750        0.18750       -0.18750
 BRILLOUIN|    44           0.00391       -0.43750        0.18750       -0.06250
 BRILLOUIN|    45           0.00391       -0.43750        0.18750        0.06250
 BRILLOUIN|    46           0.00391       -0.43750        0.18750        0.18750
 BRILLOUIN|    47           0.00391       -0.43750        0.18750        0.31250
 BRILLOUIN|    48           0.00391       -0.43750        0.18750        0.43750
 BRILLOUIN|    49           0.00391       -0.43750        0.31250       -0.43750
 BRILLOUIN|    50           0.00391       -0.43750        0.31250       -0.31250
 BRILLOUIN|    51           0.00391       -0.43750        0.31250       -0.18750
 BRILLOUIN|    52           0.00391       -0.43750        0.31250       -0.06250
 BRILLOUIN|    53           0.00391       -0.43750        0.31250        0.06250
 BRILLOUIN|    54           0.00391       -0.43750        0.31250        0.18750
 BRILLOUIN|    55           0.00391       -0.43750        0.31250        0.31250
 BRILLOUIN|    56           0.00391       -0.43750        0.31250        0.43750
 BRILLOUIN|    57           0.00391       -0.43750        0.43750       -0.43750
 BRILLOUIN|    58           0.00391       -0.43750        0.43750       -0.31250
 BRILLOUIN|    59           0.00391       -0.43750        0.43750       -0.18750
 BRILLOUIN|    60           0.00391       -0.43750        0.43750       -0.06250
 BRILLOUIN|    61           0.00391       -0.43750        0.43750        0.06250
 BRILLOUIN|    62           0.00391       -0.43750        0.43750        0.18750
 BRILLOUIN|    63           0.00391       -0.43750        0.43750        0.31250
 BRILLOUIN|    64           0.00391       -0.43750        0.43750        0.43750
 BRILLOUIN|    65           0.00391       -0.31250       -0.43750       -0.43750
 BRILLOUIN|    66           0.00391       -0.31250       -0.43750       -0.31250
 BRILLOUIN|    67           0.00391       -0.31250       -0.43750       -0.18750
 BRILLOUIN|    68           0.00391       -0.31250       -0.43750       -0.06250
 BRILLOUIN|    69           0.00391       -0.31250       -0.43750        0.06250
 BRILLOUIN|    70           0.00391       -0.31250       -0.43750        0.18750
 BRILLOUIN|    71           0.00391       -0.31250       -0.43750        0.31250
 BRILLOUIN|    72           0.00391       -0.31250       -0.43750        0.43750
 BRILLOUIN|    73           0.00391       -0.31250       -0.31250       -0.43750
 BRILLOUIN|    74           0.00391       -0.31250       -0.31250       -0.31250
 BRILLOUIN|    75           0.00391       -0.31250       -0.31250       -0.18750
 BRILLOUIN|    76           0.00391       -0.31250       -0.31250       -0.06250
 BRILLOUIN|    77           0.00391       -0.31250       -0.31250        0.06250
 BRILLOUIN|    78           0.00391       -0.31250       -0.31250        0.18750
 BRILLOUIN|    79           0.00391       -0.31250       -0.31250        0.31250
 BRILLOUIN|    80           0.00391       -0.31250       -0.31250        0.43750
 BRILLOUIN|    81           0.00391       -0.31250       -0.18750       -0.43750
 BRILLOUIN|    82           0.00391       -0.31250       -0.18750       -0.31250
 BRILLOUIN|    83           0.00391       -0.31250       -0.18750       -0.18750
 BRILLOUIN|    84           0.00391       -0.31250       -0.18750       -0.06250
 BRILLOUIN|    85           0.00391       -0.31250       -0.18750        0.06250
 BRILLOUIN|    86           0.00391       -0.31250       -0.18750        0.18750
 BRILLOUIN|    87           0.00391       -0.31250       -0.18750        0.31250
 BRILLOUIN|    88           0.00391       -0.31250       -0.18750        0.43750
 BRILLOUIN|    89           0.00391       -0.31250       -0.06250       -0.43750
 BRILLOUIN|    90           0.00391       -0.31250       -0.06250       -0.31250
 BRILLOUIN|    91           0.00391       -0.31250       -0.06250       -0.18750
 BRILLOUIN|    92           0.00391       -0.31250       -0.06250       -0.06250
 BRILLOUIN|    93           0.00391       -0.31250       -0.06250        0.06250
 BRILLOUIN|    94           0.00391       -0.31250       -0.06250        0.18750
 BRILLOUIN|    95           0.00391       -0.31250       -0.06250        0.31250
 BRILLOUIN|    96           0.00391       -0.31250       -0.06250        0.43750
 BRILLOUIN|    97           0.00391       -0.31250        0.06250       -0.43750
 BRILLOUIN|    98           0.00391       -0.31250        0.06250       -0.31250
 BRILLOUIN|    99           0.00391       -0.31250        0.06250       -0.18750
 BRILLOUIN|   100           0.00391       -0.31250        0.06250       -0.06250
 BRILLOUIN|   101           0.00391       -0.31250        0.06250        0.06250
 BRILLOUIN|   102           0.00391       -0.31250        0.06250        0.18750
 BRILLOUIN|   103           0.00391       -0.31250        0.06250        0.31250
 BRILLOUIN|   104           0.00391       -0.31250        0.06250        0.43750
 BRILLOUIN|   105           0.00391       -0.31250        0.18750       -0.43750
 BRILLOUIN|   106           0.00391       -0.31250        0.18750       -0.31250
 BRILLOUIN|   107           0.00391       -0.31250        0.18750       -0.18750
 BRILLOUIN|   108           0.00391       -0.31250        0.18750       -0.06250
 BRILLOUIN|   109           0.00391       -0.31250        0.18750        0.06250
 BRILLOUIN|   110           0.00391       -0.31250        0.18750        0.18750
 BRILLOUIN|   111           0.00391       -0.31250        0.18750        0.31250
 BRILLOUIN|   112           0.00391       -0.31250        0.18750        0.43750
 BRILLOUIN|   113           0.00391       -0.31250        0.31250       -0.43750
 BRILLOUIN|   114           0.00391       -0.31250        0.31250       -0.31250
 BRILLOUIN|   115           0.00391       -0.31250        0.31250       -0.18750
 BRILLOUIN|   116           0.00391       -0.31250        0.31250       -0.06250
 BRILLOUIN|   117           0.00391       -0.31250        0.31250        0.06250
 BRILLOUIN|   118           0.00391       -0.31250        0.31250        0.18750
 BRILLOUIN|   119           0.00391       -0.31250        0.31250        0.31250
 BRILLOUIN|   120           0.00391       -0.31250        0.31250        0.43750
 BRILLOUIN|   121           0.00391       -0.31250        0.43750       -0.43750
 BRILLOUIN|   122           0.00391       -0.31250        0.43750       -0.31250
 BRILLOUIN|   123           0.00391       -0.31250        0.43750       -0.18750
 BRILLOUIN|   124           0.00391       -0.31250        0.43750       -0.06250
 BRILLOUIN|   125           0.00391       -0.31250        0.43750        0.06250
 BRILLOUIN|   126           0.00391       -0.31250        0.43750        0.18750
 BRILLOUIN|   127           0.00391       -0.31250        0.43750        0.31250
 BRILLOUIN|   128           0.00391       -0.31250        0.43750        0.43750
 BRILLOUIN|   129           0.00391       -0.18750       -0.43750       -0.43750
 BRILLOUIN|   130           0.00391       -0.18750       -0.43750       -0.31250
 BRILLOUIN|   131           0.00391       -0.18750       -0.43750       -0.18750
 BRILLOUIN|   132           0.00391       -0.18750       -0.43750       -0.06250
 BRILLOUIN|   133           0.00391       -0.18750       -0.43750        0.06250
 BRILLOUIN|   134           0.00391       -0.18750       -0.43750        0.18750
 BRILLOUIN|   135           0.00391       -0.18750       -0.43750        0.31250
 BRILLOUIN|   136           0.00391       -0.18750       -0.43750        0.43750
 BRILLOUIN|   137           0.00391       -0.18750       -0.31250       -0.43750
 BRILLOUIN|   138           0.00391       -0.18750       -0.31250       -0.31250
 BRILLOUIN|   139           0.00391       -0.18750       -0.31250       -0.18750
 BRILLOUIN|   140           0.00391       -0.18750       -0.31250       -0.06250
 BRILLOUIN|   141           0.00391       -0.18750       -0.31250        0.06250
 BRILLOUIN|   142           0.00391       -0.18750       -0.31250        0.18750
 BRILLOUIN|   143           0.00391       -0.18750       -0.31250        0.31250
 BRILLOUIN|   144           0.00391       -0.18750       -0.31250        0.43750
 BRILLOUIN|   145           0.00391       -0.18750       -0.18750       -0.43750
 BRILLOUIN|   146           0.00391       -0.18750       -0.18750       -0.31250
 BRILLOUIN|   147           0.00391       -0.18750       -0.18750       -0.18750
 BRILLOUIN|   148           0.00391       -0.18750       -0.18750       -0.06250
 BRILLOUIN|   149           0.00391       -0.18750       -0.18750        0.06250
 BRILLOUIN|   150           0.00391       -0.18750       -0.18750        0.18750
 BRILLOUIN|   151           0.00391       -0.18750       -0.18750        0.31250
 BRILLOUIN|   152           0.00391       -0.18750       -0.18750        0.43750
 BRILLOUIN|   153           0.00391       -0.18750       -0.06250       -0.43750
 BRILLOUIN|   154           0.00391       -0.18750       -0.06250       -0.31250
 BRILLOUIN|   155           0.00391       -0.18750       -0.06250       -0.18750
 BRILLOUIN|   156           0.00391       -0.18750       -0.06250       -0.06250
 BRILLOUIN|   157           0.00391       -0.18750       -0.06250        0.06250
 BRILLOUIN|   158           0.00391       -0.18750       -0.06250        0.18750
 BRILLOUIN|   159           0.00391       -0.18750       -0.06250        0.31250
 BRILLOUIN|   160           0.00391       -0.18750       -0.06250        0.43750
 BRILLOUIN|   161           0.00391       -0.18750        0.06250       -0.43750
 BRILLOUIN|   162           0.00391       -0.18750        0.06250       -0.31250
 BRILLOUIN|   163           0.00391       -0.18750        0.06250       -0.18750
 BRILLOUIN|   164           0.00391       -0.18750        0.06250       -0.06250
 BRILLOUIN|   165           0.00391       -0.18750        0.06250        0.06250
 BRILLOUIN|   166           0.00391       -0.18750        0.06250        0.18750
 BRILLOUIN|   167           0.00391       -0.18750        0.06250        0.31250
 BRILLOUIN|   168           0.00391       -0.18750        0.06250        0.43750
 BRILLOUIN|   169           0.00391       -0.18750        0.18750       -0.43750
 BRILLOUIN|   170           0.00391       -0.18750        0.18750       -0.31250
 BRILLOUIN|   171           0.00391       -0.18750        0.18750       -0.18750
 BRILLOUIN|   172           0.00391       -0.18750        0.18750       -0.06250
 BRILLOUIN|   173           0.00391       -0.18750        0.18750        0.06250
 BRILLOUIN|   174           0.00391       -0.18750        0.18750        0.18750
 BRILLOUIN|   175           0.00391       -0.18750        0.18750        0.31250
 BRILLOUIN|   176           0.00391       -0.18750        0.18750        0.43750
 BRILLOUIN|   177           0.00391       -0.18750        0.31250       -0.43750
 BRILLOUIN|   178           0.00391       -0.18750        0.31250       -0.31250
 BRILLOUIN|   179           0.00391       -0.18750        0.31250       -0.18750
 BRILLOUIN|   180           0.00391       -0.18750        0.31250       -0.06250
 BRILLOUIN|   181           0.00391       -0.18750        0.31250        0.06250
 BRILLOUIN|   182           0.00391       -0.18750        0.31250        0.18750
 BRILLOUIN|   183           0.00391       -0.18750        0.31250        0.31250
 BRILLOUIN|   184           0.00391       -0.18750        0.31250        0.43750
 BRILLOUIN|   185           0.00391       -0.18750        0.43750       -0.43750
 BRILLOUIN|   186           0.00391       -0.18750        0.43750       -0.31250
 BRILLOUIN|   187           0.00391       -0.18750        0.43750       -0.18750
 BRILLOUIN|   188           0.00391       -0.18750        0.43750       -0.06250
 BRILLOUIN|   189           0.00391       -0.18750        0.43750        0.06250
 BRILLOUIN|   190           0.00391       -0.18750        0.43750        0.18750
 BRILLOUIN|   191           0.00391       -0.18750        0.43750        0.31250
 BRILLOUIN|   192           0.00391       -0.18750        0.43750        0.43750
 BRILLOUIN|   193           0.00391       -0.06250       -0.43750       -0.43750
 BRILLOUIN|   194           0.00391       -0.06250       -0.43750       -0.31250
 BRILLOUIN|   195           0.00391       -0.06250       -0.43750       -0.18750
 BRILLOUIN|   196           0.00391       -0.06250       -0.43750       -0.06250
 BRILLOUIN|   197           0.00391       -0.06250       -0.43750        0.06250
 BRILLOUIN|   198           0.00391       -0.06250       -0.43750        0.18750
 BRILLOUIN|   199           0.00391       -0.06250       -0.43750        0.31250
 BRILLOUIN|   200           0.00391       -0.06250       -0.43750        0.43750
 BRILLOUIN|   201           0.00391       -0.06250       -0.31250       -0.43750
 BRILLOUIN|   202           0.00391       -0.06250       -0.31250       -0.31250
 BRILLOUIN|   203           0.00391       -0.06250       -0.31250       -0.18750
 BRILLOUIN|   204           0.00391       -0.06250       -0.31250       -0.06250
 BRILLOUIN|   205           0.00391       -0.06250       -0.31250        0.06250
 BRILLOUIN|   206           0.00391       -0.06250       -0.31250        0.18750
 BRILLOUIN|   207           0.00391       -0.06250       -0.31250        0.31250
 BRILLOUIN|   208           0.00391       -0.06250       -0.31250        0.43750
 BRILLOUIN|   209           0.00391       -0.06250       -0.18750       -0.43750
 BRILLOUIN|   210           0.00391       -0.06250       -0.18750       -0.31250
 BRILLOUIN|   211           0.00391       -0.06250       -0.18750       -0.18750
 BRILLOUIN|   212           0.00391       -0.06250       -0.18750       -0.06250
 BRILLOUIN|   213           0.00391       -0.06250       -0.18750        0.06250
 BRILLOUIN|   214           0.00391       -0.06250       -0.18750        0.18750
 BRILLOUIN|   215           0.00391       -0.06250       -0.18750        0.31250
 BRILLOUIN|   216           0.00391       -0.06250       -0.18750        0.43750
 BRILLOUIN|   217           0.00391       -0.06250       -0.06250       -0.43750
 BRILLOUIN|   218           0.00391       -0.06250       -0.06250       -0.31250
 BRILLOUIN|   219           0.00391       -0.06250       -0.06250       -0.18750
 BRILLOUIN|   220           0.00391       -0.06250       -0.06250       -0.06250
 BRILLOUIN|   221           0.00391       -0.06250       -0.06250        0.06250
 BRILLOUIN|   222           0.00391       -0.06250       -0.06250        0.18750
 BRILLOUIN|   223           0.00391       -0.06250       -0.06250        0.31250
 BRILLOUIN|   224           0.00391       -0.06250       -0.06250        0.43750
 BRILLOUIN|   225           0.00391       -0.06250        0.06250       -0.43750
 BRILLOUIN|   226           0.00391       -0.06250        0.06250       -0.31250
 BRILLOUIN|   227           0.00391       -0.06250        0.06250       -0.18750
 BRILLOUIN|   228           0.00391       -0.06250        0.06250       -0.06250
 BRILLOUIN|   229           0.00391       -0.06250        0.06250        0.06250
 BRILLOUIN|   230           0.00391       -0.06250        0.06250        0.18750
 BRILLOUIN|   231           0.00391       -0.06250        0.06250        0.31250
 BRILLOUIN|   232           0.00391       -0.06250        0.06250        0.43750
 BRILLOUIN|   233           0.00391       -0.06250        0.18750       -0.43750
 BRILLOUIN|   234           0.00391       -0.06250        0.18750       -0.31250
 BRILLOUIN|   235           0.00391       -0.06250        0.18750       -0.18750
 BRILLOUIN|   236           0.00391       -0.06250        0.18750       -0.06250
 BRILLOUIN|   237           0.00391       -0.06250        0.18750        0.06250
 BRILLOUIN|   238           0.00391       -0.06250        0.18750        0.18750
 BRILLOUIN|   239           0.00391       -0.06250        0.18750        0.31250
 BRILLOUIN|   240           0.00391       -0.06250        0.18750        0.43750
 BRILLOUIN|   241           0.00391       -0.06250        0.31250       -0.43750
 BRILLOUIN|   242           0.00391       -0.06250        0.31250       -0.31250
 BRILLOUIN|   243           0.00391       -0.06250        0.31250       -0.18750
 BRILLOUIN|   244           0.00391       -0.06250        0.31250       -0.06250
 BRILLOUIN|   245           0.00391       -0.06250        0.31250        0.06250
 BRILLOUIN|   246           0.00391       -0.06250        0.31250        0.18750
 BRILLOUIN|   247           0.00391       -0.06250        0.31250        0.31250
 BRILLOUIN|   248           0.00391       -0.06250        0.31250        0.43750
 BRILLOUIN|   249           0.00391       -0.06250        0.43750       -0.43750
 BRILLOUIN|   250           0.00391       -0.06250        0.43750       -0.31250
 BRILLOUIN|   251           0.00391       -0.06250        0.43750       -0.18750
 BRILLOUIN|   252           0.00391       -0.06250        0.43750       -0.06250
 BRILLOUIN|   253           0.00391       -0.06250        0.43750        0.06250
 BRILLOUIN|   254           0.00391       -0.06250        0.43750        0.18750
 BRILLOUIN|   255           0.00391       -0.06250        0.43750        0.31250
 BRILLOUIN|   256           0.00391       -0.06250        0.43750        0.43750
 *******************************************************************************

 *******************************************************************************
 *******************************************************************************
 **                                                                           **
 **     #####                         ##              ##                      **
 **    ##   ##            ##          ##              ##                      **
 **   ##     ##                       ##            ######                    **
 **   ##     ##  ##   ##  ##   #####  ##  ##   ####   ##    #####    #####    **
 **   ##     ##  ##   ##  ##  ##      ## ##   ##      ##   ##   ##  ##   ##   **
 **   ##  ## ##  ##   ##  ##  ##      ####     ###    ##   ######   ######    **
 **    ##  ###   ##   ##  ##  ##      ## ##      ##   ##   ##       ##        **
 **     #######   #####   ##   #####  ##  ##  ####    ##    #####   ##        **
 **           ##                                                    ##        **
 **                                                                           **
 **                                                ... make the atoms dance   **
 **                                                                           **
 **            Copyright (C) by CP2K developers group (2000-2025)             **
 **                      J. Chem. Phys. 152, 194103 (2020)                    **
 **                                                                           **
 *******************************************************************************

 DFT| Spin restricted Kohn-Sham (RKS) calculation                            RKS
 DFT| Multiplicity                                                             1
 DFT| Number of spin states                                                    1
 DFT| Charge                                                                   0
 DFT| Self-interaction correction (SIC)                                       NO
 DFT| Cutoffs: density                                              1.000000E-10
 DFT|          gradient                                             1.000000E-10
 DFT|          tau                                                  1.000000E-10
 DFT|          cutoff_smoothing_range                               0.000000E+00
 DFT| XC density smoothing                                                  NONE
 DFT| XC derivatives                                                          PW

 FUNCTIONAL| PBE:
 FUNCTIONAL| J.P.Perdew, K.Burke, M.Ernzerhof, Phys. Rev. Letter, vol. 77, n 18,
 FUNCTIONAL|  pp. 3865-3868, (1996) {spin unpolarized}                          


 QS| Method:                                                                 GPW
 QS| Density plane wave grid type                        NON-SPHERICAL FULLSPACE
 QS| Number of grid levels:                                                    4
 QS| Density cutoff [a.u.]:                                                500.0
 QS| Multi grid cutoff [a.u.]: 1) grid level                               500.0
 QS|                           2) grid level                               166.7
 QS|                           3) grid level                                55.6
 QS|                           4) grid level                                18.5
 QS| Grid level progression factor:                                          3.0
 QS| Relative density cutoff [a.u.]:                                        50.0
 QS| Interaction thresholds: eps_pgf_orb:                                1.0E-16
 QS|                         eps_filter_matrix:                          0.0E+00
 QS|                         eps_core_charge:                            1.0E-18
 QS|                         eps_rho_gspace:                             1.0E-16
 QS|                         eps_rho_rspace:                             1.0E-16
 QS|                         eps_gvg_rspace:                             1.0E-08
 QS|                         eps_ppl:                                    1.0E-02
 QS|                         eps_ppnl:                                   1.0E-10


 ATOMIC KIND INFORMATION

  1. Atomic kind: W                                     Number of atoms:       2

     Orbital Basis Set                                aug-DZVP-MOLOPT-GTH-tier-1

       Number of orbital shell sets:                                           1
       Number of orbital shells:                                              12
       Number of primitive Cartesian functions:                                7
       Number of Cartesian basis functions:                                   51
       Number of spherical basis functions:                                   42
       Norm type:                                                              2

       Normalised Cartesian orbitals:

                        Set   Shell   Orbital            Exponent    Coefficient

                          1       1    2s                0.074663      -0.014288
                                                         0.126535       0.000000
                                                         0.214447      -0.013622
                                                         0.501100      -0.158409
                                                         1.106151      -0.674409
                                                         2.893835       0.343543
                                                         3.103254       0.529378

                          1       2    3s                0.074663       0.097561
                                                         0.126535       0.000000
                                                         0.214447       0.068378
                                                         0.501100      -0.211692
                                                         1.106151      -0.477566
                                                         2.893835       0.569553
                                                         3.103254      -0.097470

                          1       3    4s                0.074663       0.198728
                                                         0.126535       0.000000
                                                         0.214447      -0.790964
                                                         0.501100       0.806404
                                                         1.106151      -0.388398
                                                         2.893835       0.396404
                                                         3.103254       0.106543

                          1       4    5s                0.074663      -0.129103
                                                         0.126535       0.009648
                                                         0.214447       0.028862
                                                         0.501100       0.118813
                                                         1.106151       0.000000
                                                         2.893835       0.000000
                                                         3.103254       0.000000

                          1       5    3px               0.074663       0.000342
                                                         0.126535       0.000000
                                                         0.214447      -0.010443
                                                         0.501100      -0.267353
                                                         1.106151      -0.965855
                                                         2.893835      -5.556400
                                                         3.103254       6.695542
                          1       5    3py               0.074663       0.000342
                                                         0.126535       0.000000
                                                         0.214447      -0.010443
                                                         0.501100      -0.267353
                                                         1.106151      -0.965855
                                                         2.893835      -5.556400
                                                         3.103254       6.695542
                          1       5    3pz               0.074663       0.000342
                                                         0.126535       0.000000
                                                         0.214447      -0.010443
                                                         0.501100      -0.267353
                                                         1.106151      -0.965855
                                                         2.893835      -5.556400
                                                         3.103254       6.695542

                          1       6    4px               0.074663       0.033709
                                                         0.126535       0.000000
                                                         0.214447       0.085481
                                                         0.501100       0.068821
                                                         1.106151      -0.094064
                                                         2.893835       2.578542
                                                         3.103254      -2.848053
                          1       6    4py               0.074663       0.033709
                                                         0.126535       0.000000
                                                         0.214447       0.085481
                                                         0.501100       0.068821
                                                         1.106151      -0.094064
                                                         2.893835       2.578542
                                                         3.103254      -2.848053
                          1       6    4pz               0.074663       0.033709
                                                         0.126535       0.000000
                                                         0.214447       0.085481
                                                         0.501100       0.068821
                                                         1.106151      -0.094064
                                                         2.893835       2.578542
                                                         3.103254      -2.848053

                          1       7    5px               0.074663       0.016202
                                                         0.126535      -0.146397
                                                         0.214447      -0.048131
                                                         0.501100       0.532345
                                                         1.106151       0.000000
                                                         2.893835       0.000000
                                                         3.103254       0.000000
                          1       7    5py               0.074663       0.016202
                                                         0.126535      -0.146397
                                                         0.214447      -0.048131
                                                         0.501100       0.532345
                                                         1.106151       0.000000
                                                         2.893835       0.000000
                                                         3.103254       0.000000
                          1       7    5pz               0.074663       0.016202
                                                         0.126535      -0.146397
                                                         0.214447      -0.048131
                                                         0.501100       0.532345
                                                         1.106151       0.000000
                                                         2.893835       0.000000
                                                         3.103254       0.000000

                          1       8    4dx2              0.074663       0.002139
                                                         0.126535       0.000000
                                                         0.214447       0.042391
                                                         0.501100       0.198591
                                                         1.106151       0.570194
                                                         2.893835       1.052045
                                                         3.103254      -0.912711
                          1       8    4dxy              0.074663       0.003705
                                                         0.126535       0.000000
                                                         0.214447       0.073424
                                                         0.501100       0.343970
                                                         1.106151       0.987605
                                                         2.893835       1.822195
                                                         3.103254      -1.580861
                          1       8    4dxz              0.074663       0.003705
                                                         0.126535       0.000000
                                                         0.214447       0.073424
                                                         0.501100       0.343970
                                                         1.106151       0.987605
                                                         2.893835       1.822195
                                                         3.103254      -1.580861
                          1       8    4dy2              0.074663       0.002139
                                                         0.126535       0.000000
                                                         0.214447       0.042391
                                                         0.501100       0.198591
                                                         1.106151       0.570194
                                                         2.893835       1.052045
                                                         3.103254      -0.912711
                          1       8    4dyz              0.074663       0.003705
                                                         0.126535       0.000000
                                                         0.214447       0.073424
                                                         0.501100       0.343970
                                                         1.106151       0.987605
                                                         2.893835       1.822195
                                                         3.103254      -1.580861
                          1       8    4dz2              0.074663       0.002139
                                                         0.126535       0.000000
                                                         0.214447       0.042391
                                                         0.501100       0.198591
                                                         1.106151       0.570194
                                                         2.893835       1.052045
                                                         3.103254      -0.912711

                          1       9    5dx2              0.074663       0.018013
                                                         0.126535       0.000000
                                                         0.214447      -0.006202
                                                         0.501100      -0.031652
                                                         1.106151      -0.399332
                                                         2.893835      -1.222491
                                                         3.103254       1.315671
                          1       9    5dxy              0.074663       0.031199
                                                         0.126535       0.000000
                                                         0.214447      -0.010742
                                                         0.501100      -0.054822
                                                         1.106151      -0.691664
                                                         2.893835      -2.117416
                                                         3.103254       2.278808
                          1       9    5dxz              0.074663       0.031199
                                                         0.126535       0.000000
                                                         0.214447      -0.010742
                                                         0.501100      -0.054822
                                                         1.106151      -0.691664
                                                         2.893835      -2.117416
                                                         3.103254       2.278808
                          1       9    5dy2              0.074663       0.018013
                                                         0.126535       0.000000
                                                         0.214447      -0.006202
                                                         0.501100      -0.031652
                                                         1.106151      -0.399332
                                                         2.893835      -1.222491
                                                         3.103254       1.315671
                          1       9    5dyz              0.074663       0.031199
                                                         0.126535       0.000000
                                                         0.214447      -0.010742
                                                         0.501100      -0.054822
                                                         1.106151      -0.691664
                                                         2.893835      -2.117416
                                                         3.103254       2.278808
                          1       9    5dz2              0.074663       0.018013
                                                         0.126535       0.000000
                                                         0.214447      -0.006202
                                                         0.501100      -0.031652
                                                         1.106151      -0.399332
                                                         2.893835      -1.222491
                                                         3.103254       1.315671

                          1      10    6dx2              0.074663      -0.019107
                                                         0.126535       0.004037
                                                         0.214447       0.066532
                                                         0.501100       0.202814
                                                         1.106151       0.000000
                                                         2.893835       0.000000
                                                         3.103254       0.000000
                          1      10    6dxy              0.074663      -0.033094
                                                         0.126535       0.006992
                                                         0.214447       0.115236
                                                         0.501100       0.351284
                                                         1.106151       0.000000
                                                         2.893835       0.000000
                                                         3.103254       0.000000
                          1      10    6dxz              0.074663      -0.033094
                                                         0.126535       0.006992
                                                         0.214447       0.115236
                                                         0.501100       0.351284
                                                         1.106151       0.000000
                                                         2.893835       0.000000
                                                         3.103254       0.000000
                          1      10    6dy2              0.074663      -0.019107
                                                         0.126535       0.004037
                                                         0.214447       0.066532
                                                         0.501100       0.202814
                                                         1.106151       0.000000
                                                         2.893835       0.000000
                                                         3.103254       0.000000
                          1      10    6dyz              0.074663      -0.033094
                                                         0.126535       0.006992
                                                         0.214447       0.115236
                                                         0.501100       0.351284
                                                         1.106151       0.000000
                                                         2.893835       0.000000
                                                         3.103254       0.000000
                          1      10    6dz2              0.074663      -0.019107
                                                         0.126535       0.004037
                                                         0.214447       0.066532
                                                         0.501100       0.202814
                                                         1.106151       0.000000
                                                         2.893835       0.000000
                                                         3.103254       0.000000

                          1      11    5fx3              0.074663       0.000973
                                                         0.126535       0.000000
                                                         0.214447      -0.023335
                                                         0.501100      -0.165398
                                                         1.106151      -0.349941
                                                         2.893835      -0.178190
                                                         3.103254       0.754848
                          1      11    5fx2y             0.074663       0.002176
                                                         0.126535       0.000000
                                                         0.214447      -0.052178
                                                         0.501100      -0.369842
                                                         1.106151      -0.782493
                                                         2.893835      -0.398445
                                                         3.103254       1.687891
                          1      11    5fx2z             0.074663       0.002176
                                                         0.126535       0.000000
                                                         0.214447      -0.052178
                                                         0.501100      -0.369842
                                                         1.106151      -0.782493
                                                         2.893835      -0.398445
                                                         3.103254       1.687891
                          1      11    5fxy2             0.074663       0.002176
                                                         0.126535       0.000000
                                                         0.214447      -0.052178
                                                         0.501100      -0.369842
                                                         1.106151      -0.782493
                                                         2.893835      -0.398445
                                                         3.103254       1.687891
                          1      11    5fxyz             0.074663       0.003768
                                                         0.126535       0.000000
                                                         0.214447      -0.090375
                                                         0.501100      -0.640585
                                                         1.106151      -1.355317
                                                         2.893835      -0.690127
                                                         3.103254       2.923513
                          1      11    5fxz2             0.074663       0.002176
                                                         0.126535       0.000000
                                                         0.214447      -0.052178
                                                         0.501100      -0.369842
                                                         1.106151      -0.782493
                                                         2.893835      -0.398445
                                                         3.103254       1.687891
                          1      11    5fy3              0.074663       0.000973
                                                         0.126535       0.000000
                                                         0.214447      -0.023335
                                                         0.501100      -0.165398
                                                         1.106151      -0.349941
                                                         2.893835      -0.178190
                                                         3.103254       0.754848
                          1      11    5fy2z             0.074663       0.002176
                                                         0.126535       0.000000
                                                         0.214447      -0.052178
                                                         0.501100      -0.369842
                                                         1.106151      -0.782493
                                                         2.893835      -0.398445
                                                         3.103254       1.687891
                          1      11    5fyz2             0.074663       0.002176
                                                         0.126535       0.000000
                                                         0.214447      -0.052178
                                                         0.501100      -0.369842
                                                         1.106151      -0.782493
                                                         2.893835      -0.398445
                                                         3.103254       1.687891
                          1      11    5fz3              0.074663       0.000973
                                                         0.126535       0.000000
                                                         0.214447      -0.023335
                                                         0.501100      -0.165398
                                                         1.106151      -0.349941
                                                         2.893835      -0.178190
                                                         3.103254       0.754848

                          1      12    6fx3              0.074663      -0.001598
                                                         0.126535       0.003055
                                                         0.214447       0.021084
                                                         0.501100       0.187868
                                                         1.106151       0.000000
                                                         2.893835       0.000000
                                                         3.103254       0.000000
                          1      12    6fx2y             0.074663      -0.003573
                                                         0.126535       0.006831
                                                         0.214447       0.047144
                                                         0.501100       0.420087
                                                         1.106151       0.000000
                                                         2.893835       0.000000
                                                         3.103254       0.000000
                          1      12    6fx2z             0.074663      -0.003573
                                                         0.126535       0.006831
                                                         0.214447       0.047144
                                                         0.501100       0.420087
                                                         1.106151       0.000000
                                                         2.893835       0.000000
                                                         3.103254       0.000000
                          1      12    6fxy2             0.074663      -0.003573
                                                         0.126535       0.006831
                                                         0.214447       0.047144
                                                         0.501100       0.420087
                                                         1.106151       0.000000
                                                         2.893835       0.000000
                                                         3.103254       0.000000
                          1      12    6fxyz             0.074663      -0.006188
                                                         0.126535       0.011832
                                                         0.214447       0.081656
                                                         0.501100       0.727611
                                                         1.106151       0.000000
                                                         2.893835       0.000000
                                                         3.103254       0.000000
                          1      12    6fxz2             0.074663      -0.003573
                                                         0.126535       0.006831
                                                         0.214447       0.047144
                                                         0.501100       0.420087
                                                         1.106151       0.000000
                                                         2.893835       0.000000
                                                         3.103254       0.000000
                          1      12    6fy3              0.074663      -0.001598
                                                         0.126535       0.003055
                                                         0.214447       0.021084
                                                         0.501100       0.187868
                                                         1.106151       0.000000
                                                         2.893835       0.000000
                                                         3.103254       0.000000
                          1      12    6fy2z             0.074663      -0.003573
                                                         0.126535       0.006831
                                                         0.214447       0.047144
                                                         0.501100       0.420087
                                                         1.106151       0.000000
                                                         2.893835       0.000000
                                                         3.103254       0.000000
                          1      12    6fyz2             0.074663      -0.003573
                                                         0.126535       0.006831
                                                         0.214447       0.047144
                                                         0.501100       0.420087
                                                         1.106151       0.000000
                                                         2.893835       0.000000
                                                         3.103254       0.000000
                          1      12    6fz3              0.074663      -0.001598
                                                         0.126535       0.003055
                                                         0.214447       0.021084
                                                         0.501100       0.187868
                                                         1.106151       0.000000
                                                         2.893835       0.000000
                                                         3.103254       0.000000

       Atomic covalent radius [Angstrom]:                                  1.300

       Atomic van der Waals radius [Angstrom]:                             1.670

     GTH Potential information for                                       GTH-PBE

       Description:                       Goedecker-Teter-Hutter pseudopotential
                                           Goedecker et al., PRB 54, 1703 (1996)
                                          Hartwigsen et al., PRB 58, 3641 (1998)
                                                      Krack, TCA 114, 145 (2005)

       Gaussian exponent of the core charge distribution:               1.714678
       Electronic configuration (s p d ...):                           4   6   4

       Parameters of the local part of the GTH pseudopotential:

                          rloc        C1          C2          C3          C4
                        0.540000   13.414811   -2.213456

       Parameters of the non-local part of the GTH (SOC) pseudopotential:

                   l      r(l)      h(i,j,l)
                                    k(i,j,l)
                   0    0.397028   -4.141211    3.835423    2.233179
                                    3.835423   -1.319244   -5.766044
                                    2.233179   -5.766044    4.576656
                   1    0.353531   -7.456236    8.112326    0.000000
                                    8.112326   -9.598634    0.000000
                                    0.000000    0.000000    0.000000
                                    1.424856   -0.047910   -0.233482
                                   -0.047910   -0.332024    0.552519
                                   -0.233482    0.552519   -0.392678
                   2    0.412107   -0.954661   -1.067446
                                   -1.067446    1.210370
                                    0.070160    0.013189
                                    0.013189   -0.014954


 MOLECULE KIND INFORMATION


 All atoms are their own molecule, skipping detailed information


 TOTAL NUMBERS AND MAXIMUM NUMBERS

  Total number of            - Atomic kinds:                                   1
                             - Atoms:                                          2
                             - Shell sets:                                     2
                             - Shells:                                        24
                             - Primitive Cartesian functions:                 14
                             - Cartesian basis functions:                    102
                             - Spherical basis functions:                     84

  Maximum angular momentum of- Orbital basis functions:                        3
                             - Local part of the GTH pseudopotential:          2
                             - Non-local part of the GTH pseudopotential:      5


 MODULE QUICKSTEP: ATOMIC COORDINATES IN ANGSTROM

   Atom Kind Element         X             Y             Z       Z(eff)     Mass
      1    1 W    74      0.000000      0.000000      0.000000  14.0000 183.8400
      2    1 W    74      1.594840      1.594840      1.594840  14.0000 183.8400



 SCF PARAMETERS         Density guess:                                    ATOMIC
                        --------------------------------------------------------
                        max_scf:                                             500
                        max_scf_history:                                       0
                        max_diis:                                              4
                        --------------------------------------------------------
                        eps_scf:                                        1.00E-09
                        eps_scf_history:                                0.00E+00
                        eps_diis:                                       1.00E-01
                        eps_eigval:                                     1.00E-05
                        --------------------------------------------------------
                        level_shift [a.u.]:                             0.000000
                        added MOs                                        70    0
                        --------------------------------------------------------
                        Mixing method:                            BROYDEN_MIXING
                                                charge density mixing in g-space
                        --------------------------------------------------------
                        Smear method:                                FERMI_DIRAC
                        Electronic temperature [K]:                        300.0
                        Electronic temperature [a.u.]:                  9.50E-04
                        Accuracy threshold:                             1.00E-10
                        --------------------------------------------------------
                        No outer SCF

 PW_GRID| Information for grid number                                          1
 PW_GRID| Grid distributed over                                     8 processors
 PW_GRID| Real space group dimensions                                     8    1
 PW_GRID| the grid is blocked:                                                NO
 PW_GRID| Cutoff [a.u.]                                                    500.0
 PW_GRID| spherical cutoff:                                                   NO
 PW_GRID|   Bounds   1            -32      31                Points:          64
 PW_GRID|   Bounds   2            -32      31                Points:          64
 PW_GRID|   Bounds   3            -32      31                Points:          64
 PW_GRID| Volume element (a.u.^3)  0.8354E-03     Volume (a.u.^3)       218.9969
 PW_GRID| Grid span                                                    FULLSPACE
 PW_GRID|   Distribution                         Average         Max         Min
 PW_GRID|   G-Vectors                            32768.0       32768       32768
 PW_GRID|   G-Rays                                 512.0         512         512
 PW_GRID|   Real Space Points                    32768.0       32768       32768

 PW_GRID| Information for grid number                                          2
 PW_GRID| Number of the reference grid                                         1
 PW_GRID| Grid distributed over                                     8 processors
 PW_GRID| Real space group dimensions                                     8    1
 PW_GRID| the grid is blocked:                                                NO
 PW_GRID| Cutoff [a.u.]                                                    166.7
 PW_GRID| spherical cutoff:                                                   NO
 PW_GRID|   Bounds   1            -18      17                Points:          36
 PW_GRID|   Bounds   2            -18      17                Points:          36
 PW_GRID|   Bounds   3            -18      17                Points:          36
 PW_GRID| Volume element (a.u.^3)  0.4694E-02     Volume (a.u.^3)       218.9969
 PW_GRID| Grid span                                                    FULLSPACE
 PW_GRID|   Distribution                         Average         Max         Min
 PW_GRID|   G-Vectors                             5832.0        5904        5796
 PW_GRID|   G-Rays                                 162.0         164         161
 PW_GRID|   Real Space Points                     5832.0        6480        5184

 PW_GRID| Information for grid number                                          3
 PW_GRID| Number of the reference grid                                         1
 PW_GRID| Grid distributed over                                     8 processors
 PW_GRID| Real space group dimensions                                     8    1
 PW_GRID| the grid is blocked:                                                NO
 PW_GRID| Cutoff [a.u.]                                                     55.6
 PW_GRID| spherical cutoff:                                                   NO
 PW_GRID|   Bounds   1            -12      11                Points:          24
 PW_GRID|   Bounds   2            -12      11                Points:          24
 PW_GRID|   Bounds   3            -12      11                Points:          24
 PW_GRID| Volume element (a.u.^3)  0.1584E-01     Volume (a.u.^3)       218.9969
 PW_GRID| Grid span                                                    FULLSPACE
 PW_GRID|   Distribution                         Average         Max         Min
 PW_GRID|   G-Vectors                             1728.0        1800        1680
 PW_GRID|   G-Rays                                  72.0          75          70
 PW_GRID|   Real Space Points                     1728.0        1728        1728

 PW_GRID| Information for grid number                                          4
 PW_GRID| Number of the reference grid                                         1
 PW_GRID| Grid distributed over                                     8 processors
 PW_GRID| Real space group dimensions                                     8    1
 PW_GRID| the grid is blocked:                                                NO
 PW_GRID| Cutoff [a.u.]                                                     18.5
 PW_GRID| spherical cutoff:                                                   NO
 PW_GRID|   Bounds   1             -6       5                Points:          12
 PW_GRID|   Bounds   2             -6       5                Points:          12
 PW_GRID|   Bounds   3             -6       5                Points:          12
 PW_GRID| Volume element (a.u.^3)  0.1267         Volume (a.u.^3)       218.9969
 PW_GRID| Grid span                                                    FULLSPACE
 PW_GRID|   Distribution                         Average         Max         Min
 PW_GRID|   G-Vectors                              216.0         240         204
 PW_GRID|   G-Rays                                  18.0          20          17
 PW_GRID|   Real Space Points                      216.0         288         144

 POISSON| Solver                                                        PERIODIC
 POISSON| Periodicity                                                        XYZ

 RS_GRID| Information for grid number                                          1
 RS_GRID|   Bounds   1            -32      31                Points:          64
 RS_GRID|   Bounds   2            -32      31                Points:          64
 RS_GRID|   Bounds   3            -32      31                Points:          64
 RS_GRID| Real space fully replicated
 RS_GRID| Group size                                                           1

 RS_GRID| Information for grid number                                          2
 RS_GRID|   Bounds   1            -18      17                Points:          36
 RS_GRID|   Bounds   2            -18      17                Points:          36
 RS_GRID|   Bounds   3            -18      17                Points:          36
 RS_GRID| Real space fully replicated
 RS_GRID| Group size                                                           1

 RS_GRID| Information for grid number                                          3
 RS_GRID|   Bounds   1            -12      11                Points:          24
 RS_GRID|   Bounds   2            -12      11                Points:          24
 RS_GRID|   Bounds   3            -12      11                Points:          24
 RS_GRID| Real space fully replicated
 RS_GRID| Group size                                                           1

 RS_GRID| Information for grid number                                          4
 RS_GRID|   Bounds   1             -6       5                Points:          12
 RS_GRID|   Bounds   2             -6       5                Points:          12
 RS_GRID|   Bounds   3             -6       5                Points:          12
 RS_GRID| Real space fully replicated
 RS_GRID| Group size                                                           1

 Number of electrons:                                                         28
 Number of occupied orbitals:                                                 14
 Number of molecular orbitals:                                                84

 Number of orbital functions:                                                 84
 Number of independent orbital functions:                                     84

 Extrapolation method: initial_guess

 Atomic guess: The first density matrix is obtained in terms of atomic orbitals
               and electronic configurations assigned to each atomic kind

 Guess for atomic kind: W

 Electronic structure
    Total number of core electrons                                         60.00
    Total number of valence electrons                                      14.00
    Total number of electrons                                              74.00
    Multiplicity                                                   not specified
    S   [  2.00  2.00  2.00  2.00] 2.00  2.00
    P   [  6.00  6.00  6.00] 6.00
    D   [ 10.00 10.00] 4.00
    F   [ 14.00]


[...]
 LP    KERNEL             BACKEND                              COUNT     PERCENT
 6     collocate ortho    CPU                                 481312      51.61%
 6     integrate ortho    CPU                                 451230      48.39%
 0     collocate general  CPU                                      4       0.00%
 0     integrate general  CPU                                      2       0.00%
 -------------------------------------------------------------------------------

 MEMORY| Estimated peak process memory [MiB]                                1482

 -------------------------------------------------------------------------------
 ----                             MULTIGRID INFO                            ----
 -------------------------------------------------------------------------------
 count for grid        1:          56008          cutoff [a.u.]          500.00
 count for grid        2:         111354          cutoff [a.u.]          166.67
 count for grid        3:          47268          cutoff [a.u.]           55.56
 count for grid        4:          64440          cutoff [a.u.]           18.52
 total gridlevel count  :         279070

 -------------------------------------------------------------------------------
 -                                                                             -
 -                         MESSAGE PASSING PERFORMANCE                         -
 -                                                                             -
 -------------------------------------------------------------------------------

 ROUTINE             CALLS      AVE VOLUME [Bytes]
 MP_Group                5
 MP_Bcast           138437                   4109.
 MP_Allreduce        96702                     45.
 MP_Sync                 4
 MP_Alltoall           275                1447064.
 MP_SendRecv           462                  87971.
 MP_ISendRecv          427                  85473.
 MP_Wait             95467
 MP_comm_split           3
 MP_ISend           100800                   1624.
 MP_IRecv           161280                   1018.
 -------------------------------------------------------------------------------


 -------------------------------------------------------------------------------
 -                                                                             -
 -                           R E F E R E N C E S                               -
 -                                                                             -
 -------------------------------------------------------------------------------
 
 CP2K version 2025.1 (Development Version), the CP2K developers group (2025).
 CP2K is freely available from https://www.cp2k.org/ .
 
 T. D. Kuehne, M. Iannuzzi, M. Del Ben, V. V. Rybkin, P. Seewald, F. Stein, T. 
 Laino, R. Z. Khaliullin, O. Schuett, F. Schiffmann, D. Golze, J. Wilhelm, S. 
 Chulkov, M. H. Bani-Hashemian, V. Weber, U. Borstnik, M. Taillefumier, A. S. 
 Jakobovits, A. Lazzaro, H. Pabst, T. Mueller, R. Schade, M. Guidon, S. 
 Andermatt, N. Holmberg, G. K. Schenter, A. Hehn, A. Bussy, F. Belleflamme, G. 
 Tabacchi, A. Gloess, M. Lass, I. Bethune, C. J. Mundy, C. Plessl, M. Watkins, 
 J. VandeVondele, M. Krack, J. Hutter.
 J. Chem. Phys. 152, 194103 (2020).
 CP2K: An electronic structure and molecular dynamics software package - 
 Quickstep: Efficient and accurate electronic structure calculations.
 https://doi.org/10.1063/5.0007045

 O. Schuett, P. Messmer, J. Hutter, J. VandeVondele.
 Electronic Structure Calculations on Graphics Processing Units, 173-190 (2016).
 GPU-Accelerated Sparse Matrix-Matrix Multiplication for Linear Scaling Density 
 Functional Theory.
 https://doi.org/10.1002/9781118670712.ch8

 J. Hutter, M. Iannuzzi, F. Schiffmann, J. VandeVondele.
 WIREs Comput Mol Sci. 4, 15-25 (2014).
 CP2K: atomistic simulations of condensed matter systems.
 https://doi.org/10.1002/wcms.1159

 U. Borstnik, J. VandeVondele, V. Weber, J. Hutter.
 Parallel Comput. 40, 47-58 (2014).
 Sparse matrix multiplication: The distributed block-compressed sparse row 
 library.
 https://doi.org/10.1016/j.parco.2014.03.012

 J. VandeVondele, J. Hutter.
 J. Chem. Phys. 127, 114105 (2007).
 Gaussian basis sets for accurate calculations on molecular systems in gas and 
 condensed phases.
 https://doi.org/10.1063/1.2770708

 J. VandeVondele, M. Krack, F. Mohamed, M. Parrinello, T. Chassaing, J. Hutter.
 Comput. Phys. Commun. 167, 103-128 (2005).
 QUICKSTEP: Fast and accurate density functional calculations using a mixed 
 Gaussian and plane waves approach.
 https://doi.org/10.1016/j.cpc.2004.12.014

 M. Krack.
 Theor. Chem. Acc. 114, 145-152 (2005).
 Pseudopotentials for H to Kr optimized for gradient-corrected 
 exchange-correlation functionals.
 https://doi.org/10.1007/s00214-005-0655-y

 M. Frigo, S. G. Johnson.
 Proc. IEEE 93, 216-231 (2005).
 The design and implementation of FFTW3.
 https://doi.org/10.1109/JPROC.2004.840301

 C. Hartwigsen, S. Goedecker, J. Hutter.
 Phys. Rev. B 58, 3641-3662 (1998).
 Relativistic separable dual-space Gaussian pseudopotentials from H to Rn.
 https://doi.org/10.1103/PhysRevB.58.3641

 G. Lippert, J. Hutter, M. Parrinello.
 Mol. Phys. 92, 477-487 (1997).
 A hybrid Gaussian and plane wave density functional scheme.
 https://doi.org/10.1080/002689797170220

 S. Goedecker, M. Teter, J. Hutter.
 Phys. Rev. B 54, 1703-1710 (1996).
 Separable dual-space Gaussian pseudopotentials.
 https://doi.org/10.1103/PhysRevB.54.1703

 J. P. Perdew, K. Burke, M. Ernzerhof.
 Phys. Rev. Lett. 77, 3865-3868 (1996).
 Generalized gradient approximation made simple.
 https://doi.org/10.1103/PhysRevLett.77.3865


 -------------------------------------------------------------------------------
 -                                                                             -
 -                                T I M I N G                                  -
 -                                                                             -
 -------------------------------------------------------------------------------
 SUBROUTINE                       CALLS  ASD         SELF TIME        TOTAL TIME
                                MAXIMUM       AVERAGE  MAXIMUM  AVERAGE  MAXIMUM
 CP2K                                 1  1.0    0.019    0.023  445.400  445.400
 qs_energies                          1  2.0    0.007    0.007  445.125  445.135
 mp_alltoall_i22                  77716  9.0  313.132  384.792  313.132  384.792
 scf_env_do_scf                       1  3.0    0.000    0.000  330.151  330.151
 scf_env_do_scf_inner_loop           15  4.0    0.027    0.029  330.151  330.151
 qs_scf_new_mos_kp                   15  5.0    0.000    0.000  316.450  318.320
 do_general_diag_kp                  15  6.0    0.086    0.111  316.449  318.320
 dbcsr_desymmetrize_deep          45998  7.8    0.732    1.015  238.751  292.781
 rskp_transform                   10980  7.3   51.581  275.815   51.581  275.815
 qs_energies_properties               1  3.0    0.000    0.000  110.346  110.355
 post_scf_bandstructure               1  4.0    0.000    0.000  110.346  110.355
 dbcsr_complete_redistribute      31718  8.4    1.147    1.397   87.848  105.565
 kpoint_density_transform            15  7.0    0.047    0.060   99.079   99.397
 copy_fm_to_dbcsr                  7680  8.0    0.045    0.054   80.206   97.672
 transform_dmat                    3840  8.0   17.525   94.993   17.525   94.993
 rsmat_to_kp                       3300  7.0    0.053    0.061   87.330   87.341
 soc                                  1  5.0    0.001    0.001   57.700   57.700
 H_KS_spinor_kp                       1  6.0    0.012    0.014   56.084   57.211
 create_and_init_bs_env               1  5.0    0.000    0.000   42.418   42.419
 compute_cfm_mo_coeff_kp_and_ei       1  6.0    0.010    0.011   42.415   42.415
 cp_cfm_heevd                      2940  7.8    0.004    0.005   16.208   16.225
 cp_cfm_heevd_base                 2940  8.8   16.204   16.221   16.204   16.221
 copy_dbcsr_to_fm                 24038  7.2    0.247    0.288   13.406   13.614
 qs_ks_update_qs_env                 15  5.0    0.000    0.000    3.724   12.102
 rebuild_ks_matrix                   15  6.0    0.000    0.000    2.490   10.869
 qs_ks_build_kohn_sham_matrix        15  7.0    0.052    0.055    2.490   10.869
 sum_up_and_integrate                15  8.0    0.000    0.000    2.053   10.381
 integrate_v_rspace                  15  9.0    0.047    0.250    2.053   10.380
 dos_pdos_ldos                        1  5.0    0.008    0.009   10.228   10.238
 grid_integrate_task_list            15 10.0    1.893   10.067    1.893   10.067
 transfer_rs2pw                      66  8.0    0.001    0.001    7.822    9.655
 transfer_rs2pw_500                  18  8.8    0.016    0.018    7.807    9.639
 mp_sendrecv_dv                     462 10.0    7.800    9.635    7.800    9.635
 SOC_ev                             660  6.0    0.017    0.017    9.566    9.583
 cp_cfm_geeig_canon                1140  7.0    0.012    0.013    8.972    8.993
 qs_rho_update_rho_low               16  5.0    0.000    0.000    7.438    7.457
 calculate_rho_elec                  16  6.0    0.009    0.030    7.438    7.457
 density_rs2pw                       16  7.0    0.001    0.001    6.049    7.422
 grid_collocate_task_list            16  7.0    1.379    7.266    1.379    7.266
 cp_dbcsr_alloc_block_from_nbl    35754  6.4    1.139    5.653    1.318    6.425
 V_SOC_xyz_from_pseudopotential       1  6.0    0.062    0.065    1.615    5.471
 mp_sum_iv                         1340  8.9    4.176    5.372    4.176    5.372
 alloc_cfm_double_array_1d            1  7.0    0.003    0.003    3.884    5.011
 create_cfm_double                  660  8.0    0.014    0.016    3.881    5.008
 dbcsr_finalize                  159604  8.2    0.490    0.541    3.063    3.301
 qs_energies_init_hamiltonians        1  3.0    0.000    0.000    2.870    2.870
 dbcsr_create_new                223241  7.9    1.881    2.456    2.059    2.651
 cp_fm_start_copy_general         23040  7.3    0.432    0.583    2.576    2.610
 mp_alltoall_d11v                233148  9.6    2.375    2.582    2.375    2.582
 build_core_hamiltonian_matrix        1  4.0    0.007    0.008    0.565    2.364
 qs_env_update_s_mstruct              1  4.0    0.000    0.000    1.914    2.292
 calculate_rho_core                   1  5.0    0.001    0.002    1.807    2.270
 build_core_ppnl                      2  6.0    0.586    2.199    0.586    2.199
 mp_cart_sub                      48078  9.2    2.068    2.088    2.068    2.088
 dbcsr_merge_all                  37946 10.4    1.163    1.409    1.782    2.024
 mp_sum_d                         62819  8.9    1.682    2.002    1.682    2.002
 dbcsr_dot                        62281  8.0    0.319    0.697    1.808    1.953
 cp_cfm_gemm                       6720  8.5    1.921    1.950    1.921    1.950
 hybrid_alltoall_any              45998  8.8    0.189    0.230    1.705    1.861
 write_kpoints_restart               15  5.0    0.009    0.014    1.619    1.619
 parallel_gemm_cfm                 3300  7.0    0.004    0.004    1.458    1.486
 parallel_gemm_cfm_gemm            3300  8.0    0.004    0.004    1.454    1.482
 mp_allgather_i                   46080  8.3    1.324    1.381    1.324    1.381
 mp_cart_create                   24044  9.2    1.257    1.311    1.257    1.311
 init_scf_run                         1  3.0    0.000    0.000    1.097    1.240
 scf_env_initial_rho_setup            1  4.0    0.000    0.000    1.097    1.240
 evaluate_core_matrix_traces         15  6.0    0.000    0.000    1.233    1.233
 calculate_ptrace_kp                 30  7.0    0.046    0.047    1.233    1.233
 mp_alltoall_i11v                141152  9.2    1.025    1.105    1.025    1.105
 self_consistency_check              15  5.0    0.044    0.047    1.033    1.102
 cp_sm_mix                        31140  6.0    0.114    0.312    0.929    1.019
 dbcsr_work_create                83944  9.0    0.449    0.545    0.796    1.007
 dbcsr_copy                       78264  6.7    0.438    0.578    0.678    0.927
 dbcsr_add_d                       6228  7.0    0.006    0.007    0.403    0.908
 dbcsr_add_anytype                 6228  8.0    0.023    0.087    0.397    0.901
 mp_max_d                         31142  7.0    0.741    0.877    0.741    0.877
 add_to_DOS_PDOS                   1320  6.5    0.861    0.872    0.861    0.872
 dbcsr_iterator_start            314617  8.9    0.696    0.756    0.781    0.870
 dbcsr_reserve_blocks             43434  8.0    0.194    0.780    0.209    0.814
 copy_fm_to_dbcsr_bc               7680  9.0    0.104    0.116    0.401    0.812
 mixing_allocate                      1  3.0    0.012    0.012    0.187    0.802
 dbcsr_data_new                  932410  9.7    0.580    0.785    0.580    0.785
 calculate_first_density_matrix       1  5.0    0.001    0.001    0.630    0.774
 calculate_atomic_block_dm            1  6.0    0.001    0.001    0.625    0.770
 mp_bcast_iv                      92187  8.3    0.571    0.656    0.571    0.656
 cp_fm_write_unformatted           2076  6.0    0.428    0.595    0.437    0.636
 dbcsr_work_destroy_all           83944 10.0    0.364    0.410    0.562    0.635
 copy_dbcsr_to_fm_bc              24038  8.2    0.248    0.257    0.567    0.579
 dbcsr_data_release             1339023 10.1    0.467    0.544    0.467    0.544
 tree_to_linear_d                 31718 11.4    0.476    0.538    0.476    0.538
 dbcsr_destroy                   154733  7.6    0.238    0.258    0.455    0.509
 dbcsr_iterator_stop             314617  8.9    0.410    0.439    0.476    0.509
 dbcsr_set                       136779  7.4    0.122    0.129    0.221    0.479
 build_overlap_matrix_low             1  5.0    0.027    0.088    0.112    0.474
 build_kinetic_matrix_low             1  5.0    0.026    0.086    0.111    0.471
 calculate_ecore_overlap              1  4.0    0.000    0.000    0.369    0.455
 kpoint_set_mo_occupation            15  7.0    0.393    0.396    0.427    0.449
 build_core_ppl                       1  5.0    0.078    0.420    0.078    0.420
 qs_env_rebuild_rho                   1  5.0    0.000    0.000    0.092    0.399
 qs_rho_rebuild                       1  6.0    0.006    0.006    0.092    0.399
 qs_scf_ensure_work_matrices          1  3.0    0.000    0.000    0.309    0.381
 add_cfm_submat                    5280  7.0    0.046    0.049    0.352    0.364
 compute_proj_mo_on_kind            660  6.0    0.016    0.017    0.331    0.361
 dbcsr_zero                      136779  8.4    0.099    0.350    0.099    0.350
 quick_finalize                   45998  9.8    0.125    0.173    0.201    0.283
 cp_fm_finish_copy_general         9600  7.8    0.221    0.233    0.235    0.256
 dbcsr_scale_anytype               6229  9.0    0.046    0.061    0.225    0.246
 mp_comm_free                     72811  9.1    0.220    0.238    0.220    0.238
 fft_wrap_pw1pw2                    275 10.0    0.002    0.002    0.217    0.238
 dbcsr_copy_into_existing          9756  9.1    0.076    0.173    0.130    0.229
 fft_wrap_pw1pw2_500                182 11.3    0.010    0.011    0.198    0.219
 fft3d_ps                           275 12.0    0.065    0.066    0.185    0.206
 kpoint_density_matrices             15  7.0    0.009    0.009    0.170    0.184
 cp_fm_to_fm_submat               10560  8.0    0.181    0.184    0.181    0.184
 parallel_gemm_fm                  1920  8.0    0.002    0.002    0.157    0.171
 parallel_gemm_fm_gemm             1920  9.0    0.002    0.002    0.155    0.169
 mp_bcast_im                      46080  8.3    0.133    0.168    0.133    0.168
 cp_fm_gemm                        1920 10.0    0.153    0.167    0.153    0.167
 mp_waitall_1                     95467  8.4    0.075    0.152    0.075    0.152
 potential_pw2rs                     15 10.0    0.001    0.001    0.113    0.133
 dbcsr_iterator_seek             314617  9.9    0.085    0.129    0.085    0.129
 dbcsr_make_index_exist          223241  8.9    0.109    0.124    0.109    0.124
 mp_alltoall_z22v                   275 14.0    0.102    0.124    0.102    0.124
 dbcsr_sort_indices              121150 10.8    0.061    0.121    0.061    0.121
 qs_vxc_create                       15  8.0    0.000    0.000    0.114    0.115
 xc_vxc_pw_create                    15  9.0    0.005    0.005    0.114    0.114
 parser_read_line                  8162  4.0    0.003    0.003    0.110    0.113
 parser_read_line_low                26  6.1    0.010    0.043    0.108    0.111
 write_SOC_eigenvalues              148  6.0    0.013    0.107    0.013    0.107
 broadcast_input_information         26  7.1    0.028    0.040    0.098    0.105
 yz_to_x                            125 12.8    0.006    0.006    0.079    0.100
 cp_cfm_scale_and_add_fm          12480  7.8    0.080    0.086    0.080    0.086
 create_qs_kind_set                   1  2.0    0.000    0.000    0.083    0.083
 read_qs_kind                         1  3.0    0.040    0.043    0.083    0.083
 qs_create_task_list                  1  5.0    0.000    0.000    0.014    0.077
 generate_qs_task_list                1  6.0    0.011    0.059    0.014    0.077
 gspace_mixing                       14  5.0    0.003    0.003    0.077    0.077
 topology_control                     1  2.0    0.000    0.000    0.074    0.074
 dbcsr_reserve_all_blocks          7680 10.0    0.011    0.015    0.056    0.074
 merge_index                      37946 11.4    0.062    0.073    0.062    0.073
 xc_pw_derive                        90 11.0    0.000    0.000    0.072    0.073
 mp_isend_dv                      23040  8.3    0.064    0.068    0.064    0.068
 dbcsr_data_copy_aa2              31718 11.2    0.031    0.064    0.031    0.064
 xc_rho_set_and_dset_create          15 10.0    0.003    0.004    0.061    0.062
 broyden_mixing                      14  6.0    0.058    0.059    0.060    0.061
 scf_post_calculation_gpw             1  3.0    0.000    0.000    0.059    0.059
 write_available_results              1  4.0    0.000    0.000    0.059    0.059
 write_mo_free_results                1  5.0    0.001    0.001    0.059    0.059
 mp_sum_dm3                          15  8.0    0.034    0.057    0.034    0.057
 dbcsr_switch_data_area           45998 10.8    0.042    0.043    0.055    0.055
 read_cell_cif                        2  4.5    0.002    0.005    0.050    0.051
 mp_sum_dv                         1334  7.0    0.033    0.049    0.033    0.049
 mp_bcast_i_src                     104  8.1    0.041    0.048    0.041    0.048
 xc_pw_divergence                    15 10.0    0.000    0.000    0.047    0.048
 mp_irecv_iv                      92160  8.3    0.006    0.047    0.006    0.047
 cp_fm_create                     22662  7.9    0.044    0.045    0.044    0.045
 coordinate_control                   1  3.0    0.001    0.001    0.045    0.045
 coordinate_control_READ_COORDI       1  4.0    0.000    0.000    0.045    0.045
 read_coordinate_cif                  1  5.0    0.002    0.002    0.045    0.045
 transfer_pw2rs                      61 10.9    0.000    0.000    0.045    0.045
 -------------------------------------------------------------------------------

 The number of warnings for this run is : 1
 
 -------------------------------------------------------------------------------
  **** **** ******  **  PROGRAM ENDED AT                 2025-08-07 20:39:24.499
 ***** ** ***  *** **   PROGRAM RAN ON                              i03r10c02s07
 **    ****   ******    PROGRAM RAN BY                                   di38fab
 ***** **    ** ** **   PROGRAM PROCESS ID                               1621944
  **** **  *******  **  PROGRAM STOPPED IN /hppfs/scratch/04/di38fab/09_GTH/Delt
                                           a_Set/W/aug-DZVP-MOLOPT-GTH-tier-1/8x
                                           8x8
