Hf                                      
   1.00000000000000     
     3.202730    0.000000    0.000000
     1.601365    2.773646    0.000000
     0.000000    0.000000    5.064930
   Hf
     2
Direct
  0.000000  0.000000  0.000000
  0.333333  0.333333  0.500000
 
   28   28   48
  159.66      159.66      157.79      149.95      133.09      107.90      78.863      51.970      31.719      19.385    
  13.248      10.316      8.9259      8.3553      8.2058      8.3554      8.9259      10.316      13.248      19.385    
  31.719      51.970      78.863      107.90      133.09      149.95      157.79      159.66      159.66      158.44    
  153.04      140.00      118.34      90.852      62.938      39.839      24.280      15.801      11.779      9.8003    
  8.9193      8.6005      8.6003      8.9191      9.8004      11.779      15.801      24.280      39.839      62.939    
  90.853      118.34      140.00      153.04      158.44      159.66      157.79      153.04      142.08      123.36    
  98.285      71.090      46.861      29.130      18.572      13.347      10.772      9.5457      9.0418      8.9098    
  9.0415      9.5456      10.772      13.347      18.571      29.129      46.861      71.091      98.285      123.36    
  142.08      153.04      157.79      158.96      149.95      140.00      123.36      100.77      75.383      51.577    
  33.015      21.114      14.835      11.737      10.181      9.4902      9.2421      9.2420      9.4902      10.181    
  11.737      14.835      21.114      33.015      51.576      75.383      100.77      123.36      140.00      149.95    
  154.29      154.29      133.09      118.34      98.285      75.383      53.231      35.169      22.909      16.031    
  12.565      10.754      9.9009      9.5548      9.4657      9.5548      9.9009      10.754      12.565      16.031    
  22.909      35.169      53.231      75.383      98.285      118.34      133.09      141.74      144.54      141.74    
  107.90      90.852      71.090      51.577      35.169      23.556      16.703      13.124      11.190      10.230    
  9.8136      9.6689      9.6690      9.8136      10.230      11.190      13.124      16.704      23.556      35.169    
  51.577      71.091      90.854      107.90      120.08      126.34      126.34      120.08      78.863      62.938    
  46.861      33.015      22.909      16.703      13.322      11.425      10.443      9.9958      9.8242      9.7829    
  9.8243      9.9957      10.443      11.425      13.322      16.703      22.909      33.015      46.861      62.939    
  78.865      92.156      100.88      103.90      100.88      92.155      51.970      39.839      29.130      21.114    
  16.031      13.124      11.425      10.517      10.089      9.9193      9.8682      9.8683      9.9195      10.089    
  10.517      11.425      13.124      16.031      21.114      29.129      39.838      51.970      63.590      72.679    
  77.648      77.648      72.678      63.589      31.719      24.280      18.572      14.835      12.565      11.190    
  10.443      10.089      9.9512      9.9126      9.9071      9.9127      9.9515      10.090      10.443      11.190    
  12.565      14.836      18.572      24.279      31.717      39.883      47.302      52.482      54.340      52.482    
  47.303      39.884      19.385      15.801      13.347      11.737      10.754      10.230      9.9958      9.9193    
  9.9126      9.9220      9.9218      9.9125      9.9197      9.9964      10.231      10.754      11.738      13.348    
  15.802      19.385      23.908      28.661      32.643      34.915      34.915      32.643      28.662      23.909    
  13.248      11.779      10.772      10.181      9.9009      9.8136      9.8242      9.8682      9.9071      9.9218    
  9.9067      9.8678      9.8243      9.8139      9.9010      10.181      10.772      11.780      13.249      15.213    
  17.559      19.866      21.568      22.196      21.568      19.866      17.559      15.212      10.316      9.8003    
  9.5457      9.4902      9.5548      9.6689      9.7829      9.8683      9.9127      9.9125      9.8678      9.7823    
  9.6686      9.5547      9.4901      9.5451      9.7995      10.316      11.102      12.085      13.126      14.035    
  14.572      14.572      14.035      13.126      12.084      11.102      8.9259      8.9193      9.0418      9.2421    
  9.4657      9.6690      9.8243      9.9195      9.9515      9.9197      9.8243      9.6686      9.4654      9.2421    
  9.0417      8.9185      8.9246      9.0918      9.4124      9.8304      10.250      10.561      10.676      10.561    
  10.250      9.8301      9.4124      9.0926      8.3553      8.6005      8.9098      9.2420      9.5548      9.8136    
  9.9957      10.089      10.090      9.9964      9.8139      9.5547      9.2421      8.9103      8.6011      8.3553    
  8.2033      8.1561      8.2004      8.3012      8.4096      8.4786      8.4786      8.4097      8.3013      8.2008    
  8.1568      8.2040      8.2058      8.6003      9.0415      9.4902      9.9009      10.230      10.443      10.517    
  10.443      10.231      9.9010      9.4901      9.0417      8.6011      8.2068      7.8848      7.6455      7.4860    
  7.3932      7.3483      7.3316      7.3278      7.3313      7.3481      7.3933      7.4863      7.6454      7.8841    
  8.3554      8.9191      9.5456      10.181      10.754      11.190      11.425      11.425      11.190      10.754    
  10.181      9.5451      8.9185      8.3553      7.8848      7.5130      7.2311      7.0251      6.8820      6.7918    
  6.7481      6.7478      6.7914      6.8819      7.0251      7.2307      7.5121      7.8842      8.9259      9.8004    
  10.772      11.737      12.565      13.124      13.322      13.124      12.565      11.738      10.772      9.7995    
  8.9246      8.2033      7.6455      7.2311      6.9296      6.7148      6.5691      6.4837      6.4553      6.4835    
  6.5691      6.7150      6.9296      7.2307      7.6455      8.2041      10.316      11.779      13.347      14.835    
  16.031      16.704      16.703      16.031      14.836      13.348      11.780      10.316      9.0918      8.1561    
  7.4860      7.0251      6.7148      6.5105      6.3850      6.3249      6.3250      6.3853      6.5108      6.7149    
  7.0252      7.4863      8.1568      9.0925      13.248      15.801      18.571      21.114      22.909      23.556    
  22.909      21.114      18.572      15.802      13.249      11.102      9.4124      8.2004      7.3932      6.8820    
  6.5691      6.3850      6.2884      6.2585      6.2887      6.3852      6.5689      6.8819      7.3934      8.2008    
  9.4124      11.101      19.385      24.280      29.129      33.015      35.169      35.169      33.015      29.129    
  24.279      19.385      15.213      12.085      9.8304      8.3012      7.3483      6.7918      6.4837      6.3249    
  6.2585      6.2586      6.3250      6.4834      6.7914      7.3482      8.3012      9.8301      12.084      15.212    
  31.719      39.839      46.861      51.576      53.231      51.577      46.861      39.838      31.717      23.908    
  17.559      13.126      10.250      8.4096      7.3316      6.7481      6.4553      6.3250      6.2887      6.3250    
  6.4551      6.7479      7.3316      8.4098      10.250      13.126      17.559      23.909      51.970      62.939    
  71.091      75.383      75.383      71.091      62.939      51.970      39.883      28.661      19.866      14.035    
  10.561      8.4786      7.3278      6.7478      6.4835      6.3853      6.3852      6.4834      6.7479      7.3281    
  8.4789      10.561      14.035      19.866      28.661      39.884      78.863      90.853      98.285      100.77    
  98.285      90.854      78.865      63.590      47.302      32.643      21.568      14.572      10.676      8.4786    
  7.3313      6.7914      6.5691      6.5108      6.5689      6.7914      7.3316      8.4789      10.676      14.572    
  21.568      32.643      47.302      63.589      107.90      118.34      123.36      123.36      118.34      107.90    
  92.156      72.679      52.482      34.915      22.196      14.572      10.561      8.4097      7.3481      6.8819    
  6.7150      6.7149      6.8819      7.3482      8.4098      10.561      14.572      22.196      34.916      52.482    
  72.678      92.155      133.09      140.00      142.08      140.00      133.09      120.08      100.88      77.648    
  54.340      34.915      21.568      14.035      10.250      8.3013      7.3933      7.0251      6.9296      7.0252    
  7.3934      8.3012      10.250      14.035      21.568      34.916      54.340      77.648      100.88      120.08    
  149.95      153.04      153.04      149.95      141.74      126.34      103.90      77.648      52.482      32.643    
  19.866      13.126      9.8301      8.2008      7.4863      7.2307      7.2307      7.4863      8.2008      9.8301    
  13.126      19.866      32.643      52.482      77.648      103.91      126.34      141.74      157.79      158.44    
  157.79      154.29      144.54      126.34      100.88      72.678      47.303      28.662      17.559      12.084    
  9.4124      8.1568      7.6454      7.5121      7.6455      8.1568      9.4124      12.084      17.559      28.661    
  47.302      72.678      100.88      126.34      144.54      154.28      159.66      159.66      158.96      154.29    
  141.74      120.08      92.155      63.589      39.884      23.909      15.212      11.102      9.0926      8.2040    
  7.8841      7.8842      8.2041      9.0925      11.101      15.212      23.909      39.884      63.589      92.155    
  120.08      141.74      154.28      158.96      159.53      159.23      156.62      147.95      130.56      105.31    
  76.677      50.425      30.811      18.945      13.058      10.226      8.8849      8.3353      8.1916      8.3355    
  8.8849      10.226      13.058      18.945      30.812      50.425      76.676      105.31      130.56      147.95    
  156.62      159.23      159.23      157.50      151.35      137.67      115.76      88.484      61.118      38.668    
  23.655      15.518      11.646      9.7358      8.8867      8.5801      8.5800      8.8866      9.7359      11.646    
  15.518      23.654      38.668      61.119      88.484      115.76      137.67      151.35      157.50      159.23    
  156.62      151.35      139.84      120.82      95.843      69.097      45.483      28.331      18.183      13.169    
  10.680      9.4981      9.0134      8.8866      9.0131      9.4981      10.680      13.169      18.183      28.331    
  45.484      69.097      95.843      120.82      139.84      151.35      156.62      158.00      147.95      137.67    
  120.82      98.315      73.310      50.071      32.086      20.630      14.608      11.619      10.118      9.4527    
  9.2145      9.2145      9.4527      10.118      11.619      14.608      20.629      32.085      50.071      73.310    
  98.315      120.82      137.67      147.95      152.54      152.54      130.56      115.76      95.843      73.310    
  51.683      34.170      22.357      15.762      12.423      10.676      9.8546      9.5223      9.4371      9.5224    
  9.8547      10.676      12.423      15.762      22.357      34.170      51.683      73.310      95.843      115.75    
  130.56      139.32      142.18      139.33      105.31      88.484      69.097      50.071      34.170      22.981    
  16.409      12.967      11.101      10.177      9.7767      9.6384      9.6384      9.7768      10.177      11.101    
  12.967      16.410      22.981      34.170      50.071      69.098      88.485      105.31      117.41      123.65    
  123.65      117.41      76.677      61.118      45.483      32.086      22.357      16.409      13.159      11.330    
  10.385      9.9556      9.7918      9.7526      9.7919      9.9555      10.385      11.330      13.159      16.410    
  22.357      32.085      45.483      61.119      76.678      89.717      98.300      101.28      98.300      89.716    
  50.425      38.668      28.331      20.630      15.762      12.967      11.330      10.457      10.047      9.8856    
  9.8374      9.8375      9.8857      10.047      10.457      11.330      12.967      15.762      20.629      28.330    
  38.667      50.424      61.724      70.586      75.439      75.438      70.585      61.724      30.811      23.655    
  18.183      14.608      12.423      11.101      10.385      10.047      9.9169      9.8814      9.8767      9.8815    
  9.9172      10.048      10.385      11.100      12.423      14.608      18.183      23.654      30.810      38.692    
  45.871      50.892      52.694      50.892      45.871      38.693      18.945      15.518      13.169      11.619    
  10.676      10.177      9.9556      9.8856      9.8814      9.8916      9.8915      9.8814      9.8859      9.9562    
  10.177      10.676      11.619      13.169      15.519      18.945      23.281      27.847      31.680      33.870    
  33.870      31.681      27.847      23.281      13.058      11.646      10.680      10.118      9.8546      9.7767    
  9.7918      9.8374      9.8767      9.8915      9.8763      9.8370      9.7919      9.7771      9.8548      10.118    
  10.680      11.647      13.059      14.937      17.178      19.384      21.014      21.615      21.014      19.384    
  17.178      14.936      10.226      9.7358      9.4981      9.4527      9.5223      9.6384      9.7526      9.8375    
  9.8815      9.8814      9.8370      9.7520      9.6381      9.5223      9.4527      9.4977      9.7351      10.226    
  10.979      11.923      12.920      13.788      14.300      14.300      13.788      12.920      11.922      10.979    
  8.8849      8.8867      9.0134      9.2145      9.4371      9.6384      9.7919      9.8857      9.9172      9.8859    
  9.7919      9.6381      9.4368      9.2145      9.0133      8.8860      8.8838      9.0377      9.3406      9.7388    
  10.140      10.437      10.548      10.438      10.140      9.7385      9.3406      9.0384      8.3353      8.5801    
  8.8866      9.2145      9.5224      9.7768      9.9555      10.047      10.048      9.9562      9.7771      9.5223    
  9.2145      8.8871      8.5806      8.3353      8.1808      8.1279      8.1644      8.2564      8.3573      8.4219    
  8.4219      8.3574      8.2565      8.1647      8.1286      8.1814      8.1916      8.5800      9.0131      9.4527    
  9.8547      10.177      10.385      10.457      10.385      10.177      9.8548      9.4527      9.0133      8.5806    
  8.1924      7.8740      7.6357      7.4748      7.3792      7.3311      7.3118      7.3071      7.3115      7.3308    
  7.3793      7.4750      7.6356      7.8734      8.3355      8.8866      9.4981      10.118      10.676      11.101    
  11.330      11.330      11.100      10.676      10.118      9.4977      8.8860      8.3353      7.8740      7.5079    
  7.2289      7.0237      6.8800      6.7888      6.7443      6.7440      6.7884      6.8799      7.0237      7.2286    
  7.5072      7.8735      8.8849      9.7359      10.680      11.619      12.423      12.967      13.159      12.967    
  12.423      11.619      10.680      9.7351      8.8838      8.1808      7.6357      7.2289      6.9314      6.7181    
  6.5726      6.4868      6.4583      6.4867      6.5726      6.7183      6.9315      7.2286      7.6356      8.1815    
  10.226      11.646      13.169      14.608      15.762      16.410      16.410      15.762      14.608      13.169    
  11.647      10.226      9.0377      8.1279      7.4748      7.0237      6.7181      6.5156      6.3905      6.3302    
  6.3303      6.3907      6.5158      6.7183      7.0238      7.4751      8.1285      9.0383      13.058      15.518    
  18.183      20.629      22.357      22.981      22.357      20.629      18.183      15.519      13.059      10.979    
  9.3406      8.1644      7.3792      6.8800      6.5726      6.3905      6.2942      6.2643      6.2945      6.3906    
  6.5724      6.8798      7.3793      8.1647      9.3405      10.978      18.945      23.654      28.331      32.085    
  34.170      34.170      32.085      28.330      23.654      18.945      14.937      11.923      9.7388      8.2564    
  7.3311      6.7888      6.4868      6.3302      6.2643      6.2644      6.3303      6.4866      6.7884      7.3309    
  8.2564      9.7385      11.922      14.936      30.812      38.668      45.484      50.071      51.683      50.071    
  45.483      38.667      30.810      23.281      17.178      12.920      10.140      8.3573      7.3118      6.7443    
  6.4583      6.3303      6.2945      6.3303      6.4581      6.7441      7.3119      8.3575      10.140      12.920    
  17.178      23.282      50.425      61.119      69.097      73.310      73.310      69.098      61.119      50.424    
  38.692      27.847      19.384      13.788      10.437      8.4219      7.3071      6.7440      6.4867      6.3907    
  6.3906      6.4866      6.7441      7.3074      8.4222      10.437      13.788      19.384      27.847      38.692    
  76.676      88.484      95.843      98.315      95.843      88.485      76.678      61.724      45.871      31.680    
  21.014      14.300      10.548      8.4220      7.3115      6.7884      6.5726      6.5158      6.5724      6.7884    
  7.3119      8.4222      10.547      14.300      21.014      31.681      45.871      61.723      105.31      115.76    
  120.82      120.82      115.75      105.31      89.717      70.586      50.892      33.870      21.615      14.300    
  10.438      8.3574      7.3308      6.8799      6.7183      6.7183      6.8798      7.3309      8.3575      10.437    
  14.300      21.615      33.871      50.892      70.584      89.715      130.56      137.67      139.84      137.67    
  130.56      117.41      98.300      75.439      52.694      33.870      21.014      13.788      10.140      8.2565    
  7.3793      7.0237      6.9315      7.0238      7.3793      8.2564      10.140      13.788      21.014      33.871    
  52.694      75.439      98.300      117.41      147.95      151.35      151.35      147.95      139.32      123.65    
  101.28      75.438      50.892      31.681      19.384      12.920      9.7385      8.1647      7.4750      7.2286    
  7.2286      7.4751      8.1647      9.7385      12.920      19.384      31.681      50.892      75.439      101.28    
  123.65      139.33      156.62      157.50      156.62      152.54      142.18      123.65      98.300      70.585    
  45.871      27.847      17.178      11.922      9.3406      8.1286      7.6356      7.5072      7.6356      8.1285    
  9.3405      11.922      17.178      27.847      45.871      70.584      98.300      123.65      142.18      152.54    
  159.23      159.23      158.00      152.54      139.33      117.41      89.716      61.724      38.693      23.281    
  14.936      10.979      9.0384      8.1814      7.8734      7.8735      8.1815      9.0383      10.978      14.936    
  23.282      38.692      61.723      89.715      117.41      139.33      152.54      158.00      157.86      156.80    
  152.30      141.56      122.92      97.765      70.420      46.066      28.283      17.731      12.528      9.9727    
  8.7678      8.2769      8.1491      8.2770      8.7679      9.9725      12.527      17.731      28.283      46.066    
  70.419      97.764      122.92      141.56      152.30      156.80      156.80      153.78      145.72      130.49    
  108.12      81.648      55.950      35.386      21.921      14.735      11.272      9.5529      8.7932      8.5207    
  8.5205      8.7930      9.5529      11.272      14.735      21.921      35.386      55.951      81.649      108.12    
  130.49      145.72      153.78      156.80      152.30      145.72      132.87      113.25      88.751      63.407    
  41.604      26.109      17.108      12.665      10.422      9.3629      8.9316      8.8195      8.9313      9.3628    
  10.422      12.665      17.108      26.108      41.605      63.408      88.751      113.25      132.87      145.72    
  152.30      154.22      141.56      130.49      113.25      91.158      67.376      45.820      29.490      19.287    
  13.975      11.285      9.9384      9.3460      9.1356      9.1356      9.3460      9.9385      11.285      13.975    
  19.286      29.490      45.819      67.376      91.158      113.25      130.49      141.56      146.75      146.75    
  122.92      108.12      88.751      67.376      47.306      31.375      20.828      15.014      12.024      10.456    
  9.7238      9.4303      9.3558      9.4304      9.7238      10.456      12.025      15.014      20.828      31.375    
  47.306      67.376      88.751      108.12      122.92      131.92      134.90      131.92      97.765      81.648    
  63.407      45.820      31.375      21.386      15.595      12.524      10.849      10.026      9.6727      9.5522    
  9.5523      9.6727      10.026      10.849      12.524      15.595      21.386      31.375      45.820      63.408    
  81.649      97.765      109.54      115.68      115.68      109.54      70.420      55.950      41.604      29.490    
  20.828      15.595      12.701      11.061      10.221      9.8426      9.7007      9.6674      9.7008      9.8425    
  10.220      11.061      12.701      15.595      20.829      29.490      41.605      55.951      70.420      82.688    
  90.837      93.683      90.837      82.688      46.066      35.386      26.109      19.287      15.014      12.524    
  11.061      10.288      9.9296      9.7911      9.7514      9.7515      9.7912      9.9296      10.288      11.061    
  12.524      15.014      19.287      26.108      35.385      46.066      56.434      64.627      69.137      69.137    
  64.627      56.434      28.283      21.921      17.108      13.975      12.024      10.849      10.221      9.9296    
  9.8212      9.7947      9.7922      9.7947      9.8215      9.9299      10.221      10.849      12.024      13.975    
  17.108      21.921      28.282      35.357      41.850      46.415      48.058      46.415      41.850      35.358    
  17.731      14.735      12.665      11.285      10.456      10.026      9.8426      9.7911      9.7947      9.8072    
  9.8071      9.7946      9.7914      9.8432      10.026      10.456      11.285      12.666      14.736      17.731    
  21.543      25.587      29.001      30.959      30.959      29.002      25.587      21.543      12.528      11.272    
  10.422      9.9384      9.7238      9.6727      9.7007      9.7514      9.7922      9.8071      9.7918      9.7511    
  9.7008      9.6730      9.7240      9.9385      10.422      11.272      12.528      14.174      16.128      18.056    
  19.485      20.014      19.485      18.056      16.128      14.173      9.9727      9.5529      9.3629      9.3460    
  9.4303      9.5522      9.6674      9.7515      9.7947      9.7946      9.7511      9.6669      9.5519      9.4303    
  9.3461      9.3627      9.5524      9.9725      10.633      11.470      12.350      13.107      13.553      13.553    
  13.107      12.349      11.469      10.632      8.7678      8.7932      8.9316      9.1356      9.3558      9.5523    
  9.7008      9.7912      9.8215      9.7914      9.7008      9.5519      9.3553      9.1355      8.9315      8.7927    
  8.7671      8.8840      9.1381      9.4816      9.8316      10.093      10.190      10.093      9.8318      9.4815    
  9.1381      8.8845      8.2769      8.5207      8.8195      9.1356      9.4304      9.6727      9.8425      9.9296    
  9.9299      9.8432      9.6730      9.4303      9.1355      8.8197      8.5209      8.2768      8.1154      8.0474    
  8.0625      8.1309      8.2116      8.2644      8.2645      8.2117      8.1310      8.0627      8.0478      8.1158    
  8.1491      8.5205      8.9313      9.3460      9.7238      10.026      10.220      10.288      10.221      10.026    
  9.7240      9.3461      8.9315      8.5209      8.1496      7.8412      7.6060      7.4421      7.3394      7.2831    
  7.2574      7.2502      7.2572      7.2829      7.3394      7.4422      7.6059      7.8408      8.2770      8.7930    
  9.3628      9.9385      10.456      10.849      11.061      11.061      10.849      10.456      9.9385      9.3627    
  8.7927      8.2768      7.8412      7.4917      7.2212      7.0187      6.8742      6.7808      6.7348      6.7345    
  6.7804      6.8740      7.0187      7.2211      7.4913      7.8410      8.7679      9.5529      10.422      11.285    
  12.025      12.524      12.701      12.524      12.024      11.285      10.422      9.5524      8.7671      8.1154    
  7.6060      7.2212      6.9355      6.7270      6.5826      6.4966      6.4678      6.4964      6.5826      6.7273    
  6.9357      7.2211      7.6059      8.1159      9.9725      11.272      12.665      13.975      15.014      15.595    
  15.595      15.014      13.975      12.666      11.272      9.9725      8.8840      8.0474      7.4421      7.0187    
  6.7270      6.5301      6.4065      6.3463      6.3464      6.4067      6.5304      6.7272      7.0188      7.4422    
  8.0477      8.8844      12.527      14.735      17.108      19.286      20.828      21.386      20.829      19.287    
  17.108      14.736      12.528      10.633      9.1381      8.0625      7.3394      6.8742      6.5826      6.4065    
  6.3118      6.2819      6.3120      6.4066      6.5825      6.8739      7.3395      8.0627      9.1381      10.632    
  17.731      21.921      26.108      29.490      31.375      31.375      29.490      26.108      21.921      17.731    
  14.174      11.470      9.4816      8.1309      7.2831      6.7808      6.4966      6.3463      6.2819      6.2820    
  6.3464      6.4963      6.7804      7.2829      8.1310      9.4815      11.469      14.173      28.283      35.386    
  41.605      45.819      47.306      45.820      41.605      35.385      28.282      21.543      16.128      12.350    
  9.8316      8.2116      7.2574      6.7348      6.4678      6.3464      6.3120      6.3464      6.4677      6.7346    
  7.2574      8.2118      9.8317      12.349      16.128      21.543      46.066      55.951      63.408      67.376    
  67.376      63.408      55.951      46.066      35.357      25.587      18.056      13.107      10.093      8.2644    
  7.2502      6.7345      6.4964      6.4067      6.4066      6.4963      6.7346      7.2505      8.2647      10.093    
  13.107      18.056      25.587      35.357      70.419      81.649      88.751      91.158      88.751      81.649    
  70.420      56.434      41.850      29.001      19.485      13.553      10.190      8.2645      7.2572      6.7804    
  6.5826      6.5304      6.5825      6.7804      7.2574      8.2647      10.190      13.553      19.486      29.002    
  41.850      56.433      97.764      108.12      113.25      113.25      108.12      97.765      82.688      64.627    
  46.415      30.959      20.014      13.553      10.093      8.2117      7.2829      6.8740      6.7273      6.7272    
  6.8739      7.2829      8.2118      10.093      13.553      20.014      30.960      46.415      64.626      82.687    
  122.92      130.49      132.87      130.49      122.92      109.54      90.837      69.137      48.058      30.959    
  19.485      13.107      9.8318      8.1310      7.3394      7.0187      6.9357      7.0188      7.3395      8.1310    
  9.8317      13.107      19.486      30.960      48.058      69.137      90.837      109.54      141.56      145.72    
  145.72      141.56      131.92      115.68      93.683      69.137      46.415      29.002      18.056      12.349    
  9.4815      8.0627      7.4422      7.2211      7.2211      7.4422      8.0627      9.4815      12.349      18.056    
  29.002      46.415      69.137      93.683      115.69      131.92      152.30      153.78      152.30      146.75    
  134.90      115.68      90.837      64.627      41.850      25.587      16.128      11.469      9.1381      8.0478    
  7.6059      7.4913      7.6059      8.0477      9.1381      11.469      16.128      25.587      41.850      64.626    
  90.837      115.69      134.90      146.75      156.80      156.80      154.22      146.75      131.92      109.54    
  82.688      56.434      35.358      21.543      14.173      10.632      8.8845      8.1158      7.8409      7.8410    
  8.1159      8.8844      10.632      14.173      21.543      35.357      56.433      82.687      109.54      131.92    
  146.75      154.21      151.72      149.74      143.00      129.98      110.30      85.955      60.978      39.670    
  24.659      16.015      11.752      9.5985      8.5915      8.1850      8.0803      8.1851      8.5916      9.5984    
  11.752      16.015      24.659      39.670      60.978      85.955      110.30      129.98      143.00      149.74    
  149.74      145.19      134.97      118.23      95.908      71.171      48.268      30.629      19.458      13.619    
  10.721      9.2811      8.6509      8.4276      8.4275      8.6508      9.2811      10.721      13.619      19.458    
  30.629      48.269      71.171      95.908      118.23      134.97      145.19      149.74      143.00      134.97    
  120.82      100.98      77.753      54.864      35.930      22.928      15.584      11.925      10.041      9.1607    
  8.8068      8.7160      8.8066      9.1607      10.041      11.925      15.584      22.928      35.930      54.865    
  77.753      100.98      120.82      134.97      143.00      145.53      129.98      118.23      100.98      80.012    
  58.416      39.563      25.755      17.381      13.056      10.794      9.6729      9.1861      9.0161      9.0161    