Hf                                      
   1.00000000000000     
     3.202730    0.000000    0.000000
     1.601365    2.773646    0.000000
     0.000000    0.000000    5.064930
   Hf
     2
Direct
  0.000000  0.000000  0.000000
  0.333333  0.333333  0.500000
 
   28   28   48
 0.15965999901E+03 0.15965927046E+03 0.15779159917E+03 0.14994801250E+03 0.13309170496E+03
 0.10789935981E+03 0.78863422639E+02 0.51970150819E+02 0.31718845072E+02 0.19384754845E+02
 0.13247690228E+02 0.10315993577E+02 0.89258546787E+01 0.83553011667E+01 0.82057926151E+01
 0.83554396461E+01 0.89259036004E+01 0.10315851523E+02 0.13247559519E+02 0.19384865623E+02
 0.31719115369E+02 0.51970268149E+02 0.78863233313E+02 0.10789903862E+03 0.13309151571E+03
 0.14994802102E+03 0.15779168606E+03 0.15965932620E+03 0.15965927165E+03 0.15843505515E+03
 0.15303885207E+03 0.14000402316E+03 0.11833920506E+03 0.90852184432E+02 0.62937957785E+02
 0.39838716164E+02 0.24279709207E+02 0.15800705387E+02 0.11779071110E+02 0.98002946070E+01
 0.89192571972E+01 0.86004629931E+01 0.86003325109E+01 0.89190987248E+01 0.98003862441E+01
 0.11779221093E+02 0.15800597538E+02 0.24279569313E+02 0.39839079871E+02 0.62938757239E+02
 0.90852675025E+02 0.11833910830E+03 0.14000421475E+03 0.15304028250E+03 0.15843718277E+03
 0.15966031373E+03 0.15779160371E+03 0.15303885502E+03 0.14207765796E+03 0.12335855086E+03
 0.98284545162E+02 0.71090142305E+02 0.46860906164E+02 0.29129512095E+02 0.18571628196E+02
 0.13347266823E+02 0.10771566386E+02 0.95456611050E+01 0.90418256809E+01 0.89097572622E+01
 0.90415380752E+01 0.95455944333E+01 0.10771830904E+02 0.13347322044E+02 0.18571196319E+02
 0.29129176209E+02 0.46861289774E+02 0.71090868455E+02 0.98284712029E+02 0.12335816033E+03
 0.14207778250E+03 0.15304007411E+03 0.15779292906E+03 0.15896121047E+03 0.14994802008E+03
 0.14000402846E+03 0.12335855308E+03 0.10077328996E+03 0.75383081806E+02 0.51576512215E+02
 0.33015097778E+02 0.21114395125E+02 0.14835456350E+02 0.11737399515E+02 0.10181067592E+02
 0.94902085264E+01 0.92420554279E+01 0.92420226178E+01 0.94901872296E+01 0.10181145690E+02
 0.11737480257E+02 0.14835347732E+02 0.21114083936E+02 0.33014797997E+02 0.51576381914E+02
 0.75382986766E+02 0.10077294395E+03 0.12335785738E+03 0.14000319267E+03 0.14994737127E+03
 0.15428509823E+03 0.15428533704E+03 0.13309171315E+03 0.11833921060E+03 0.98284547868E+02
 0.75383082603E+02 0.53231157674E+02 0.35169307858E+02 0.22908862551E+02 0.16031012211E+02
 0.12564809732E+02 0.10754364368E+02 0.99008791462E+01 0.95547586001E+01 0.94657307040E+01
 0.95548493366E+01 0.99009064497E+01 0.10754355176E+02 0.12564972008E+02 0.16031299483E+02
 0.22908876414E+02 0.35168881878E+02 0.53230760624E+02 0.75383226368E+02 0.98284900516E+02
 0.11833882401E+03 0.13309032112E+03 0.14173928988E+03 0.14453849951E+03 0.14174063326E+03
 0.10789936599E+03 0.90852188320E+02 0.71090144163E+02 0.51576512852E+02 0.35169307998E+02
 0.23556277844E+02 0.16703029087E+02 0.13123932685E+02 0.11189900469E+02 0.10230400976E+02
 0.98136118768E+01 0.96689155082E+01 0.96689666102E+01 0.98136157141E+01 0.10230241236E+02
 0.11189855978E+02 0.13124293123E+02 0.16703510172E+02 0.23556324957E+02 0.35169019408E+02
 0.51576724199E+02 0.71091293304E+02 0.90853513385E+02 0.10789974837E+03 0.12008236709E+03
 0.12633572316E+03 0.12633614466E+03 0.12008294054E+03 0.78863425681E+02 0.62937959497E+02
 0.46860906917E+02 0.33015098058E+02 0.22908862663E+02 0.16703029133E+02 0.13321625629E+02
 0.11425383251E+02 0.10443488877E+02 0.99958343208E+01 0.98241895132E+01 0.97828841739E+01
 0.98242998443E+01 0.99957365321E+01 0.10443108748E+02 0.11425100202E+02 0.13321746052E+02
 0.16703310916E+02 0.22908857481E+02 0.33014854839E+02 0.46861003631E+02 0.62938783991E+02
 0.78864688666E+02 0.92156445651E+02 0.10087886758E+03 0.10390473760E+03 0.10087831721E+03
 0.92155363729E+02 0.51970151367E+02 0.39838716406E+02 0.29129512210E+02 0.21114395227E+02
 0.16031012308E+02 0.13123932748E+02 0.11425383274E+02 0.10517253120E+02 0.10089484802E+02
 0.99193281274E+01 0.98681560134E+01 0.98682714120E+01 0.99195067393E+01 0.10089416079E+02
 0.10516855134E+02 0.11424933252E+02 0.13123759250E+02 0.16031055150E+02 0.21114183487E+02
 0.29128703935E+02 0.39837635597E+02 0.51969613656E+02 0.63589956167E+02 0.72678869836E+02
 0.77648371479E+02 0.77647859298E+02 0.72677862402E+02 0.63589481979E+02 0.31718844539E+02
 0.24279708948E+02 0.18571628148E+02 0.14835456409E+02 0.12564809807E+02 0.11189900518E+02
 0.10443488901E+02 0.10089484812E+02 0.99511829576E+01 0.99126152539E+01 0.99071460106E+01
 0.99127003599E+01 0.99514571452E+01 0.10089803190E+02 0.10443496176E+02 0.11189570550E+02
 0.12564599964E+02 0.14835630477E+02 0.18571679832E+02 0.24278902938E+02 0.31717285026E+02
 0.39883034146E+02 0.47302253344E+02 0.52482240921E+02 0.54339599484E+02 0.52482010444E+02
 0.47302600072E+02 0.39884347038E+02 0.19384754247E+02 0.15800705141E+02 0.13347266773E+02
 0.11737399540E+02 0.10754364407E+02 0.10230401010E+02 0.99958343511E+01 0.99193281508E+01
 0.99126152654E+01 0.99219810471E+01 0.99218450003E+01 0.99125309763E+01 0.99197147989E+01
 0.99964481275E+01 0.10230638345E+02 0.10754219249E+02 0.11737564118E+02 0.13348112774E+02
 0.15801616175E+02 0.19384831659E+02 0.23908363279E+02 0.28660536978E+02 0.32642843727E+02
 0.34915313439E+02 0.34915437070E+02 0.32643375098E+02 0.28661515806E+02 0.23909190170E+02
 0.13247689853E+02 0.11779070951E+02 0.10771566341E+02 0.10181067605E+02 0.99008791921E+01
 0.98136119387E+01 0.98241895723E+01 0.98681560545E+01 0.99071460300E+01 0.99218450047E+01
 0.99067243006E+01 0.98678146908E+01 0.98242812035E+01 0.98139230165E+01 0.99009948861E+01
 0.10180992958E+02 0.10771757676E+02 0.11779851404E+02 0.13248816189E+02 0.15213170639E+02
 0.17559490820E+02 0.19865729206E+02 0.21567794146E+02 0.22195736178E+02 0.21568030688E+02
 0.19865895300E+02 0.17559189981E+02 0.15212278574E+02 0.10315993382E+02 0.98002945334E+01
 0.95456611234E+01 0.94902086127E+01 0.95547587216E+01 0.96689156267E+01 0.97828842609E+01
 0.98682714588E+01 0.99127003754E+01 0.99125309760E+01 0.98678146878E+01 0.97823458121E+01
 0.96685959355E+01 0.95547208056E+01 0.94900938180E+01 0.95451039692E+01 0.97995304894E+01
 0.10315758074E+02 0.11102247653E+02 0.12084701168E+02 0.13126315846E+02 0.14035303014E+02
 0.14571992718E+02 0.14572139876E+02 0.14035365439E+02 0.13125737147E+02 0.12083657939E+02
 0.11101581315E+02 0.89258546562E+01 0.89192572780E+01 0.90418258448E+01 0.92420556319E+01
 0.94657308962E+01 0.96689667522E+01 0.98242999245E+01 0.99195067687E+01 0.99514571453E+01
 0.99197147896E+01 0.98242811975E+01 0.96685959359E+01 0.94654321631E+01 0.92420823962E+01
 0.90417221127E+01 0.89184596202E+01 0.89246147203E+01 0.90918371891E+01 0.94124375256E+01
 0.98304145156E+01 0.10249767636E+02 0.10560714243E+02 0.10675699519E+02 0.10561001661E+02
 0.10249815044E+02 0.98300996125E+01 0.94124061370E+01 0.90926381272E+01 0.83553013388E+01
 0.86004632354E+01 0.89097575286E+01 0.92420228555E+01 0.95548495092E+01 0.98136158126E+01
 0.99957365698E+01 0.10089416079E+02 0.10089803176E+02 0.99964481160E+01 0.98139230174E+01
 0.95547208173E+01 0.92420824083E+01 0.89103280140E+01 0.86010701437E+01 0.83552927301E+01
 0.82033280544E+01 0.81560568504E+01 0.82004150167E+01 0.83011579887E+01 0.84096426953E+01
 0.84785886221E+01 0.84786407821E+01 0.84097457783E+01 0.83013173182E+01 0.82008238494E+01
 0.81567814416E+01 0.82039682509E+01 0.82057928694E+01 0.86003327583E+01 0.90415382780E+01
 0.94901873678E+01 0.99009065249E+01 0.10230241263E+02 0.10443108747E+02 0.10516855122E+02
 0.10443496168E+02 0.10230638352E+02 0.99009949104E+01 0.94900938530E+01 0.90417221452E+01
 0.86010701620E+01 0.82068185778E+01 0.78847914038E+01 0.76455423836E+01 0.74859906380E+01
 0.73931506766E+01 0.73482894371E+01 0.73315982060E+01 0.73278013672E+01 0.73312919130E+01
 0.73480662688E+01 0.73932916197E+01 0.74862753759E+01 0.76454468142E+01 0.78840664642E+01
 0.83554397693E+01 0.89190987927E+01 0.95455944563E+01 0.10181145688E+02 0.10754355169E+02
 0.11189855976E+02 0.11425100210E+02 0.11424933271E+02 0.11189570582E+02 0.10754219297E+02
 0.10180993018E+02 0.95451040322E+01 0.89184596735E+01 0.83552927642E+01 0.78847914170E+01
 0.75129515038E+01 0.72310538303E+01 0.70251249076E+01 0.68820459123E+01 0.67918339171E+01
 0.67480513906E+01 0.67478006144E+01 0.67914100797E+01 0.68819142077E+01 0.70251415841E+01
 0.72306796469E+01 0.75121369064E+01 0.78841893795E+01 0.89259034788E+01 0.98003860955E+01
 0.10771830777E+02 0.11737480185E+02 0.12564972000E+02 0.13124293166E+02 0.13321746125E+02
 0.13123759335E+02 0.12564600053E+02 0.11737564212E+02 0.10771757771E+02 0.97995305784E+01
 0.89246147909E+01 0.82033280969E+01 0.76455423968E+01 0.72310538252E+01 0.69296159775E+01
 0.67147819004E+01 0.65691123183E+01 0.64836751873E+01 0.64552852375E+01 0.64835320594E+01
 0.65691449462E+01 0.67150047234E+01 0.69296203808E+01 0.72307263892E+01 0.76454775841E+01
 0.82041080843E+01 0.10315851196E+02 0.11779220799E+02 0.13347321854E+02 0.14835347681E+02
 0.16031299561E+02 0.16703510327E+02 0.16703311086E+02 0.16031055298E+02 0.14835630602E+02
 0.13348112896E+02 0.11779851533E+02 0.10315758197E+02 0.90918372816E+01 0.81560568942E+01
 0.74859906321E+01 0.70251248702E+01 0.67147818637E+01 0.65104979018E+01 0.63850476602E+01
 0.63248801780E+01 0.63249845446E+01 0.63853087428E+01 0.65107722309E+01 0.67149408614E+01
 0.70252427273E+01 0.74863390554E+01 0.81567516116E+01 0.90925206819E+01 0.13247559020E+02
 0.15800597152E+02 0.18571196166E+02 0.21114084056E+02 0.22908876731E+02 0.23556325319E+02
 0.22908857761E+02 0.21114183657E+02 0.18571679955E+02 0.15801616324E+02 0.13248816384E+02
 0.11102247849E+02 0.94124376611E+01 0.82004150574E+01 0.73931506297E+01 0.68820458148E+01
 0.65691122178E+01 0.63850475983E+01 0.62884316019E+01 0.62584647786E+01 0.62887367621E+01
 0.63852189866E+01 0.65689350623E+01 0.68818655392E+01 0.73933602384E+01 0.82008120120E+01
 0.94123749338E+01 0.11101399506E+02 0.19384864969E+02 0.24279569005E+02 0.29129176439E+02
 0.33014798713E+02 0.35168882783E+02 0.35169020153E+02 0.33014855250E+02 0.29128704099E+02
 0.24278903072E+02 0.19384831912E+02 0.15213170999E+02 0.12084701515E+02 0.98304147268E+01
 0.83011580235E+01 0.73482893330E+01 0.67918337457E+01 0.64836750153E+01 0.63248800502E+01
 0.62584647148E+01 0.62585839128E+01 0.63249716266E+01 0.64834050627E+01 0.67914119890E+01
 0.73481644998E+01 0.83012308136E+01 0.98300787734E+01 0.12083784695E+02 0.15212366962E+02
 0.31719114905E+02 0.39839080326E+02 0.46861291268E+02 0.51576384031E+02 0.53230762626E+02
 0.51576725503E+02 0.46861004170E+02 0.39837635759E+02 0.31717285274E+02 0.23908363806E+02
 0.17559491500E+02 0.13126316427E+02 0.10249767948E+02 0.84096427230E+01 0.73315980460E+01
 0.67480511569E+01 0.64552850107E+01 0.63249843667E+01 0.62887366490E+01 0.63249715770E+01
 0.64551494956E+01 0.67478766605E+01 0.73316160646E+01 0.84097841945E+01 0.10249626543E+02
 0.13125830360E+02 0.17559368452E+02 0.23909360580E+02 0.51970268894E+02 0.62938759773E+02
 0.71090872452E+02 0.75382991088E+02 0.75383229725E+02 0.71091295064E+02 0.62938784495E+02
 0.51969613799E+02 0.39883034651E+02 0.28660537967E+02 0.19865730332E+02 0.14035303872E+02
 0.10560714654E+02 0.84785886453E+01 0.73278011743E+01 0.67478003517E+01 0.64835318082E+01
 0.63853085413E+01 0.63852188509E+01 0.64834049916E+01 0.67478766383E+01 0.73280966724E+01
 0.84788560744E+01 0.10560762141E+02 0.14035291005E+02 0.19866051338E+02 0.28661374521E+02
 0.39884071017E+02 0.78863236654E+02 0.90852680909E+02 0.98284719236E+02 0.10077295044E+03
 0.98284904656E+02 0.90853514917E+02 0.78864688692E+02 0.63589956181E+02 0.47302254186E+02
 0.32642845261E+02 0.21567795718E+02 0.14571993801E+02 0.10675699991E+02 0.84786408079E+01
 0.73312917224E+01 0.67914098231E+01 0.65691446986E+01 0.65107720367E+01 0.65689349439E+01
 0.67914119401E+01 0.73316160649E+01 0.84788561024E+01 0.10675543720E+02 0.14571880791E+02
 0.21568199371E+02 0.32643413744E+02 0.47302081297E+02 0.63588759803E+02 0.10789904524E+03
 0.11833911756E+03 0.12335816990E+03 0.12335786455E+03 0.11833882733E+03 0.10789974846E+03
 0.92156444572E+02 0.72678869525E+02 0.52482242045E+02 0.34915315416E+02 0.22195738033E+02
 0.14572141043E+02 0.10561002134E+02 0.84097458138E+01 0.73480661059E+01 0.68819139742E+01
 0.67150044982E+01 0.67149407109E+01 0.68818654892E+01 0.73481645302E+01 0.84097842886E+01
 0.10560762302E+02 0.14571880960E+02 0.22195887813E+02 0.34915664790E+02 0.52481939818E+02
 0.72677522724E+02 0.92154846577E+02 0.13309152460E+03 0.14000422548E+03 0.14207779187E+03
 0.14000319788E+03 0.13309032155E+03 0.12008236456E+03 0.10087886495E+03 0.77648370711E+02
 0.54339600737E+02 0.34915439222E+02 0.21568032550E+02 0.14035366518E+02 0.10249815462E+02
 0.83013173619E+01 0.73932914824E+01 0.70251413690E+01 0.69296201946E+01 0.70252426620E+01
 0.73933603078E+01 0.83012309862E+01 0.10249626834E+02 0.14035291453E+02 0.21568199878E+02
 0.34915665090E+02 0.54339541761E+02 0.77647992747E+02 0.10087865984E+03 0.12008290121E+03
 0.14994802960E+03 0.15304029157E+03 0.15304008017E+03 0.14994737214E+03 0.14173928613E+03
 0.12633571768E+03 0.10390473355E+03 0.77647858160E+02 0.52482011657E+02 0.32643377103E+02
 0.19865896894E+02 0.13125738007E+02 0.98300999410E+01 0.82008238836E+01 0.74862752363E+01
 0.72306794397E+01 0.72307262643E+01 0.74863391100E+01 0.82008122334E+01 0.98300791436E+01
 0.13125830947E+02 0.19866052159E+02 0.32643414528E+02 0.52481940099E+02 0.77647992440E+02
 0.10390536943E+03 0.12633675844E+03 0.14174031012E+03 0.15779169169E+03 0.15843718773E+03
 0.15779293011E+03 0.15428509415E+03 0.14453849202E+03 0.12633613717E+03 0.10087831253E+03
 0.72677861198E+02 0.47302601122E+02 0.28661517407E+02 0.17559191145E+02 0.12083658538E+02
 0.94124063658E+01 0.81567814337E+01 0.76454466394E+01 0.75121367087E+01 0.76454775435E+01
 0.81567517955E+01 0.94123753070E+01 0.12083785279E+02 0.17559369323E+02 0.28661375510E+02
 0.47302081774E+02 0.72677521943E+02 0.10087865779E+03 0.12633675640E+03 0.14453835843E+03
 0.15428389477E+03 0.15965932812E+03 0.15966031445E+03 0.15896120731E+03 0.15428532971E+03
 0.14174062412E+03 0.12008293284E+03 0.92155359484E+02 0.63589481033E+02 0.39884347850E+02
 0.23909191253E+02 0.15212279294E+02 0.11101581681E+02 0.90926382544E+01 0.82039681678E+01
 0.78840662410E+01 0.78841892089E+01 0.82041081351E+01 0.90925209678E+01 0.11101399988E+02
 0.15212367684E+02 0.23909361487E+02 0.39884071555E+02 0.63588758884E+02 0.92154843297E+02
 0.12008289589E+03 0.14174030463E+03 0.15428389149E+03 0.15895917006E+03 0.15952855734E+03
 0.15923161274E+03 0.15662305607E+03 0.14795284713E+03 0.13055683701E+03 0.10531311259E+03
 0.76676664535E+02 0.50424647563E+02 0.30811328106E+02 0.18945160108E+02 0.13058110837E+02
 0.10226241217E+02 0.88848935514E+01 0.83353266559E+01 0.81915597239E+01 0.83354601518E+01
 0.88849405388E+01 0.10226104053E+02 0.13057985270E+02 0.18945268819E+02 0.30811591980E+02
 0.50424763751E+02 0.76676482413E+02 0.10531279894E+03 0.13055664648E+03 0.14795284548E+03
 0.15662313124E+03 0.15923166157E+03 0.15923161497E+03 0.15750222427E+03 0.15134926557E+03
 0.13767030921E+03 0.11575511606E+03 0.88483655279E+02 0.61117819382E+02 0.38667690757E+02
 0.23654583913E+02 0.15518116512E+02 0.11646347271E+02 0.97357971185E+01 0.88867136291E+01
 0.85801172685E+01 0.85799913389E+01 0.88865608956E+01 0.97358872912E+01 0.11646496617E+02
 0.15518017730E+02 0.23654451556E+02 0.38668046981E+02 0.61118612461E+02 0.88484166253E+02
 0.11575503953E+03 0.13767043679E+03 0.15135050366E+03 0.15750411854E+03 0.15923255058E+03
 0.15662306222E+03 0.15134926914E+03 0.13983596841E+03 0.12081805466E+03 0.95842705912E+02
 0.69096665460E+02 0.45483292163E+02 0.28331138920E+02 0.18183065653E+02 0.13168610577E+02
 0.10680195768E+02 0.94981403437E+01 0.90133850125E+01 0.88865866932E+01 0.90131073789E+01
 0.94980758191E+01 0.10680452794E+02 0.13168668049E+02 0.18182649767E+02 0.28330808608E+02
 0.45483661634E+02 0.69097391967E+02 0.95842914265E+02 0.12081769845E+03 0.13983603117E+03
 0.15135032182E+03 0.15662423671E+03 0.15800461487E+03 0.14795285631E+03 0.13767031528E+03
 0.12081805712E+03 0.98315152833E+02 0.73310032996E+02 0.50071197957E+02 0.32085639511E+02
 0.20629503036E+02 0.14608325451E+02 0.11619019099E+02 0.10117720970E+02 0.94527379140E+01
 0.92145164044E+01 0.92144848107E+01 0.94527167200E+01 0.10117794758E+02 0.11619096437E+02
 0.14608220402E+02 0.20629195967E+02 0.32085331509E+02 0.50071050270E+02 0.73309937795E+02
 0.98314849616E+02 0.12081744377E+03 0.13766956981E+03 0.14795227242E+03 0.15253852880E+03
 0.15253874481E+03 0.13055684641E+03 0.11575512220E+03 0.95842708838E+02 0.73310033838E+02
 0.51683173354E+02 0.34170079823E+02 0.22357427936E+02 0.15761728296E+02 0.12423266017E+02
 0.10676382479E+02 0.98546439936E+01 0.95223486501E+01 0.94371293368E+01 0.95224373417E+01
 0.98546704849E+01 0.10676371906E+02 0.12423422076E+02 0.15762008987E+02 0.22357442151E+02
 0.34169649914E+02 0.51682743233E+02 0.73310122370E+02 0.95843049727E+02 0.11575483731E+03
 0.13055564897E+03 0.13932412170E+03 0.14218177633E+03 0.13932530482E+03 0.10531311946E+03
 0.88483659488E+02 0.69096667421E+02 0.50071198599E+02 0.34170079944E+02 0.22981179983E+02
 0.16409414655E+02 0.12966780913E+02 0.11100634445E+02 0.10176857239E+02 0.97767447294E+01
 0.96383986081E+01 0.96384493344E+01 0.97767513735E+01 0.10176704335E+02 0.11100590380E+02
 0.12967132880E+02 0.16409898251E+02 0.22981252603E+02 0.34169804830E+02 0.50071355628E+02
 0.69097698459E+02 0.88484890580E+02 0.10531351358E+03 0.11741218757E+03 0.12365020840E+03
 0.12365057874E+03 0.11741267222E+03 0.76676667837E+02 0.61117821175E+02 0.45483292892E+02
 0.32085639723E+02 0.22357427980E+02 0.16409414661E+02 0.13158968155E+02 0.11329963591E+02
 0.10385096106E+02 0.99556237889E+01 0.97917615799E+01 0.97525520685E+01 0.97918687422E+01
 0.99555312298E+01 0.10384729005E+02 0.11329685880E+02 0.13159085236E+02 0.16409710826E+02
 0.22357472703E+02 0.32085450611E+02 0.45483386033E+02 0.61118556261E+02 0.76677792655E+02
 0.89716654487E+02 0.98300287472E+02 0.10128329115E+03 0.98299802251E+02 0.89715694405E+02
 0.50424648090E+02 0.38667690901E+02 0.28331138897E+02 0.20629502994E+02 0.15761728273E+02
 0.12966780898E+02 0.11329963580E+02 0.10457157658E+02 0.10047487831E+02 0.98855563107E+01
 0.98373787157E+01 0.98374878835E+01 0.98857257144E+01 0.10047421363E+02 0.10456769997E+02
 0.11329512588E+02 0.12966589761E+02 0.15761766783E+02 0.20629342808E+02 0.28330440320E+02
 0.38666715210E+02 0.50424127105E+02 0.61724036045E+02 0.70585508489E+02 0.75438822304E+02
 0.75438373748E+02 0.70584637469E+02 0.61723657646E+02 0.30811327370E+02 0.23654583426E+02
 0.18183065375E+02 0.14608325307E+02 0.12423265938E+02 0.11100634395E+02 0.10385096076E+02
 0.10047487821E+02 0.99169307608E+01 0.98814497758E+01 0.98767451513E+01 0.98815273068E+01
 0.99171929726E+01 0.10047798835E+02 0.10385103352E+02 0.11100293203E+02 0.12423012095E+02
 0.14608442706E+02 0.18183114320E+02 0.23653874217E+02 0.30809921513E+02 0.38691504113E+02
 0.45870775282E+02 0.50891942659E+02 0.52693959145E+02 0.50891744657E+02 0.45871108464E+02
 0.38692707434E+02 0.18945159190E+02 0.15518115954E+02 0.13168610249E+02 0.11619018902E+02
 0.10676382359E+02 0.10176857173E+02 0.99556237628E+01 0.98855563080E+01 0.98814497794E+01
 0.98916057797E+01 0.98914734568E+01 0.98813664627E+01 0.98859324863E+01 0.99562321287E+01
 0.10177109005E+02 0.10676243241E+02 0.11619130303E+02 0.13169343777E+02 0.15518930527E+02
 0.18945235647E+02 0.23280607566E+02 0.27846557265E+02 0.31680147250E+02 0.33870298517E+02
 0.33870396922E+02 0.31680598596E+02 0.27847416418E+02 0.23281339523E+02 0.13058110090E+02
 0.11646346779E+02 0.10680195449E+02 0.10117720777E+02 0.98546438971E+01 0.97767447013E+01
 0.97917615878E+01 0.98373787327E+01 0.98767451634E+01 0.98914734617E+01 0.98763394399E+01
 0.98370470266E+01 0.97918505320E+01 0.97770671774E+01 0.98548057575E+01 0.10117698274E+02
 0.10680382252E+02 0.11647035341E+02 0.13059099137E+02 0.14937101671E+02 0.17178411037E+02
 0.19383970199E+02 0.21013625487E+02 0.21615225593E+02 0.21013807754E+02 0.19384082759E+02
 0.17178123821E+02 0.14936310319E+02 0.10226240663E+02 0.97357967410E+01 0.94981401217E+01
 0.94527378224E+01 0.95223486486E+01 0.96383986484E+01 0.97525521124E+01 0.98374879133E+01
 0.98815273218E+01 0.98813664694E+01 0.98370470301E+01 0.97520178424E+01 0.96380675687E+01
 0.95223113811E+01 0.94526749272E+01 0.94976872432E+01 0.97351279773E+01 0.10226013904E+02
 0.10979193676E+02 0.11923157975E+02 0.12920360597E+02 0.13788201392E+02 0.14300264133E+02
 0.14300400735E+02 0.13788266553E+02 0.12919850784E+02 0.11922237102E+02 0.10978619580E+02
 0.88848932154E+01 0.88867134476E+01 0.90133849672E+01 0.92145164500E+01 0.94371294173E+01
 0.96384494066E+01 0.97918687880E+01 0.98857257366E+01 0.99171929828E+01 0.98859324949E+01
 0.97918505439E+01 0.96380675808E+01 0.94367899575E+01 0.92144926328E+01 0.90132835079E+01
 0.88860101814E+01 0.88837948915E+01 0.90376831563E+01 0.93406052069E+01 0.97387537550E+01
 0.10139638263E+02 0.10437403647E+02 0.10547601245E+02 0.10437704633E+02 0.10139729443E+02
 0.97384933848E+01 0.93405739121E+01 0.90383898338E+01 0.83353265531E+01 0.85801172736E+01
 0.88865867639E+01 0.92144848970E+01 0.95224374088E+01 0.97767514105E+01 0.99555312442E+01
 0.10047421369E+02 0.10047798844E+02 0.99562321508E+01 0.97770672130E+01 0.95223114223E+01
 0.92144926629E+01 0.88870508304E+01 0.85806334150E+01 0.83353165566E+01 0.81808122244E+01
 0.81279458260E+01 0.81643757460E+01 0.82563719365E+01 0.83573156305E+01 0.84218883601E+01
 0.84219497419E+01 0.83574343487E+01 0.82565211060E+01 0.81647185787E+01 0.81285603061E+01
 0.81813639001E+01 0.81915597213E+01 0.85799913578E+01 0.90131073916E+01 0.94527167144E+01
 0.98546704661E+01 0.10176704317E+02 0.10384728999E+02 0.10456770010E+02 0.10385103390E+02
 0.10177109069E+02 0.98548058417E+01 0.94526750177E+01 0.90132835843E+01 0.85806334585E+01
 0.81924484311E+01 0.78739827371E+01 0.76356826684E+01 0.74748202782E+01 0.73791723069E+01
 0.73310675535E+01 0.73118374793E+01 0.73070921257E+01 0.73115434456E+01 0.73308333532E+01
 0.73792599852E+01 0.74750466892E+01 0.76355908791E+01 0.78733519084E+01 0.83354600289E+01
 0.88865607462E+01 0.94980756677E+01 0.10117794634E+02 0.10676371832E+02 0.11100590362E+02
 0.11329685913E+02 0.11329512664E+02 0.11100293314E+02 0.10676243381E+02 0.10117698431E+02
 0.94976873982E+01 0.88860103129E+01 0.83353166476E+01 0.78739827801E+01 0.75079347331E+01
 0.72289080181E+01 0.70236753622E+01 0.68799965605E+01 0.67887713087E+01 0.67442863991E+01
 0.67440416790E+01 0.67883508232E+01 0.68798526230E+01 0.70236940691E+01 0.72285957970E+01
 0.75072337993E+01 0.78734706136E+01 0.88849401930E+01 0.97358869553E+01 0.10680452532E+02
 0.11619096289E+02 0.12423422051E+02 0.12967132958E+02 0.13159085385E+02 0.12966589954E+02
 0.12423012317E+02 0.11619130543E+02 0.10680382496E+02 0.97351282059E+01 0.88837950819E+01
 0.81808123598E+01 0.76356827437E+01 0.72289080433E+01 0.69314336567E+01 0.67180809927E+01
 0.65725544773E+01 0.64868243038E+01 0.64582734105E+01 0.64866801353E+01 0.65725859978E+01
 0.67183196299E+01 0.69314885035E+01 0.72286412696E+01 0.76356215813E+01 0.81814987868E+01
 0.10226103546E+02 0.11646496199E+02 0.13168667799E+02 0.14608220357E+02 0.15762009129E+02
 0.16409898518E+02 0.16409711149E+02 0.15761767118E+02 0.14608443043E+02 0.13169344121E+02
 0.11647035686E+02 0.10226014223E+02 0.90376834144E+01 0.81279460006E+01 0.74748203671E+01
 0.70236753843E+01 0.67180809835E+01 0.65155718533E+01 0.63904538056E+01 0.63301943624E+01
 0.63302921288E+01 0.63907048503E+01 0.65158498774E+01 0.67182561542E+01 0.70237903414E+01
 0.74751104344E+01 0.81285332855E+01 0.90382749811E+01 0.13057984676E+02 0.15518017324E+02
 0.18182649668E+02 0.20629196202E+02 0.22357442630E+02 0.22981253171E+02 0.22357473233E+02
 0.20629343270E+02 0.18183114760E+02 0.15518930993E+02 0.13059099624E+02 0.10979194127E+02
 0.93406055541E+01 0.81643759553E+01 0.73791723870E+01 0.68799965505E+01 0.65725544290E+01
 0.63904537664E+01 0.62942493882E+01 0.62642860723E+01 0.62945423335E+01 0.63906209889E+01
 0.65723829866E+01 0.68798016461E+01 0.73793269543E+01 0.81647118362E+01 0.93405440058E+01
 0.10978440425E+02 0.18945268198E+02 0.23654451363E+02 0.28330809007E+02 0.32085332422E+02
 0.34169651043E+02 0.34169805845E+02 0.32085451361E+02 0.28330440885E+02 0.23653874780E+02
 0.18945236314E+02 0.14937102399E+02 0.11923158631E+02 0.97387542209E+01 0.82563721763E+01
 0.73310676083E+01 0.67887712521E+01 0.64868242067E+01 0.63301942767E+01 0.62642860261E+01
 0.62644018604E+01 0.63302845378E+01 0.64865616472E+01 0.67883501828E+01 0.73309260919E+01
 0.82564420365E+01 0.97384773713E+01 0.11922357390E+02 0.14936392861E+02 0.30811591675E+02
 0.38668047625E+02 0.45483663292E+02 0.50071052513E+02 0.51682745367E+02 0.50071357148E+02
 0.45483386918E+02 0.38666715831E+02 0.30809922268E+02 0.23280608578E+02 0.17178412139E+02
 0.12920361532E+02 0.10139638868E+02 0.83573158985E+01 0.73118375096E+01 0.67442863069E+01
 0.64582732807E+01 0.63302920118E+01 0.62945422549E+01 0.63302845044E+01 0.64581459694E+01
 0.67441156821E+01 0.73118549907E+01 0.83574734977E+01 0.10139551623E+02 0.12919943089E+02
 0.17178297245E+02 0.23281505838E+02 0.50424764647E+02 0.61118615030E+02 0.69097395826E+02
 0.73309941860E+02 0.73310125497E+02 0.69097700172E+02 0.61118556972E+02 0.50424127667E+02
 0.38691505135E+02 0.27846558762E+02 0.19383971772E+02 0.13788202631E+02 0.10437404384E+02
 0.84218886569E+01 0.73070921536E+01 0.67440415840E+01 0.64866800042E+01 0.63907047312E+01
 0.63906209088E+01 0.64865616136E+01 0.67441156816E+01 0.73073799176E+01 0.84221617936E+01
 0.10437473120E+02 0.13788194159E+02 0.19384240176E+02 0.27847287926E+02 0.38692440928E+02
 0.76676485616E+02 0.88484171646E+02 0.95842920630E+02 0.98314855095E+02 0.95843052970E+02
 0.88484891581E+02 0.76677792597E+02 0.61724036328E+02 0.45870776571E+02 0.31680149263E+02
 0.21013627502E+02 0.14300265613E+02 0.10547602069E+02 0.84219500715E+01 0.73115435031E+01
 0.67883507590E+01 0.65725858950E+01 0.65158497921E+01 0.65723829523E+01 0.67883502017E+01
 0.73118550435E+01 0.84221618513E+01 0.10547453005E+02 0.14300137317E+02 0.21013971716E+02
 0.31680653929E+02 0.45870609414E+02 0.61722941677E+02 0.10531280484E+03 0.11575504743E+03
 0.12081770616E+03 0.12081744891E+03 0.11575483889E+03 0.10531351255E+03 0.89716652963E+02
 0.70585508242E+02 0.50891944114E+02 0.33870300909E+02 0.21615227870E+02 0.14300402308E+02
 0.10437705481E+02 0.83574347122E+01 0.73308334600E+01 0.68798526042E+01 0.67183195763E+01
 0.67182561442E+01 0.68798017155E+01 0.73309262267E+01 0.83574736781E+01 0.10437473336E+02
 0.14300137503E+02 0.21615350553E+02 0.33870637366E+02 0.50891698623E+02 0.70584283150E+02
 0.89715154196E+02 0.13055665392E+03 0.13767044521E+03 0.13983603765E+03 0.13766957208E+03
 0.13055564696E+03 0.11741218346E+03 0.98300284109E+02 0.75438821426E+02 0.52693960618E+02
 0.33870399426E+02 0.21013810015E+02 0.13788268044E+02 0.10139730252E+02 0.82565214920E+01
 0.73792601316E+01 0.70236940882E+01 0.69314885161E+01 0.70237904498E+01 0.73793271785E+01
 0.82564423454E+01 0.10139552018E+02 0.13788194658E+02 0.21013972218E+02 0.33870637642E+02
 0.52693951943E+02 0.75438506399E+02 0.98300081552E+02 0.11741260576E+03 0.14795285213E+03
 0.15135050982E+03 0.15135032440E+03 0.14795226986E+03 0.13932411521E+03 0.12365020117E+03
 0.10128328627E+03 0.75438372422E+02 0.50891746023E+02 0.31680600912E+02 0.19384084742E+02
 0.12919852061E+02 0.97384941092E+01 0.81647189565E+01 0.74750468388E+01 0.72285958397E+01
 0.72286413681E+01 0.74751106907E+01 0.81647122373E+01 0.97384778875E+01 0.12919943761E+02
 0.19384240995E+02 0.31680654646E+02 0.50891698843E+02 0.75438506095E+02 0.10128386770E+03
 0.12365114125E+03 0.13932503193E+03 0.15662313503E+03 0.15750412063E+03 0.15662423434E+03
 0.15253852146E+03 0.14218176631E+03 0.12365056968E+03 0.98299796845E+02 0.70584636102E+02
 0.45871109655E+02 0.27847418321E+02 0.17178125374E+02 0.11922238115E+02 0.93405745258E+01
 0.81285606295E+01 0.76355909908E+01 0.75072338610E+01 0.76356217802E+01 0.81285336858E+01
 0.93405445608E+01 0.11922358094E+02 0.17178298135E+02 0.27847288827E+02 0.45870609770E+02
 0.70584282357E+02 0.98300079685E+02 0.12365113948E+03 0.14218168334E+03 0.15253747491E+03
 0.15923166238E+03 0.15923254917E+03 0.15800460903E+03 0.15253873493E+03 0.13932529375E+03
 0.11741266337E+03 0.89715689664E+02 0.61723656625E+02 0.38692708412E+02 0.23281340916E+02
 0.14936311427E+02 0.10978620343E+02 0.90383903174E+01 0.81813641242E+01 0.78733519611E+01
 0.78734707023E+01 0.81814990789E+01 0.90382754771E+01 0.10978441059E+02 0.14936393637E+02
 0.23281506669E+02 0.38692441306E+02 0.61722940684E+02 0.89715151156E+02 0.11741260111E+03
 0.13932502738E+03 0.15253747238E+03 0.15800278879E+03 0.15786399112E+03 0.15680216988E+03
 0.15229665683E+03 0.14156010798E+03 0.12291813241E+03 0.97764645582E+02 0.70419536510E+02
 0.46066238381E+02 0.28282878902E+02 0.17730521257E+02 0.12527611229E+02 0.99726648395E+01
 0.87678441499E+01 0.82768577658E+01 0.81490920625E+01 0.82769775248E+01 0.87678859441E+01
 0.99725410643E+01 0.12527498533E+02 0.17730621158E+02 0.28283121126E+02 0.46066349239E+02
 0.70419376872E+02 0.97764362187E+02 0.12291795455E+03 0.14156009849E+03 0.15229671860E+03
 0.15680221120E+03 0.15680217249E+03 0.15377856427E+03 0.14571781545E+03 0.13048899993E+03
 0.10811807977E+03 0.81648302677E+02 0.55950324828E+02 0.35385998389E+02 0.21921105055E+02
 0.14735145234E+02 0.11271968130E+02 0.95528642117E+01 0.87931835758E+01 0.85206592257E+01
 0.85205463290E+01 0.87930471355E+01 0.95529494066E+01 0.11272113765E+02 0.14735069926E+02
 0.21920991730E+02 0.35386328568E+02 0.55951089660E+02 0.81648859975E+02 0.10811806283E+03
 0.13048897839E+03 0.14571856953E+03 0.15377985975E+03 0.15680283305E+03 0.15229666311E+03
 0.14571781886E+03 0.13287360233E+03 0.11324824099E+03 0.88750524968E+02 0.63407159305E+02