   2   2   0   0
  0.2249649E+02  0.3202730E-09  0.3202730E-09  0.5064930E-09  0.5000000E-15
  1.000000000000000E-004
  CAR 
 Hf                                      
     22.61578332    -33.04903023  301      4.90073877      1.00000000
    -33.049  0.0000E+00  0.0000E+00
    -32.863  0.0000E+00  0.0000E+00
    -32.678  0.0000E+00  0.0000E+00
    -32.492  0.0000E+00  0.0000E+00
    -32.307  0.0000E+00  0.0000E+00
    -32.121  0.0000E+00  0.0000E+00
    -31.936  0.0000E+00  0.0000E+00
    -31.750  0.0000E+00  0.0000E+00
    -31.565  0.0000E+00  0.0000E+00
    -31.379  0.0000E+00  0.0000E+00
    -31.194  0.0000E+00  0.0000E+00
    -31.008  0.0000E+00  0.0000E+00
    -30.822  0.0000E+00  0.0000E+00
    -30.637  0.1096E-02  0.2033E-03
    -30.451  0.1219E+02  0.2262E+01
    -30.266  0.8944E+01  0.3921E+01
    -30.080  0.4256E+00  0.4000E+01
    -29.895  0.6131E-06  0.4000E+01
    -29.709  0.0000E+00  0.4000E+01
    -29.524  0.0000E+00  0.4000E+01
    -29.338  0.0000E+00  0.4000E+01
    -29.152  0.0000E+00  0.4000E+01
    -28.967  0.0000E+00  0.4000E+01
    -28.781  0.0000E+00  0.4000E+01
    -28.596  0.0000E+00  0.4000E+01
    -28.410  0.0000E+00  0.4000E+01
    -28.225  0.0000E+00  0.4000E+01
    -28.039  0.0000E+00  0.4000E+01
    -27.854  0.0000E+00  0.4000E+01
    -27.668  0.0000E+00  0.4000E+01
    -27.483  0.0000E+00  0.4000E+01
    -27.297  0.0000E+00  0.4000E+01
    -27.111  0.0000E+00  0.4000E+01
    -26.926  0.0000E+00  0.4000E+01
    -26.740  0.0000E+00  0.4000E+01
    -26.555  0.0000E+00  0.4000E+01
    -26.369  0.0000E+00  0.4000E+01
    -26.184  0.0000E+00  0.4000E+01
    -25.998  0.0000E+00  0.4000E+01
    -25.813  0.0000E+00  0.4000E+01
    -25.627  0.0000E+00  0.4000E+01
    -25.442  0.0000E+00  0.4000E+01
    -25.256  0.0000E+00  0.4000E+01
    -25.070  0.0000E+00  0.4000E+01
    -24.885  0.0000E+00  0.4000E+01
    -24.699  0.0000E+00  0.4000E+01
    -24.514  0.0000E+00  0.4000E+01
    -24.328  0.0000E+00  0.4000E+01
    -24.143  0.0000E+00  0.4000E+01
    -23.957  0.1344E-03  0.4000E+01
    -23.772  0.4235E+01  0.4786E+01
    -23.586  0.1285E+02  0.7171E+01
    -23.400  0.9913E+01  0.9010E+01
    -23.215  0.1258E+02  0.1134E+02
    -23.029  0.3526E+01  0.1200E+02
    -22.844  0.7250E-02  0.1200E+02
    -22.658  0.0000E+00  0.1200E+02
    -22.473  0.0000E+00  0.1200E+02
    -22.287  0.0000E+00  0.1200E+02
    -22.102  0.0000E+00  0.1200E+02
    -21.916  0.0000E+00  0.1200E+02
    -21.731  0.0000E+00  0.1200E+02
    -21.545  0.0000E+00  0.1200E+02
    -21.359  0.0000E+00  0.1200E+02
    -21.174  0.0000E+00  0.1200E+02
    -20.988  0.0000E+00  0.1200E+02
    -20.803  0.0000E+00  0.1200E+02
    -20.617  0.0000E+00  0.1200E+02
    -20.432  0.0000E+00  0.1200E+02
    -20.246  0.0000E+00  0.1200E+02
    -20.061  0.0000E+00  0.1200E+02
    -19.875  0.0000E+00  0.1200E+02
    -19.689  0.0000E+00  0.1200E+02
    -19.504  0.0000E+00  0.1200E+02
    -19.318  0.0000E+00  0.1200E+02
    -19.133  0.0000E+00  0.1200E+02
    -18.947  0.0000E+00  0.1200E+02
    -18.762  0.0000E+00  0.1200E+02
    -18.576  0.0000E+00  0.1200E+02
    -18.391  0.0000E+00  0.1200E+02
    -18.205  0.0000E+00  0.1200E+02
    -18.020  0.0000E+00  0.1200E+02
    -17.834  0.0000E+00  0.1200E+02
    -17.648  0.0000E+00  0.1200E+02
    -17.463  0.0000E+00  0.1200E+02
    -17.277  0.0000E+00  0.1200E+02
    -17.092  0.0000E+00  0.1200E+02
    -16.906  0.0000E+00  0.1200E+02
    -16.721  0.0000E+00  0.1200E+02
    -16.535  0.0000E+00  0.1200E+02
    -16.350  0.0000E+00  0.1200E+02
    -16.164  0.0000E+00  0.1200E+02
    -15.978  0.0000E+00  0.1200E+02
    -15.793  0.0000E+00  0.1200E+02
    -15.607  0.0000E+00  0.1200E+02
    -15.422  0.0000E+00  0.1200E+02
    -15.236  0.0000E+00  0.1200E+02
    -15.051  0.0000E+00  0.1200E+02
    -14.865  0.0000E+00  0.1200E+02
    -14.680  0.0000E+00  0.1200E+02
    -14.494  0.0000E+00  0.1200E+02
    -14.309  0.0000E+00  0.1200E+02
    -14.123  0.0000E+00  0.1200E+02
    -13.937  0.0000E+00  0.1200E+02
    -13.752  0.0000E+00  0.1200E+02
    -13.566  0.0000E+00  0.1200E+02
    -13.381  0.0000E+00  0.1200E+02
    -13.195  0.0000E+00  0.1200E+02
    -13.010  0.0000E+00  0.1200E+02
    -12.824  0.0000E+00  0.1200E+02
    -12.639  0.0000E+00  0.1200E+02
    -12.453  0.0000E+00  0.1200E+02
    -12.267  0.0000E+00  0.1200E+02
    -12.082  0.0000E+00  0.1200E+02
    -11.896  0.0000E+00  0.1200E+02
    -11.711  0.0000E+00  0.1200E+02
    -11.525  0.0000E+00  0.1200E+02
    -11.340  0.0000E+00  0.1200E+02
    -11.154  0.0000E+00  0.1200E+02
    -10.969  0.0000E+00  0.1200E+02
    -10.783  0.0000E+00  0.1200E+02
    -10.598  0.0000E+00  0.1200E+02
    -10.412  0.0000E+00  0.1200E+02
    -10.226  0.0000E+00  0.1200E+02
    -10.041  0.0000E+00  0.1200E+02
     -9.855  0.0000E+00  0.1200E+02
     -9.670  0.0000E+00  0.1200E+02
     -9.484  0.0000E+00  0.1200E+02
     -9.299  0.0000E+00  0.1200E+02
     -9.113  0.0000E+00  0.1200E+02
     -8.928  0.0000E+00  0.1200E+02
     -8.742  0.0000E+00  0.1200E+02
     -8.557  0.0000E+00  0.1200E+02
     -8.371  0.0000E+00  0.1200E+02
     -8.185  0.0000E+00  0.1200E+02
     -8.000  0.0000E+00  0.1200E+02
     -7.814  0.0000E+00  0.1200E+02
     -7.629  0.0000E+00  0.1200E+02
     -7.443  0.0000E+00  0.1200E+02
     -7.258  0.0000E+00  0.1200E+02
     -7.072  0.0000E+00  0.1200E+02
     -6.887  0.0000E+00  0.1200E+02
     -6.701  0.0000E+00  0.1200E+02
     -6.515  0.0000E+00  0.1200E+02
     -6.330  0.0000E+00  0.1200E+02
     -6.144  0.0000E+00  0.1200E+02
     -5.959  0.0000E+00  0.1200E+02
     -5.773  0.0000E+00  0.1200E+02
     -5.588  0.0000E+00  0.1200E+02
     -5.402  0.0000E+00  0.1200E+02
     -5.217  0.0000E+00  0.1200E+02
     -5.031  0.0000E+00  0.1200E+02
     -4.846  0.0000E+00  0.1200E+02
     -4.660  0.0000E+00  0.1200E+02
     -4.474  0.0000E+00  0.1200E+02
     -4.289  0.0000E+00  0.1200E+02
     -4.103  0.0000E+00  0.1200E+02
     -3.918  0.0000E+00  0.1200E+02
     -3.732  0.0000E+00  0.1200E+02
     -3.547  0.0000E+00  0.1200E+02
     -3.361  0.0000E+00  0.1200E+02
     -3.176  0.0000E+00  0.1200E+02
     -2.990  0.0000E+00  0.1200E+02
     -2.804  0.0000E+00  0.1200E+02
     -2.619  0.1320E-05  0.1200E+02
     -2.433  0.1955E-01  0.1200E+02
     -2.248  0.4340E-01  0.1201E+02
     -2.062  0.1342E-01  0.1201E+02
     -1.877  0.2873E+00  0.1207E+02
     -1.691  0.1205E+00  0.1209E+02
     -1.506  0.6172E-01  0.1210E+02
     -1.320  0.1960E+00  0.1214E+02
     -1.135  0.1309E+00  0.1216E+02
     -0.949  0.2851E+00  0.1221E+02
     -0.763  0.3428E+00  0.1228E+02
     -0.578  0.5407E+00  0.1238E+02
     -0.392  0.7371E-01  0.1239E+02
     -0.207  0.2248E+00  0.1243E+02
     -0.021  0.4986E+00  0.1253E+02
      0.164  0.1524E+00  0.1255E+02
      0.350  0.5867E+00  0.1266E+02
      0.535  0.3861E+00  0.1274E+02
      0.721  0.1059E+01  0.1293E+02
      0.907  0.8585E+00  0.1309E+02
      1.092  0.6864E+00  0.1322E+02
      1.278  0.3850E+00  0.1329E+02
      1.463  0.1347E+01  0.1354E+02
      1.649  0.2494E+01  0.1400E+02
      1.834  0.1222E+01  0.1423E+02
      2.020  0.1052E+01  0.1442E+02
      2.205  0.1520E+01  0.1471E+02
      2.391  0.8941E+00  0.1487E+02
      2.576  0.2846E+01  0.1540E+02
      2.762  0.1450E+01  0.1567E+02
      2.948  0.1365E+01  0.1592E+02
      3.133  0.1555E+01  0.1621E+02
      3.319  0.1949E+01  0.1657E+02
      3.504  0.1984E+01  0.1694E+02
      3.690  0.2346E+01  0.1738E+02
      3.875  0.2554E+01  0.1785E+02
      4.061  0.3413E+01  0.1848E+02
      4.246  0.3390E+01  0.1911E+02
      4.432  0.1652E+01  0.1942E+02
      4.617  0.1238E+01  0.1965E+02
      4.803  0.1538E+01  0.1993E+02
      4.989  0.8145E+00  0.2009E+02
      5.174  0.3458E+01  0.2073E+02
      5.360  0.3483E+01  0.2137E+02
      5.545  0.3385E+01  0.2200E+02
      5.731  0.3198E+01  0.2259E+02
      5.916  0.3898E+01  0.2332E+02
      6.102  0.1800E+01  0.2365E+02
      6.287  0.3530E+01  0.2431E+02
      6.473  0.2554E+01  0.2478E+02
      6.659  0.3257E+01  0.2538E+02
      6.844  0.1757E+01  0.2571E+02
      7.030  0.1692E+01  0.2602E+02
      7.215  0.1218E+01  0.2625E+02
      7.401  0.1260E+01  0.2648E+02
      7.586  0.1362E+01  0.2674E+02
      7.772  0.1455E+01  0.2701E+02
      7.957  0.7414E+00  0.2714E+02
      8.143  0.1007E+01  0.2733E+02
      8.328  0.2401E+01  0.2778E+02
      8.514  0.1204E+01  0.2800E+02
      8.700  0.8488E+00  0.2816E+02
      8.885  0.4496E+00  0.2824E+02
      9.071  0.1843E+01  0.2858E+02
      9.256  0.1330E+01  0.2883E+02
      9.442  0.1007E+01  0.2902E+02
      9.627  0.2545E+01  0.2949E+02
      9.813  0.3154E+01  0.3007E+02
      9.998  0.3295E+01  0.3069E+02
     10.184  0.2269E+01  0.3111E+02
     10.370  0.1633E+01  0.3141E+02
     10.555  0.3523E+01  0.3206E+02
     10.741  0.2375E+01  0.3250E+02
     10.926  0.3558E+01  0.3316E+02
     11.112  0.2010E+01  0.3354E+02
     11.297  0.1972E+01  0.3390E+02
     11.483  0.1260E+01  0.3414E+02
     11.668  0.2642E+01  0.3463E+02
     11.854  0.1839E+01  0.3497E+02
     12.039  0.2323E+00  0.3501E+02
     12.225  0.1558E+01  0.3530E+02
     12.411  0.9441E+00  0.3548E+02
     12.596  0.1123E+01  0.3568E+02
     12.782  0.6095E+00  0.3580E+02
     12.967  0.8679E+00  0.3596E+02
     13.153  0.3225E+00  0.3602E+02
     13.338  0.9411E+00  0.3619E+02
     13.524  0.1547E+01  0.3648E+02
     13.709  0.1337E+01  0.3673E+02
     13.895  0.7219E+00  0.3686E+02
     14.081  0.2255E+01  0.3728E+02
     14.266  0.2012E+01  0.3765E+02
     14.452  0.5981E+00  0.3776E+02
     14.637  0.1379E+01  0.3802E+02
     14.823  0.1176E+01  0.3824E+02
     15.008  0.1016E+01  0.3843E+02
     15.194  0.3044E+00  0.3848E+02
     15.379  0.6974E+00  0.3861E+02
     15.565  0.4063E+00  0.3869E+02
     15.750  0.9871E+00  0.3887E+02
     15.936  0.8287E+00  0.3903E+02
     16.122  0.2266E+01  0.3945E+02
     16.307  0.9685E+00  0.3963E+02
     16.493  0.1002E+01  0.3981E+02
     16.678  0.1956E+01  0.4017E+02
     16.864  0.1758E+01  0.4050E+02
     17.049  0.1069E+01  0.4070E+02
     17.235  0.1345E+01  0.4095E+02
     17.420  0.1192E+01  0.4117E+02
     17.606  0.2791E+01  0.4169E+02
     17.791  0.2038E+02  0.4547E+02
     17.977  0.2279E+01  0.4589E+02
     18.163  0.2524E+01  0.4636E+02
     18.348  0.9234E+00  0.4653E+02
     18.534  0.1203E+01  0.4676E+02
     18.719  0.2001E+01  0.4713E+02
     18.905  0.1109E+01  0.4733E+02
     19.090  0.1490E+01  0.4761E+02
     19.276  0.4330E+00  0.4769E+02
     19.461  0.8563E+00  0.4785E+02
     19.647  0.1014E+00  0.4787E+02
     19.833  0.1769E+00  0.4790E+02
     20.018  0.1311E+00  0.4792E+02
     20.204  0.4078E+00  0.4800E+02
     20.389  0.3007E-04  0.4800E+02
     20.575  0.0000E+00  0.4800E+02
     20.760  0.0000E+00  0.4800E+02
     20.946  0.0000E+00  0.4800E+02
     21.131  0.0000E+00  0.4800E+02
     21.317  0.0000E+00  0.4800E+02
     21.502  0.0000E+00  0.4800E+02
     21.688  0.0000E+00  0.4800E+02
     21.874  0.0000E+00  0.4800E+02
     22.059  0.0000E+00  0.4800E+02
     22.245  0.0000E+00  0.4800E+02
     22.430  0.0000E+00  0.4800E+02
     22.616  0.0000E+00  0.4800E+02
