    2    2    1    1
  0.2249649E+02  0.3202730E-09  0.3202730E-09  0.5064930E-09  0.5000000E-15
  1.000000000000000E-004
  CAR 
 Hf                                      
     20    260     48
 
  0.0000000E+00  0.0000000E+00  0.0000000E+00  0.1953125E-02
      1        -30.480927   1.000000
      2        -30.480908   1.000000
      3        -30.227354   1.000000
      4        -30.227334   1.000000
      5        -23.824108   1.000000
      6        -23.824080   1.000000
      7        -23.240512   1.000000
      8        -23.240473   1.000000
      9        -23.089562   1.000000
     10        -23.089524   1.000000
     11        -23.088249   1.000000
     12        -23.088223   1.000000
     13         -2.483408   1.000000
     14         -2.483255   1.000000
     15          1.185026   1.000000
     16          1.185142   1.000000
     17          5.532699   0.000000
     18          5.532887   0.000000
     19          5.854072   0.000000
     20          5.854124   0.000000
     21          6.233014   0.000000
     22          6.233067   0.000000
     23          6.265106   0.000000
     24          6.265162   0.000000
     25          6.611578   0.000000
     26          6.611619   0.000000
     27          7.072119   0.000000
     28          7.072165   0.000000
     29          7.434423   0.000000
     30          7.434475   0.000000
     31          7.651403   0.000000
     32          7.651458   0.000000
     33         10.007889   0.000000
     34         10.007935   0.000000
     35         10.317665   0.000000
     36         10.317712   0.000000
     37         13.697015   0.000000
     38         13.697072   0.000000
     39         15.947624   0.000000
     40         15.947830   0.000000
     41         17.690649   0.000000
     42         17.690688   0.000000
     43         17.698075   0.000000
     44         17.698114   0.000000
     45         17.980452   0.000000
     46         17.980707   0.000000
     47         19.410397   0.000000
     48         19.410572   0.000000
 
  0.1250000E+00  0.7410294E-17  0.0000000E+00  0.3906250E-02
      1        -30.489295   1.000000
      2        -30.489275   1.000000
      3        -30.255382   1.000000
      4        -30.255362   1.000000
      5        -23.815165   1.000000
      6        -23.815137   1.000000
      7        -23.299842   1.000000
      8        -23.299805   1.000000
      9        -23.174316   1.000000
     10        -23.174279   1.000000
     11        -23.108732   1.000000
     12        -23.108722   1.000000
     13         -2.017952   1.000000
     14         -2.017799   1.000000
     15          1.632107   1.000000
     16          1.632226   1.000000
     17          4.949848   0.082414
     18          4.950011   0.081716
     19          5.184684   0.000000
     20          5.184755   0.000000
     21          6.303932   0.000000
     22          6.303989   0.000000
     23          6.465385   0.000000
     24          6.465440   0.000000
     25          6.748142   0.000000
     26          6.748165   0.000000
     27          7.106870   0.000000
     28          7.106904   0.000000
     29          7.203932   0.000000
     30          7.203951   0.000000
     31          7.397372   0.000000
     32          7.397410   0.000000
     33         10.458017   0.000000
     34         10.458075   0.000000
     35         11.250398   0.000000
     36         11.250474   0.000000
     37         13.773228   0.000000
     38         13.773283   0.000000
     39         17.083626   0.000000
     40         17.083819   0.000000
     41         17.691608   0.000000
     42         17.691648   0.000000
     43         17.699131   0.000000
     44         17.699170   0.000000
     45         18.609998   0.000000
     46         18.610248   0.000000
     47         20.053430   0.000000
     48         20.053531   0.000000
 
  0.1250000E+00  0.1250000E+00  0.0000000E+00  0.3906250E-02
      1        -30.489295   1.000000
      2        -30.489276   1.000000
      3        -30.255382   1.000000
      4        -30.255363   1.000000
      5        -23.815164   1.000000
      6        -23.815138   1.000000
      7        -23.299843   1.000000
      8        -23.299805   1.000000
      9        -23.174311   1.000000
     10        -23.174281   1.000000
     11        -23.108746   1.000000
     12        -23.108711   1.000000
     13         -2.017952   1.000000
     14         -2.017799   1.000000
     15          1.632107   1.000000
     16          1.632226   1.000000
     17          4.949848   0.082413
     18          4.950011   0.081716
     19          5.184685   0.000000
     20          5.184754   0.000000
     21          6.303931   0.000000
     22          6.303987   0.000000
     23          6.465385   0.000000
     24          6.465444   0.000000
     25          6.748149   0.000000
     26          6.748159   0.000000
     27          7.106870   0.000000
     28          7.106903   0.000000
     29          7.203933   0.000000
     30          7.203950   0.000000
     31          7.397375   0.000000
     32          7.397410   0.000000
     33         10.458018   0.000000
     34         10.458074   0.000000
     35         11.250397   0.000000
     36         11.250474   0.000000
     37         13.773227   0.000000
     38         13.773283   0.000000
     39         17.083626   0.000000
     40         17.083818   0.000000
     41         17.691609   0.000000
     42         17.691648   0.000000
     43         17.699132   0.000000
     44         17.699171   0.000000
     45         18.609998   0.000000
     46         18.610247   0.000000
     47         20.053446   0.000000
     48         20.053530   0.000000
 
  0.0000000E+00  0.1250000E+00  0.0000000E+00  0.3906250E-02
      1        -30.489294   1.000000
      2        -30.489275   1.000000
      3        -30.255382   1.000000
      4        -30.255363   1.000000
      5        -23.815165   1.000000
      6        -23.815137   1.000000
      7        -23.299842   1.000000
      8        -23.299805   1.000000
      9        -23.174314   1.000000
     10        -23.174281   1.000000
     11        -23.108740   1.000000
     12        -23.108714   1.000000
     13         -2.017952   1.000000
     14         -2.017799   1.000000
     15          1.632107   1.000000
     16          1.632226   1.000000
     17          4.949848   0.082413
     18          4.950011   0.081716
     19          5.184684   0.000000
     20          5.184755   0.000000
     21          6.303931   0.000000
     22          6.303989   0.000000
     23          6.465385   0.000000
     24          6.465441   0.000000
     25          6.748145   0.000000
     26          6.748162   0.000000
     27          7.106870   0.000000
     28          7.106904   0.000000
     29          7.203932   0.000000
     30          7.203951   0.000000
     31          7.397373   0.000000
     32          7.397409   0.000000
     33         10.458017   0.000000
     34         10.458074   0.000000
     35         11.250398   0.000000
     36         11.250474   0.000000
     37         13.773228   0.000000
     38         13.773283   0.000000
     39         17.083626   0.000000
     40         17.083819   0.000000
     41         17.691608   0.000000
     42         17.691648   0.000000
     43         17.699131   0.000000
     44         17.699170   0.000000
     45         18.609998   0.000000
     46         18.610247   0.000000
     47         20.053439   0.000000
     48         20.053530   0.000000
 
  0.2500000E+00  0.1482059E-16  0.0000000E+00  0.3906250E-02
      1        -30.507435   1.000000
      2        -30.507415   1.000000
      3        -30.326421   1.000000
      4        -30.326400   1.000000
      5        -23.790884   1.000000
      6        -23.790851   1.000000
      7        -23.428912   1.000000
      8        -23.428879   1.000000
      9        -23.375723   1.000000
     10        -23.375687   1.000000
     11        -23.164985   1.000000
     12        -23.164975   1.000000
     13         -0.780817   1.000000
     14         -0.780661   1.000000
     15          2.524050   1.000000
     16          2.524176   1.000000
     17          3.834401   1.000000
     18          3.834537   1.000000
     19          4.342414   1.000000
     20          4.342509   1.000000
     21          5.631079   0.000000
     22          5.631134   0.000000
     23          6.243596   0.000000
     24          6.243680   0.000000
     25          6.465133   0.000000
     26          6.465205   0.000000
     27          7.728854   0.000000
     28          7.728916   0.000000
     29          8.035855   0.000000
     30          8.035914   0.000000
     31          8.475146   0.000000
     32          8.475204   0.000000
     33         10.942690   0.000000
     34         10.942743   0.000000
     35         13.132440   0.000000
     36         13.132527   0.000000
     37         13.394306   0.000000
     38         13.394363   0.000000
     39         17.245030   0.000000
     40         17.245115   0.000000
     41         17.689138   0.000000
     42         17.689176   0.000000
     43         17.700282   0.000000
     44         17.700320   0.000000
     45         17.800188   0.000000
     46         17.800361   0.000000
     47         18.601146   0.000000
     48         18.601262   0.000000
 
  0.2500000E+00  0.2500000E+00  0.0000000E+00  0.3906250E-02
      1        -30.507435   1.000000
      2        -30.507416   1.000000
      3        -30.326421   1.000000
      4        -30.326401   1.000000
      5        -23.790878   1.000000
      6        -23.790857   1.000000
      7        -23.428914   1.000000
      8        -23.428879   1.000000
      9        -23.375720   1.000000
     10        -23.375690   1.000000
     11        -23.165000   1.000000
     12        -23.164964   1.000000
     13         -0.780818   1.000000
     14         -0.780664   1.000000
     15          2.524050   1.000000
     16          2.524172   1.000000
     17          3.834402   1.000000
     18          3.834536   1.000000
     19          4.342413   1.000000
     20          4.342508   1.000000
     21          5.631078   0.000000
     22          5.631132   0.000000
     23          6.243596   0.000000
     24          6.243680   0.000000
     25          6.465132   0.000000
     26          6.465206   0.000000
     27          7.728856   0.000000
     28          7.728919   0.000000
     29          8.035856   0.000000
     30          8.035916   0.000000
     31          8.475148   0.000000
     32          8.475208   0.000000
     33         10.942691   0.000000
     34         10.942743   0.000000
     35         13.132442   0.000000
     36         13.132524   0.000000
     37         13.394309   0.000000
     38         13.394358   0.000000
     39         17.245030   0.000000
     40         17.245105   0.000000
     41         17.689143   0.000000
     42         17.689177   0.000000
     43         17.700285   0.000000
     44         17.700321   0.000000
     45         17.800191   0.000000
     46         17.800355   0.000000
     47         18.601161   0.000000
     48         18.601279   0.000000
 
  0.0000000E+00  0.2500000E+00  0.0000000E+00  0.3906250E-02
      1        -30.507435   1.000000
      2        -30.507415   1.000000
      3        -30.326421   1.000000
      4        -30.326401   1.000000
      5        -23.790881   1.000000
      6        -23.790854   1.000000
      7        -23.428912   1.000000
      8        -23.428879   1.000000
      9        -23.375721   1.000000
     10        -23.375688   1.000000
     11        -23.164993   1.000000
     12        -23.164967   1.000000
     13         -0.780817   1.000000
     14         -0.780662   1.000000
     15          2.524050   1.000000
     16          2.524175   1.000000
     17          3.834401   1.000000
     18          3.834536   1.000000
     19          4.342414   1.000000
     20          4.342509   1.000000
     21          5.631078   0.000000
     22          5.631134   0.000000
     23          6.243596   0.000000
     24          6.243680   0.000000
     25          6.465133   0.000000
     26          6.465206   0.000000
     27          7.728854   0.000000
     28          7.728915   0.000000
     29          8.035855   0.000000
     30          8.035914   0.000000
     31          8.475145   0.000000
     32          8.475204   0.000000
     33         10.942690   0.000000
     34         10.942743   0.000000
     35         13.132441   0.000000
     36         13.132525   0.000000
     37         13.394308   0.000000
     38         13.394361   0.000000
     39         17.245032   0.000000
     40         17.245112   0.000000
     41         17.689139   0.000000
     42         17.689175   0.000000
     43         17.700283   0.000000
     44         17.700320   0.000000
     45         17.800190   0.000000
     46         17.800359   0.000000
     47         18.601145   0.000000
     48         18.601262   0.000000
 
  0.3750000E+00 -0.7214755E-16  0.0000000E+00  0.3906250E-02
      1        -30.518811   1.000000
      2        -30.518791   1.000000
      3        -30.405791   1.000000
      4        -30.405770   1.000000
      5        -23.764520   1.000000
      6        -23.764484   1.000000
      7        -23.589617   1.000000
      8        -23.589582   1.000000
      9        -23.517299   1.000000
     10        -23.517266   1.000000
     11        -23.233521   1.000000
     12        -23.233511   1.000000
     13          0.717507   1.000000
     14          0.717662   1.000000
     15          2.474744   1.000000
     16          2.474854   1.000000
     17          2.970872   1.000000
     18          2.971000   1.000000
     19          4.140720   1.000000
     20          4.140865   1.000000
     21          5.754423   0.000000
     22          5.754490   0.000000
     23          5.832565   0.000000
     24          5.832660   0.000000
     25          6.195572   0.000000
     26          6.195593   0.000000
     27          9.465394   0.000000
     28          9.465440   0.000000
     29          9.655734   0.000000
     30          9.655778   0.000000
     31         10.061752   0.000000
     32         10.061807   0.000000
     33         11.221142   0.000000
     34         11.221191   0.000000
     35         12.817472   0.000000
     36         12.817548   0.000000
     37         14.522952   0.000000
     38         14.523015   0.000000
     39         14.863142   0.000000
     40         14.863240   0.000000
     41         16.067410   0.000000
     42         16.067514   0.000000
     43         16.532867   0.000000
     44         16.533061   0.000000
     45         17.556297   0.000000
     46         17.556357   0.000000
     47         17.697261   0.000000
     48         17.697300   0.000000
 
  0.3750000E+00  0.3750000E+00  0.0000000E+00  0.3906250E-02
      1        -30.518811   1.000000
      2        -30.518792   1.000000
      3        -30.405791   1.000000
      4        -30.405772   1.000000
      5        -23.764507   1.000000
      6        -23.764497   1.000000
      7        -23.589611   1.000000
      8        -23.589589   1.000000
      9        -23.517304   1.000000
     10        -23.517266   1.000000
     11        -23.233536   1.000000
     12        -23.233500   1.000000
     13          0.717507   1.000000
     14          0.717658   1.000000
     15          2.474745   1.000000
     16          2.474850   1.000000
     17          2.970872   1.000000
     18          2.971000   1.000000
     19          4.140716   1.000000
     20          4.140861   1.000000
     21          5.754421   0.000000
     22          5.754491   0.000000
     23          5.832567   0.000000
     24          5.832656   0.000000
     25          6.195570   0.000000
     26          6.195591   0.000000
     27          9.465396   0.000000
     28          9.465446   0.000000
     29          9.655737   0.000000
     30          9.655784   0.000000
     31         10.061758   0.000000
     32         10.061813   0.000000
     33         11.221142   0.000000
     34         11.221190   0.000000
     35         12.817470   0.000000
     36         12.817549   0.000000
     37         14.522954   0.000000
     38         14.523013   0.000000
     39         14.863146   0.000000
     40         14.863238   0.000000
     41         16.067420   0.000000
     42         16.067531   0.000000
     43         16.532867   0.000000
     44         16.533059   0.000000
     45         17.556298   0.000000
     46         17.556357   0.000000
     47         17.697267   0.000000
     48         17.697305   0.000000
 
  0.0000000E+00  0.3750000E+00  0.0000000E+00  0.3906250E-02
      1        -30.518811   1.000000
      2        -30.518791   1.000000
      3        -30.405791   1.000000
      4        -30.405770   1.000000
      5        -23.764515   1.000000
      6        -23.764489   1.000000
      7        -23.589614   1.000000
      8        -23.589585   1.000000
      9        -23.517300   1.000000
     10        -23.517265   1.000000
     11        -23.233529   1.000000
     12        -23.233503   1.000000
     13          0.717508   1.000000
     14          0.717662   1.000000
     15          2.474744   1.000000
     16          2.474853   1.000000
     17          2.970872   1.000000
     18          2.970999   1.000000
     19          4.140720   1.000000
     20          4.140865   1.000000
     21          5.754422   0.000000
     22          5.754490   0.000000
     23          5.832567   0.000000
     24          5.832659   0.000000
     25          6.195572   0.000000
     26          6.195592   0.000000
     27          9.465394   0.000000
     28          9.465441   0.000000
     29          9.655734   0.000000
     30          9.655778   0.000000
     31         10.061752   0.000000
     32         10.061807   0.000000
     33         11.221142   0.000000
     34         11.221191   0.000000
     35         12.817472   0.000000
     36         12.817549   0.000000
     37         14.522953   0.000000
     38         14.523014   0.000000
     39         14.863144   0.000000
     40         14.863239   0.000000
     41         16.067408   0.000000
     42         16.067516   0.000000
     43         16.532867   0.000000
     44         16.533061   0.000000
     45         17.556298   0.000000
     46         17.556357   0.000000
     47         17.697261   0.000000
     48         17.697300   0.000000
 
  0.5000000E+00  0.2964118E-16  0.0000000E+00  0.1953125E-02
      1        -30.516795   1.000000
      2        -30.516774   1.000000
      3        -30.446179   1.000000
      4        -30.446158   1.000000
      5        -23.723005   1.000000
      6        -23.722968   1.000000
      7        -23.713765   1.000000
      8        -23.713729   1.000000
      9        -23.538487   1.000000
     10        -23.538461   1.000000
     11        -23.268715   1.000000
     12        -23.268703   1.000000
     13          1.535181   1.000000
     14          1.535337   1.000000
     15          2.146906   1.000000
     16          2.147003   1.000000
     17          2.658964   1.000000
     18          2.659088   1.000000
     19          4.094296   1.000000
     20          4.094461   1.000000
     21          5.591982   0.000000
     22          5.592063   0.000000
     23          5.738944   0.000000
     24          5.739053   0.000000
     25          6.591790   0.000000
     26          6.591844   0.000000
     27         10.703161   0.000000
     28         10.703209   0.000000
     29         11.077094   0.000000
     30         11.077129   0.000000
     31         11.345125   0.000000
     32         11.345152   0.000000
     33         11.781091   0.000000
     34         11.781161   0.000000
     35         12.067844   0.000000
     36         12.067895   0.000000
     37         13.268949   0.000000
     38         13.269023   0.000000
     39         14.320740   0.000000
     40         14.320866   0.000000
     41         14.923195   0.000000
     42         14.923272   0.000000
     43         15.829990   0.000000
     44         15.830093   0.000000
     45         16.017270   0.000000
     46         16.017480   0.000000
     47         17.696303   0.000000
     48         17.706487   0.000000
 
  0.5000000E+00  0.5000000E+00  0.0000000E+00  0.1953125E-02
      1        -30.516796   1.000000
      2        -30.516776   1.000000
      3        -30.446180   1.000000
      4        -30.446160   1.000000
      5        -23.722993   1.000000
      6        -23.722981   1.000000
      7        -23.713760   1.000000
      8        -23.713736   1.000000
      9        -23.538495   1.000000
     10        -23.538458   1.000000
     11        -23.268730   1.000000
     12        -23.268693   1.000000
     13          1.535182   1.000000
     14          1.535333   1.000000
     15          2.146908   1.000000
     16          2.146999   1.000000
     17          2.658964   1.000000
     18          2.659089   1.000000
     19          4.094290   1.000000
     20          4.094455   1.000000
     21          5.591983   0.000000
     22          5.592063   0.000000
     23          5.738943   0.000000
     24          5.739052   0.000000
     25          6.591788   0.000000
     26          6.591840   0.000000
     27         10.703168   0.000000
     28         10.703216   0.000000
     29         11.077110   0.000000
     30         11.077124   0.000000
     31         11.345134   0.000000
     32         11.345150   0.000000
     33         11.781085   0.000000
     34         11.781159   0.000000
     35         12.067848   0.000000
     36         12.067901   0.000000
     37         13.268949   0.000000
     38         13.269024   0.000000
     39         14.320751   0.000000
     40         14.320882   0.000000
     41         14.923189   0.000000
     42         14.923271   0.000000
     43         15.829987   0.000000
     44         15.830094   0.000000
     45         16.017270   0.000000
     46         16.017478   0.000000
     47         17.696310   0.000000
     48         17.706493   0.000000
 
  0.0000000E+00  0.5000000E+00  0.0000000E+00  0.1953125E-02
      1        -30.516795   1.000000
      2        -30.516775   1.000000
      3        -30.446179   1.000000
      4        -30.446158   1.000000
      5        -23.723000   1.000000
      6        -23.722973   1.000000
      7        -23.713762   1.000000
      8        -23.713732   1.000000
      9        -23.538490   1.000000
     10        -23.538458   1.000000
     11        -23.268723   1.000000
     12        -23.268696   1.000000
     13          1.535181   1.000000
     14          1.535336   1.000000
     15          2.146907   1.000000
     16          2.147003   1.000000
     17          2.658964   1.000000
     18          2.659088   1.000000
     19          4.094296   1.000000
     20          4.094461   1.000000
     21          5.591983   0.000000
     22          5.592063   0.000000
     23          5.738944   0.000000
     24          5.739053   0.000000
     25          6.591790   0.000000
     26          6.591844   0.000000
     27         10.703161   0.000000
     28         10.703208   0.000000
     29         11.077099   0.000000
     30         11.077124   0.000000
     31         11.345128   0.000000
     32         11.345149   0.000000
     33         11.781091   0.000000
     34         11.781162   0.000000
     35         12.067844   0.000000
     36         12.067895   0.000000
     37         13.268949   0.000000
     38         13.269023   0.000000
     39         14.320739   0.000000
     40         14.320867   0.000000
     41         14.923194   0.000000
     42         14.923273   0.000000
     43         15.829988   0.000000
     44         15.830094   0.000000
     45         16.017271   0.000000
     46         16.017479   0.000000
     47         17.696303   0.000000
     48         17.706487   0.000000
 
  0.2500000E+00  0.1250000E+00  0.0000000E+00  0.3906250E-02
      1        -30.502599   1.000000
      2        -30.502580   1.000000
      3        -30.304889   1.000000
      4        -30.304869   1.000000
      5        -23.796888   1.000000
      6        -23.796861   1.000000
      7        -23.397046   1.000000
      8        -23.397012   1.000000
      9        -23.309041   1.000000
     10        -23.309005   1.000000
     11        -23.154284   1.000000
     12        -23.154259   1.000000
     13         -1.157103   1.000000
     14         -1.156948   1.000000
     15          2.386209   1.000000
     16          2.386336   1.000000
     17          4.168116   1.000000
     18          4.168255   1.000000
     19          4.407272   1.000000
     20          4.407349   1.000000
     21          5.774027   0.000000
     22          5.774081   0.000000
     23          6.159800   0.000000
     24          6.159880   0.000000
     25          6.826709   0.000000
     26          6.826788   0.000000
     27          7.383987   0.000000
     28          7.384038   0.000000
     29          7.536265   0.000000
     30          7.536311   0.000000
     31          8.284966   0.000000
     32          8.285028   0.000000
     33         10.692511   0.000000
     34         10.692567   0.000000
     35         12.748262   0.000000
     36         12.748350   0.000000
     37         13.563779   0.000000
     38         13.563840   0.000000
     39         17.681494   0.000000
     40         17.681538   0.000000
     41         17.697351   0.000000
     42         17.697387   0.000000
     43         18.046170   0.000000
     44         18.046279   0.000000
     45         18.590496   0.000000
     46         18.590541   0.000000
     47         18.877739   0.000000
     48         18.877853   0.000000
 
  0.1250000E+00  0.2500000E+00  0.0000000E+00  0.3906250E-02
      1        -30.502599   1.000000
      2        -30.502580   1.000000
      3        -30.304889   1.000000
      4        -30.304870   1.000000
      5        -23.796886   1.000000
      6        -23.796863   1.000000
      7        -23.397048   1.000000
      8        -23.397010   1.000000
      9        -23.309038   1.000000
     10        -23.309008   1.000000
     11        -23.154289   1.000000
     12        -23.154254   1.000000
     13         -1.157103   1.000000
     14         -1.156949   1.000000
     15          2.386209   1.000000
     16          2.386335   1.000000
     17          4.168116   1.000000
     18          4.168256   1.000000
     19          4.407271   1.000000
     20          4.407349   1.000000
     21          5.774026   0.000000
     22          5.774083   0.000000
     23          6.159796   0.000000
     24          6.159883   0.000000
     25          6.826709   0.000000
     26          6.826787   0.000000
     27          7.383991   0.000000
     28          7.384034   0.000000
     29          7.536261   0.000000
     30          7.536315   0.000000
     31          8.284966   0.000000
     32          8.285028   0.000000
     33         10.692511   0.000000
     34         10.692567   0.000000
     35         12.748262   0.000000
     36         12.748349   0.000000
     37         13.563780   0.000000
     38         13.563839   0.000000
     39         17.681497   0.000000
     40         17.681535   0.000000
     41         17.697348   0.000000
     42         17.697390   0.000000
     43         18.046171   0.000000
     44         18.046278   0.000000
     45         18.590497   0.000000
     46         18.590540   0.000000
     47         18.877744   0.000000
     48         18.877847   0.000000
 
 -0.1250000E+00  0.1250000E+00  0.0000000E+00  0.3906250E-02
      1        -30.502599   1.000000
      2        -30.502579   1.000000
      3        -30.304889   1.000000
      4        -30.304868   1.000000
      5        -23.796890   1.000000
      6        -23.796859   1.000000
      7        -23.397045   1.000000
      8        -23.397011   1.000000
      9        -23.309041   1.000000
     10        -23.309003   1.000000
     11        -23.154275   1.000000
     12        -23.154265   1.000000
     13         -1.157103   1.000000
     14         -1.156947   1.000000
     15          2.386210   1.000000
     16          2.386338   1.000000
     17          4.168117   1.000000
     18          4.168254   1.000000
     19          4.407273   1.000000
     20          4.407349   1.000000
     21          5.774028   0.000000
     22          5.774081   0.000000
     23          6.159800   0.000000
     24          6.159879   0.000000
     25          6.826710   0.000000
     26          6.826788   0.000000
     27          7.383985   0.000000
     28          7.384037   0.000000
     29          7.536266   0.000000
     30          7.536311   0.000000
     31          8.284962   0.000000
     32          8.285021   0.000000
     33         10.692511   0.000000
     34         10.692567   0.000000
     35         12.748262   0.000000
     36         12.748350   0.000000
     37         13.563780   0.000000
     38         13.563840   0.000000
     39         17.681490   0.000000
     40         17.681534   0.000000
     41         17.697350   0.000000
     42         17.697385   0.000000
     43         18.046170   0.000000
     44         18.046277   0.000000
     45         18.590498   0.000000
     46         18.590548   0.000000
     47         18.877736   0.000000
     48         18.877860   0.000000
 
  0.3750000E+00  0.1250000E+00  0.0000000E+00  0.3906250E-02
      1        -30.516898   1.000000
      2        -30.516879   1.000000
      3        -30.380289   1.000000
      4        -30.380268   1.000000
      5        -23.763004   1.000000
      6        -23.762973   1.000000
      7        -23.533232   1.000000
      8        -23.533206   1.000000