 DBCSR| CPU Multiplication driver                                           BLAS (U)
 DBCSR| Multrec recursion limit                                              512 (U)
 DBCSR| Multiplication stack size                                           1000 (D)
 DBCSR| Maximum elements for images                                    UNLIMITED (U)
 DBCSR| Multiplicative factor virtual images                                   1 (U)
 DBCSR| Use multiplication densification                                       T (D)
 DBCSR| Multiplication size stacks                                             3 (U)
 DBCSR| Use memory pool for CPU allocation                                     F (U)
 DBCSR| Number of 3D layers                                               SINGLE (U)
 DBCSR| Use MPI memory allocation                                              F (U)
 DBCSR| Use RMA algorithm                                                      F (U)
 DBCSR| Use Communication thread                                               T (U)
 DBCSR| Communication thread load                                             45 (D)
 DBCSR| MPI: My process id                                                     0
 DBCSR| MPI: Number of processes                                              16
 DBCSR| OMP: Current number of threads                                        12
 DBCSR| OMP: Max number of threads                                            12
 DBCSR| Split modifier for TAS multiplication algorithm                  1.0E+00 (U)


  **** **** ******  **  PROGRAM STARTED AT               2025-08-05 20:43:44.348
 ***** ** ***  *** **   PROGRAM STARTED ON                          i01r07c04s08
 **    ****   ******    PROGRAM STARTED BY                               di38fab
 ***** **    ** ** **   PROGRAM PROCESS ID                               4124679
  **** **  *******  **  PROGRAM STARTED IN /hppfs/scratch/04/di38fab/09_GTH/Delt
                                           a_Set/Ar/aug-TZVP-MOLOPT-GTH-tier-1/8
                                           x8x8

 CP2K| version string:                 CP2K version 2025.1 (Development Version)
 CP2K| source code revision number:                                  git:3130539
 CP2K| cp2kflags: omp libint fftw3 libxc parallel scalapack max_contr=4         
 CP2K| is freely available from                            https://www.cp2k.org/
 CP2K| Program compiled at                         Tue Jun  3 16:14:32 CEST 2025
 CP2K| Program compiled on                                               login01
 CP2K| Program compiled for                                        Supermuc-foss
 CP2K| Data directory path                  /hppfs/work/pn36zo/di38fab/cp2k/data
 CP2K| Input file name                                                    GW.inp

 GLOBAL| Force Environment number                                              1
 GLOBAL| Basis set file name            /hppfs/scratch/04/di38fab/09_GTH/BASIS_A
 GLOBAL| Potential file name            /hppfs/work/pn36zo/di38fab/cp2k/data/GTH
 GLOBAL| MM Potential file name                                     MM_POTENTIAL
 GLOBAL| Coordinate file name                                             Ar.cif
 GLOBAL| Method name                                                        CP2K
 GLOBAL| Project name                                                       WSe2
 GLOBAL| Run type                                                         ENERGY
 GLOBAL| FFT library                                                       FFTW3
 GLOBAL| Diagonalization library                                       ScaLAPACK
 GLOBAL| Cholesky decomposition library                                ScaLAPACK
 GLOBAL| DGEMM library                                                      BLAS
 GLOBAL| Orthonormality check for eigenvectors                          DISABLED
 GLOBAL| Matrix multiplication library                                 ScaLAPACK
 GLOBAL| All-to-all communication in single precision                          F
 GLOBAL| FFTs using library dependent lengths                                  F
 GLOBAL| Grid backend                                                       AUTO
 GLOBAL| Global print level                                               MEDIUM
 GLOBAL| MPI I/O enabled                                                       T
 GLOBAL| Total number of message passing processes                            16
 GLOBAL| Number of threads for this process                                   12
 GLOBAL| This output is from process                                           0
 GLOBAL| OpenMP stack size per thread (OMP_STACKSIZE)                    default
 GLOBAL| CPU model name             Intel(R) Xeon(R) Platinum 8174 CPU @ 3.10GHz

 MEMORY| system memory details [Kb]
 MEMORY|                        rank 0           min           max       average
 MEMORY| MemTotal             98436660      98436660      98436692      98436669
 MEMORY| MemFree              84669824      84669824      85215904      84840117
 MEMORY| Buffers                     0             0             0             0
 MEMORY| Cached                2380008       2380008       2404884       2391255
 MEMORY| Slab                  1274084       1249472       1298248       1278141
 MEMORY| SReclaimable           280540        277284        286936        281125
 MEMORY| MemLikelyFree        87330372      87330372      87875832      87512497


 *** Fundamental physical constants (SI units) ***

 *** Literature: B. J. Mohr and B. N. Taylor,
 ***             CODATA recommended values of the fundamental physical
 ***             constants: 2006, Web Version 5.1
 ***             http://physics.nist.gov/constants

 Speed of light in vacuum [m/s]                             2.99792458000000E+08
 Magnetic constant or permeability of vacuum [N/A**2]       1.25663706143592E-06
 Electric constant or permittivity of vacuum [F/m]          8.85418781762039E-12
 Planck constant (h) [J*s]                                  6.62606896000000E-34
 Planck constant (h-bar) [J*s]                              1.05457162825177E-34
 Elementary charge [C]                                      1.60217648700000E-19
 Electron mass [kg]                                         9.10938215000000E-31
 Electron g factor [ ]                                     -2.00231930436220E+00
 Proton mass [kg]                                           1.67262163700000E-27
 Fine-structure constant                                    7.29735253760000E-03
 Rydberg constant [1/m]                                     1.09737315685270E+07
 Avogadro constant [1/mol]                                  6.02214179000000E+23
 Boltzmann constant [J/K]                                   1.38065040000000E-23
 Atomic mass unit [kg]                                      1.66053878200000E-27
 Bohr radius [m]                                            5.29177208590000E-11

 *** Conversion factors ***

 [u] -> [a.u.]                                              1.82288848426455E+03
 [Angstrom] -> [Bohr] = [a.u.]                              1.88972613288564E+00
 [a.u.] = [Bohr] -> [Angstrom]                              5.29177208590000E-01
 [a.u.] -> [s]                                              2.41888432650478E-17
 [a.u.] -> [fs]                                             2.41888432650478E-02
 [a.u.] -> [J]                                              4.35974393937059E-18
 [a.u.] -> [N]                                              8.23872205491840E-08
 [a.u.] -> [K]                                              3.15774647902944E+05
 [a.u.] -> [kJ/mol]                                         2.62549961709828E+03
 [a.u.] -> [kcal/mol]                                       6.27509468713739E+02
 [a.u.] -> [Pa]                                             2.94210107994716E+13
 [a.u.] -> [bar]                                            2.94210107994716E+08
 [a.u.] -> [atm]                                            2.90362800883016E+08
 [a.u.] -> [eV]                                             2.72113838565563E+01
 [a.u.] -> [Hz]                                             6.57968392072181E+15
 [a.u.] -> [1/cm] (wave numbers)                            2.19474631370540E+05
 [a.u./Bohr**2] -> [1/cm]                                   5.14048714338585E+03
 

 CELL_TOP| Volume [angstrom^3]:                                       210.707544
 CELL_TOP| Vector a [angstrom     5.951     0.000     0.000   |a| =     5.950590
 CELL_TOP| Vector b [angstrom     0.000     5.951     0.000   |b| =     5.950590
 CELL_TOP| Vector c [angstrom     0.000     0.000     5.951   |c| =     5.950590
 CELL_TOP| Angle (b,c), alpha [degree]:                                90.000000
 CELL_TOP| Angle (a,c), beta  [degree]:                                90.000000
 CELL_TOP| Angle (a,b), gamma [degree]:                                90.000000
 CELL_TOP| Numerically orthorhombic:                                         YES
 CELL_TOP| Periodicity                                                       XYZ

 CELL_CIF| Volume [angstrom^3]:                                       210.707544
 CELL_CIF| Vector a [angstrom     5.951     0.000     0.000   |a| =     5.950590
 CELL_CIF| Vector b [angstrom     0.000     5.951     0.000   |b| =     5.950590
 CELL_CIF| Vector c [angstrom     0.000     0.000     5.951   |c| =     5.950590
 CELL_CIF| Angle (b,c), alpha [degree]:                                90.000000
 CELL_CIF| Angle (a,c), beta  [degree]:                                90.000000
 CELL_CIF| Angle (a,b), gamma [degree]:                                90.000000
 CELL_CIF| Numerically orthorhombic:                                         YES
 CELL_CIF| Periodicity                                                       XYZ

 GENERATE|  Preliminary Number of Bonds generated:                             0
 GENERATE|  Achieved consistency in connectivity generation.

 CELL| Volume [angstrom^3]:                                           210.707544
 CELL| Vector a [angstrom]:       5.951     0.000     0.000   |a| =     5.950590
 CELL| Vector b [angstrom]:       0.000     5.951     0.000   |b| =     5.950590
 CELL| Vector c [angstrom]:       0.000     0.000     5.951   |c| =     5.950590
 CELL| Angle (b,c), alpha [degree]:                                    90.000000
 CELL| Angle (a,c), beta  [degree]:                                    90.000000
 CELL| Angle (a,b), gamma [degree]:                                    90.000000
 CELL| Numerically orthorhombic:                                             YES
 CELL| Periodicity                                                           XYZ

 CELL_REF| Volume [angstrom^3]:                                       210.707544
 CELL_REF| Vector a [angstrom     5.951     0.000     0.000   |a| =     5.950590
 CELL_REF| Vector b [angstrom     0.000     5.951     0.000   |b| =     5.950590
 CELL_REF| Vector c [angstrom     0.000     0.000     5.951   |c| =     5.950590
 CELL_REF| Angle (b,c), alpha [degree]:                                90.000000
 CELL_REF| Angle (a,c), beta  [degree]:                                90.000000
 CELL_REF| Angle (a,b), gamma [degree]:                                90.000000
 CELL_REF| Numerically orthorhombic:                                         YES
 CELL_REF| Periodicity                                                       XYZ

 *** WARNING in cryssym.F:180 :: Symmetry library SPGLIB not available ***


 *******************************************************************************
                                    Kpoints
 *******************************************************************************
 BRILLOUIN| K-point scheme                                        Monkhorst-Pack
 BRILLOUIN| K-Point grid                                             8    8    8
 BRILLOUIN| Accuracy in Symmetry determination                      0.100000E-05
 BRILLOUIN| K-Point point group symmetrization                               OFF
 BRILLOUIN| Wavefunction type                                            COMPLEX
 BRILLOUIN| List of Kpoints [2 Pi/Bohr]                                      256
 BRILLOUIN| Number           Weight            X              Y              Z
 BRILLOUIN|     1           0.00391       -0.43750       -0.43750       -0.43750
 BRILLOUIN|     2           0.00391       -0.43750       -0.43750       -0.31250
 BRILLOUIN|     3           0.00391       -0.43750       -0.43750       -0.18750
 BRILLOUIN|     4           0.00391       -0.43750       -0.43750       -0.06250
 BRILLOUIN|     5           0.00391       -0.43750       -0.43750        0.06250
 BRILLOUIN|     6           0.00391       -0.43750       -0.43750        0.18750
 BRILLOUIN|     7           0.00391       -0.43750       -0.43750        0.31250
 BRILLOUIN|     8           0.00391       -0.43750       -0.43750        0.43750
 BRILLOUIN|     9           0.00391       -0.43750       -0.31250       -0.43750
 BRILLOUIN|    10           0.00391       -0.43750       -0.31250       -0.31250
 BRILLOUIN|    11           0.00391       -0.43750       -0.31250       -0.18750
 BRILLOUIN|    12           0.00391       -0.43750       -0.31250       -0.06250
 BRILLOUIN|    13           0.00391       -0.43750       -0.31250        0.06250
 BRILLOUIN|    14           0.00391       -0.43750       -0.31250        0.18750
 BRILLOUIN|    15           0.00391       -0.43750       -0.31250        0.31250
 BRILLOUIN|    16           0.00391       -0.43750       -0.31250        0.43750
 BRILLOUIN|    17           0.00391       -0.43750       -0.18750       -0.43750
 BRILLOUIN|    18           0.00391       -0.43750       -0.18750       -0.31250
 BRILLOUIN|    19           0.00391       -0.43750       -0.18750       -0.18750
 BRILLOUIN|    20           0.00391       -0.43750       -0.18750       -0.06250
 BRILLOUIN|    21           0.00391       -0.43750       -0.18750        0.06250
 BRILLOUIN|    22           0.00391       -0.43750       -0.18750        0.18750
 BRILLOUIN|    23           0.00391       -0.43750       -0.18750        0.31250
 BRILLOUIN|    24           0.00391       -0.43750       -0.18750        0.43750
 BRILLOUIN|    25           0.00391       -0.43750       -0.06250       -0.43750
 BRILLOUIN|    26           0.00391       -0.43750       -0.06250       -0.31250
 BRILLOUIN|    27           0.00391       -0.43750       -0.06250       -0.18750
 BRILLOUIN|    28           0.00391       -0.43750       -0.06250       -0.06250
 BRILLOUIN|    29           0.00391       -0.43750       -0.06250        0.06250
 BRILLOUIN|    30           0.00391       -0.43750       -0.06250        0.18750
 BRILLOUIN|    31           0.00391       -0.43750       -0.06250        0.31250
 BRILLOUIN|    32           0.00391       -0.43750       -0.06250        0.43750
 BRILLOUIN|    33           0.00391       -0.43750        0.06250       -0.43750
 BRILLOUIN|    34           0.00391       -0.43750        0.06250       -0.31250
 BRILLOUIN|    35           0.00391       -0.43750        0.06250       -0.18750
 BRILLOUIN|    36           0.00391       -0.43750        0.06250       -0.06250
 BRILLOUIN|    37           0.00391       -0.43750        0.06250        0.06250
 BRILLOUIN|    38           0.00391       -0.43750        0.06250        0.18750
 BRILLOUIN|    39           0.00391       -0.43750        0.06250        0.31250
 BRILLOUIN|    40           0.00391       -0.43750        0.06250        0.43750
 BRILLOUIN|    41           0.00391       -0.43750        0.18750       -0.43750
 BRILLOUIN|    42           0.00391       -0.43750        0.18750       -0.31250
 BRILLOUIN|    43           0.00391       -0.43750        0.18750       -0.18750
 BRILLOUIN|    44           0.00391       -0.43750        0.18750       -0.06250
 BRILLOUIN|    45           0.00391       -0.43750        0.18750        0.06250
 BRILLOUIN|    46           0.00391       -0.43750        0.18750        0.18750
 BRILLOUIN|    47           0.00391       -0.43750        0.18750        0.31250
 BRILLOUIN|    48           0.00391       -0.43750        0.18750        0.43750
 BRILLOUIN|    49           0.00391       -0.43750        0.31250       -0.43750
 BRILLOUIN|    50           0.00391       -0.43750        0.31250       -0.31250
 BRILLOUIN|    51           0.00391       -0.43750        0.31250       -0.18750
 BRILLOUIN|    52           0.00391       -0.43750        0.31250       -0.06250
 BRILLOUIN|    53           0.00391       -0.43750        0.31250        0.06250
 BRILLOUIN|    54           0.00391       -0.43750        0.31250        0.18750
 BRILLOUIN|    55           0.00391       -0.43750        0.31250        0.31250
 BRILLOUIN|    56           0.00391       -0.43750        0.31250        0.43750
 BRILLOUIN|    57           0.00391       -0.43750        0.43750       -0.43750
 BRILLOUIN|    58           0.00391       -0.43750        0.43750       -0.31250
 BRILLOUIN|    59           0.00391       -0.43750        0.43750       -0.18750
 BRILLOUIN|    60           0.00391       -0.43750        0.43750       -0.06250
 BRILLOUIN|    61           0.00391       -0.43750        0.43750        0.06250
 BRILLOUIN|    62           0.00391       -0.43750        0.43750        0.18750
 BRILLOUIN|    63           0.00391       -0.43750        0.43750        0.31250
 BRILLOUIN|    64           0.00391       -0.43750        0.43750        0.43750
 BRILLOUIN|    65           0.00391       -0.31250       -0.43750       -0.43750
 BRILLOUIN|    66           0.00391       -0.31250       -0.43750       -0.31250
 BRILLOUIN|    67           0.00391       -0.31250       -0.43750       -0.18750
 BRILLOUIN|    68           0.00391       -0.31250       -0.43750       -0.06250
 BRILLOUIN|    69           0.00391       -0.31250       -0.43750        0.06250
 BRILLOUIN|    70           0.00391       -0.31250       -0.43750        0.18750
 BRILLOUIN|    71           0.00391       -0.31250       -0.43750        0.31250
 BRILLOUIN|    72           0.00391       -0.31250       -0.43750        0.43750
 BRILLOUIN|    73           0.00391       -0.31250       -0.31250       -0.43750
 BRILLOUIN|    74           0.00391       -0.31250       -0.31250       -0.31250
 BRILLOUIN|    75           0.00391       -0.31250       -0.31250       -0.18750
 BRILLOUIN|    76           0.00391       -0.31250       -0.31250       -0.06250
 BRILLOUIN|    77           0.00391       -0.31250       -0.31250        0.06250
 BRILLOUIN|    78           0.00391       -0.31250       -0.31250        0.18750
 BRILLOUIN|    79           0.00391       -0.31250       -0.31250        0.31250
 BRILLOUIN|    80           0.00391       -0.31250       -0.31250        0.43750
 BRILLOUIN|    81           0.00391       -0.31250       -0.18750       -0.43750
 BRILLOUIN|    82           0.00391       -0.31250       -0.18750       -0.31250
 BRILLOUIN|    83           0.00391       -0.31250       -0.18750       -0.18750
 BRILLOUIN|    84           0.00391       -0.31250       -0.18750       -0.06250
 BRILLOUIN|    85           0.00391       -0.31250       -0.18750        0.06250
 BRILLOUIN|    86           0.00391       -0.31250       -0.18750        0.18750
 BRILLOUIN|    87           0.00391       -0.31250       -0.18750        0.31250
 BRILLOUIN|    88           0.00391       -0.31250       -0.18750        0.43750
 BRILLOUIN|    89           0.00391       -0.31250       -0.06250       -0.43750
 BRILLOUIN|    90           0.00391       -0.31250       -0.06250       -0.31250
 BRILLOUIN|    91           0.00391       -0.31250       -0.06250       -0.18750
 BRILLOUIN|    92           0.00391       -0.31250       -0.06250       -0.06250
 BRILLOUIN|    93           0.00391       -0.31250       -0.06250        0.06250
 BRILLOUIN|    94           0.00391       -0.31250       -0.06250        0.18750
 BRILLOUIN|    95           0.00391       -0.31250       -0.06250        0.31250
 BRILLOUIN|    96           0.00391       -0.31250       -0.06250        0.43750
 BRILLOUIN|    97           0.00391       -0.31250        0.06250       -0.43750
 BRILLOUIN|    98           0.00391       -0.31250        0.06250       -0.31250
 BRILLOUIN|    99           0.00391       -0.31250        0.06250       -0.18750
 BRILLOUIN|   100           0.00391       -0.31250        0.06250       -0.06250
 BRILLOUIN|   101           0.00391       -0.31250        0.06250        0.06250
 BRILLOUIN|   102           0.00391       -0.31250        0.06250        0.18750
 BRILLOUIN|   103           0.00391       -0.31250        0.06250        0.31250
 BRILLOUIN|   104           0.00391       -0.31250        0.06250        0.43750
 BRILLOUIN|   105           0.00391       -0.31250        0.18750       -0.43750
 BRILLOUIN|   106           0.00391       -0.31250        0.18750       -0.31250
 BRILLOUIN|   107           0.00391       -0.31250        0.18750       -0.18750
 BRILLOUIN|   108           0.00391       -0.31250        0.18750       -0.06250
 BRILLOUIN|   109           0.00391       -0.31250        0.18750        0.06250
 BRILLOUIN|   110           0.00391       -0.31250        0.18750        0.18750
 BRILLOUIN|   111           0.00391       -0.31250        0.18750        0.31250
 BRILLOUIN|   112           0.00391       -0.31250        0.18750        0.43750
 BRILLOUIN|   113           0.00391       -0.31250        0.31250       -0.43750
 BRILLOUIN|   114           0.00391       -0.31250        0.31250       -0.31250
 BRILLOUIN|   115           0.00391       -0.31250        0.31250       -0.18750
 BRILLOUIN|   116           0.00391       -0.31250        0.31250       -0.06250
 BRILLOUIN|   117           0.00391       -0.31250        0.31250        0.06250
 BRILLOUIN|   118           0.00391       -0.31250        0.31250        0.18750
 BRILLOUIN|   119           0.00391       -0.31250        0.31250        0.31250
 BRILLOUIN|   120           0.00391       -0.31250        0.31250        0.43750
 BRILLOUIN|   121           0.00391       -0.31250        0.43750       -0.43750
 BRILLOUIN|   122           0.00391       -0.31250        0.43750       -0.31250
 BRILLOUIN|   123           0.00391       -0.31250        0.43750       -0.18750
 BRILLOUIN|   124           0.00391       -0.31250        0.43750       -0.06250
 BRILLOUIN|   125           0.00391       -0.31250        0.43750        0.06250
 BRILLOUIN|   126           0.00391       -0.31250        0.43750        0.18750
 BRILLOUIN|   127           0.00391       -0.31250        0.43750        0.31250
 BRILLOUIN|   128           0.00391       -0.31250        0.43750        0.43750
 BRILLOUIN|   129           0.00391       -0.18750       -0.43750       -0.43750
 BRILLOUIN|   130           0.00391       -0.18750       -0.43750       -0.31250
 BRILLOUIN|   131           0.00391       -0.18750       -0.43750       -0.18750
 BRILLOUIN|   132           0.00391       -0.18750       -0.43750       -0.06250
 BRILLOUIN|   133           0.00391       -0.18750       -0.43750        0.06250
 BRILLOUIN|   134           0.00391       -0.18750       -0.43750        0.18750
 BRILLOUIN|   135           0.00391       -0.18750       -0.43750        0.31250
 BRILLOUIN|   136           0.00391       -0.18750       -0.43750        0.43750
 BRILLOUIN|   137           0.00391       -0.18750       -0.31250       -0.43750
 BRILLOUIN|   138           0.00391       -0.18750       -0.31250       -0.31250
 BRILLOUIN|   139           0.00391       -0.18750       -0.31250       -0.18750
 BRILLOUIN|   140           0.00391       -0.18750       -0.31250       -0.06250
 BRILLOUIN|   141           0.00391       -0.18750       -0.31250        0.06250
 BRILLOUIN|   142           0.00391       -0.18750       -0.31250        0.18750
 BRILLOUIN|   143           0.00391       -0.18750       -0.31250        0.31250
 BRILLOUIN|   144           0.00391       -0.18750       -0.31250        0.43750
 BRILLOUIN|   145           0.00391       -0.18750       -0.18750       -0.43750
 BRILLOUIN|   146           0.00391       -0.18750       -0.18750       -0.31250
 BRILLOUIN|   147           0.00391       -0.18750       -0.18750       -0.18750
 BRILLOUIN|   148           0.00391       -0.18750       -0.18750       -0.06250
 BRILLOUIN|   149           0.00391       -0.18750       -0.18750        0.06250
 BRILLOUIN|   150           0.00391       -0.18750       -0.18750        0.18750
 BRILLOUIN|   151           0.00391       -0.18750       -0.18750        0.31250
 BRILLOUIN|   152           0.00391       -0.18750       -0.18750        0.43750
 BRILLOUIN|   153           0.00391       -0.18750       -0.06250       -0.43750
 BRILLOUIN|   154           0.00391       -0.18750       -0.06250       -0.31250
 BRILLOUIN|   155           0.00391       -0.18750       -0.06250       -0.18750
 BRILLOUIN|   156           0.00391       -0.18750       -0.06250       -0.06250
 BRILLOUIN|   157           0.00391       -0.18750       -0.06250        0.06250
 BRILLOUIN|   158           0.00391       -0.18750       -0.06250        0.18750
 BRILLOUIN|   159           0.00391       -0.18750       -0.06250        0.31250
 BRILLOUIN|   160           0.00391       -0.18750       -0.06250        0.43750
 BRILLOUIN|   161           0.00391       -0.18750        0.06250       -0.43750
 BRILLOUIN|   162           0.00391       -0.18750        0.06250       -0.31250
 BRILLOUIN|   163           0.00391       -0.18750        0.06250       -0.18750
 BRILLOUIN|   164           0.00391       -0.18750        0.06250       -0.06250
 BRILLOUIN|   165           0.00391       -0.18750        0.06250        0.06250
 BRILLOUIN|   166           0.00391       -0.18750        0.06250        0.18750
 BRILLOUIN|   167           0.00391       -0.18750        0.06250        0.31250
 BRILLOUIN|   168           0.00391       -0.18750        0.06250        0.43750
 BRILLOUIN|   169           0.00391       -0.18750        0.18750       -0.43750
 BRILLOUIN|   170           0.00391       -0.18750        0.18750       -0.31250
 BRILLOUIN|   171           0.00391       -0.18750        0.18750       -0.18750
 BRILLOUIN|   172           0.00391       -0.18750        0.18750       -0.06250
 BRILLOUIN|   173           0.00391       -0.18750        0.18750        0.06250
 BRILLOUIN|   174           0.00391       -0.18750        0.18750        0.18750
 BRILLOUIN|   175           0.00391       -0.18750        0.18750        0.31250
 BRILLOUIN|   176           0.00391       -0.18750        0.18750        0.43750
 BRILLOUIN|   177           0.00391       -0.18750        0.31250       -0.43750
 BRILLOUIN|   178           0.00391       -0.18750        0.31250       -0.31250
 BRILLOUIN|   179           0.00391       -0.18750        0.31250       -0.18750
 BRILLOUIN|   180           0.00391       -0.18750        0.31250       -0.06250
 BRILLOUIN|   181           0.00391       -0.18750        0.31250        0.06250
 BRILLOUIN|   182           0.00391       -0.18750        0.31250        0.18750
 BRILLOUIN|   183           0.00391       -0.18750        0.31250        0.31250
 BRILLOUIN|   184           0.00391       -0.18750        0.31250        0.43750
 BRILLOUIN|   185           0.00391       -0.18750        0.43750       -0.43750
 BRILLOUIN|   186           0.00391       -0.18750        0.43750       -0.31250
 BRILLOUIN|   187           0.00391       -0.18750        0.43750       -0.18750
 BRILLOUIN|   188           0.00391       -0.18750        0.43750       -0.06250
 BRILLOUIN|   189           0.00391       -0.18750        0.43750        0.06250
 BRILLOUIN|   190           0.00391       -0.18750        0.43750        0.18750
 BRILLOUIN|   191           0.00391       -0.18750        0.43750        0.31250
 BRILLOUIN|   192           0.00391       -0.18750        0.43750        0.43750
 BRILLOUIN|   193           0.00391       -0.06250       -0.43750       -0.43750
 BRILLOUIN|   194           0.00391       -0.06250       -0.43750       -0.31250
 BRILLOUIN|   195           0.00391       -0.06250       -0.43750       -0.18750
 BRILLOUIN|   196           0.00391       -0.06250       -0.43750       -0.06250
 BRILLOUIN|   197           0.00391       -0.06250       -0.43750        0.06250
 BRILLOUIN|   198           0.00391       -0.06250       -0.43750        0.18750
 BRILLOUIN|   199           0.00391       -0.06250       -0.43750        0.31250
 BRILLOUIN|   200           0.00391       -0.06250       -0.43750        0.43750
 BRILLOUIN|   201           0.00391       -0.06250       -0.31250       -0.43750
 BRILLOUIN|   202           0.00391       -0.06250       -0.31250       -0.31250
 BRILLOUIN|   203           0.00391       -0.06250       -0.31250       -0.18750
 BRILLOUIN|   204           0.00391       -0.06250       -0.31250       -0.06250
 BRILLOUIN|   205           0.00391       -0.06250       -0.31250        0.06250
 BRILLOUIN|   206           0.00391       -0.06250       -0.31250        0.18750
 BRILLOUIN|   207           0.00391       -0.06250       -0.31250        0.31250
 BRILLOUIN|   208           0.00391       -0.06250       -0.31250        0.43750
 BRILLOUIN|   209           0.00391       -0.06250       -0.18750       -0.43750
 BRILLOUIN|   210           0.00391       -0.06250       -0.18750       -0.31250
 BRILLOUIN|   211           0.00391       -0.06250       -0.18750       -0.18750
 BRILLOUIN|   212           0.00391       -0.06250       -0.18750       -0.06250
 BRILLOUIN|   213           0.00391       -0.06250       -0.18750        0.06250
 BRILLOUIN|   214           0.00391       -0.06250       -0.18750        0.18750
 BRILLOUIN|   215           0.00391       -0.06250       -0.18750        0.31250
 BRILLOUIN|   216           0.00391       -0.06250       -0.18750        0.43750
 BRILLOUIN|   217           0.00391       -0.06250       -0.06250       -0.43750
 BRILLOUIN|   218           0.00391       -0.06250       -0.06250       -0.31250
 BRILLOUIN|   219           0.00391       -0.06250       -0.06250       -0.18750
 BRILLOUIN|   220           0.00391       -0.06250       -0.06250       -0.06250
 BRILLOUIN|   221           0.00391       -0.06250       -0.06250        0.06250
 BRILLOUIN|   222           0.00391       -0.06250       -0.06250        0.18750
 BRILLOUIN|   223           0.00391       -0.06250       -0.06250        0.31250
 BRILLOUIN|   224           0.00391       -0.06250       -0.06250        0.43750
 BRILLOUIN|   225           0.00391       -0.06250        0.06250       -0.43750
 BRILLOUIN|   226           0.00391       -0.06250        0.06250       -0.31250
 BRILLOUIN|   227           0.00391       -0.06250        0.06250       -0.18750
 BRILLOUIN|   228           0.00391       -0.06250        0.06250       -0.06250
 BRILLOUIN|   229           0.00391       -0.06250        0.06250        0.06250
 BRILLOUIN|   230           0.00391       -0.06250        0.06250        0.18750
 BRILLOUIN|   231           0.00391       -0.06250        0.06250        0.31250
 BRILLOUIN|   232           0.00391       -0.06250        0.06250        0.43750
 BRILLOUIN|   233           0.00391       -0.06250        0.18750       -0.43750
 BRILLOUIN|   234           0.00391       -0.06250        0.18750       -0.31250
 BRILLOUIN|   235           0.00391       -0.06250        0.18750       -0.18750
 BRILLOUIN|   236           0.00391       -0.06250        0.18750       -0.06250
 BRILLOUIN|   237           0.00391       -0.06250        0.18750        0.06250
 BRILLOUIN|   238           0.00391       -0.06250        0.18750        0.18750
 BRILLOUIN|   239           0.00391       -0.06250        0.18750        0.31250
 BRILLOUIN|   240           0.00391       -0.06250        0.18750        0.43750
 BRILLOUIN|   241           0.00391       -0.06250        0.31250       -0.43750
 BRILLOUIN|   242           0.00391       -0.06250        0.31250       -0.31250
 BRILLOUIN|   243           0.00391       -0.06250        0.31250       -0.18750
 BRILLOUIN|   244           0.00391       -0.06250        0.31250       -0.06250
 BRILLOUIN|   245           0.00391       -0.06250        0.31250        0.06250
 BRILLOUIN|   246           0.00391       -0.06250        0.31250        0.18750
 BRILLOUIN|   247           0.00391       -0.06250        0.31250        0.31250
 BRILLOUIN|   248           0.00391       -0.06250        0.31250        0.43750
 BRILLOUIN|   249           0.00391       -0.06250        0.43750       -0.43750
 BRILLOUIN|   250           0.00391       -0.06250        0.43750       -0.31250
 BRILLOUIN|   251           0.00391       -0.06250        0.43750       -0.18750
 BRILLOUIN|   252           0.00391       -0.06250        0.43750       -0.06250
 BRILLOUIN|   253           0.00391       -0.06250        0.43750        0.06250
 BRILLOUIN|   254           0.00391       -0.06250        0.43750        0.18750
 BRILLOUIN|   255           0.00391       -0.06250        0.43750        0.31250
 BRILLOUIN|   256           0.00391       -0.06250        0.43750        0.43750
 *******************************************************************************

 *******************************************************************************
 *******************************************************************************
 **                                                                           **
 **     #####                         ##              ##                      **
 **    ##   ##            ##          ##              ##                      **
 **   ##     ##                       ##            ######                    **
 **   ##     ##  ##   ##  ##   #####  ##  ##   ####   ##    #####    #####    **
 **   ##     ##  ##   ##  ##  ##      ## ##   ##      ##   ##   ##  ##   ##   **
 **   ##  ## ##  ##   ##  ##  ##      ####     ###    ##   ######   ######    **
 **    ##  ###   ##   ##  ##  ##      ## ##      ##   ##   ##       ##        **
 **     #######   #####   ##   #####  ##  ##  ####    ##    #####   ##        **
 **           ##                                                    ##        **
 **                                                                           **
 **                                                ... make the atoms dance   **
 **                                                                           **
 **            Copyright (C) by CP2K developers group (2000-2025)             **
 **                      J. Chem. Phys. 152, 194103 (2020)                    **
 **                                                                           **
 *******************************************************************************

 DFT| Spin restricted Kohn-Sham (RKS) calculation                            RKS
 DFT| Multiplicity                                                             1
 DFT| Number of spin states                                                    1
 DFT| Charge                                                                   0
 DFT| Self-interaction correction (SIC)                                       NO
 DFT| Cutoffs: density                                              1.000000E-10
 DFT|          gradient                                             1.000000E-10
 DFT|          tau                                                  1.000000E-10
 DFT|          cutoff_smoothing_range                               0.000000E+00
 DFT| XC density smoothing                                                  NONE
 DFT| XC derivatives                                                          PW

 FUNCTIONAL| PBE:
 FUNCTIONAL| J.P.Perdew, K.Burke, M.Ernzerhof, Phys. Rev. Letter, vol. 77, n 18,
 FUNCTIONAL|  pp. 3865-3868, (1996) {spin unpolarized}                          


 QS| Method:                                                                 GPW
 QS| Density plane wave grid type                        NON-SPHERICAL FULLSPACE
 QS| Number of grid levels:                                                    4
 QS| Density cutoff [a.u.]:                                                500.0
 QS| Multi grid cutoff [a.u.]: 1) grid level                               500.0
 QS|                           2) grid level                               166.7
 QS|                           3) grid level                                55.6
 QS|                           4) grid level                                18.5
 QS| Grid level progression factor:                                          3.0
 QS| Relative density cutoff [a.u.]:                                        50.0
 QS| Interaction thresholds: eps_pgf_orb:                                1.0E-16
 QS|                         eps_filter_matrix:                          0.0E+00
 QS|                         eps_core_charge:                            1.0E-18
 QS|                         eps_rho_gspace:                             1.0E-16
 QS|                         eps_rho_rspace:                             1.0E-16
 QS|                         eps_gvg_rspace:                             1.0E-08
 QS|                         eps_ppl:                                    1.0E-02
 QS|                         eps_ppnl:                                   1.0E-10


 ATOMIC KIND INFORMATION

  1. Atomic kind: Ar                                    Number of atoms:       4

     Orbital Basis Set                                aug-TZVP-MOLOPT-GTH-tier-1

       Number of orbital shell sets:                                           1
       Number of orbital shells:                                              13
       Number of primitive Cartesian functions:                                6
       Number of Cartesian basis functions:                                   54
       Number of spherical basis functions:                                   45
       Norm type:                                                              2

       Normalised Cartesian orbitals:

                        Set   Shell   Orbital            Exponent    Coefficient

                          1       1    2s                0.126465       0.070468
                                                         0.200000       0.000000
                                                         0.383242       0.206602
                                                         1.018307       0.110761
                                                         2.818191      -0.660865
                                                         4.716627       0.374061

                          1       2    3s                0.126465       0.204252
                                                         0.200000       0.000000
                                                         0.383242      -0.332085
                                                         1.018307      -0.517565
                                                         2.818191       0.088103
                                                         4.716627       1.019787

                          1       3    4s                0.126465       0.013743
                                                         0.200000       0.000000
                                                         0.383242       0.059431
                                                         1.018307       0.103028
                                                         2.818191       0.757891
                                                         4.716627       0.588113

                          1       4    5s                0.126465       0.534803
                                                         0.200000      -0.722686
                                                         0.383242       0.249357
                                                         1.018307      -0.205496
                                                         2.818191       0.000000
                                                         4.716627       0.000000

                          1       5    3px               0.126465      -0.011020
                                                         0.200000       0.000000
                                                         0.383242      -0.233904
                                                         1.018307      -0.547535
                                                         2.818191      -0.723338
                                                         4.716627       0.066992
                          1       5    3py               0.126465      -0.011020
                                                         0.200000       0.000000
                                                         0.383242      -0.233904
                                                         1.018307      -0.547535
                                                         2.818191      -0.723338
                                                         4.716627       0.066992
                          1       5    3pz               0.126465      -0.011020
                                                         0.200000       0.000000
                                                         0.383242      -0.233904
                                                         1.018307      -0.547535
                                                         2.818191      -0.723338
                                                         4.716627       0.066992

                          1       6    4px               0.126465      -0.073124
                                                         0.200000       0.000000
                                                         0.383242      -0.028086
                                                         1.018307       0.068308
                                                         2.818191       3.317578
                                                         4.716627       1.290914
                          1       6    4py               0.126465      -0.073124
                                                         0.200000       0.000000
                                                         0.383242      -0.028086
                                                         1.018307       0.068308
                                                         2.818191       3.317578
                                                         4.716627       1.290914
                          1       6    4pz               0.126465      -0.073124
                                                         0.200000       0.000000
                                                         0.383242      -0.028086
                                                         1.018307       0.068308
                                                         2.818191       3.317578
                                                         4.716627       1.290914

                          1       7    5px               0.126465       0.067058
                                                         0.200000       0.000000
                                                         0.383242       0.035868
                                                         1.018307      -0.750555
                                                         2.818191       3.251514
                                                         4.716627       4.235687
                          1       7    5py               0.126465       0.067058
                                                         0.200000       0.000000
                                                         0.383242       0.035868
                                                         1.018307      -0.750555
                                                         2.818191       3.251514
                                                         4.716627       4.235687
                          1       7    5pz               0.126465       0.067058
                                                         0.200000       0.000000
                                                         0.383242       0.035868
                                                         1.018307      -0.750555
                                                         2.818191       3.251514
                                                         4.716627       4.235687

                          1       8    6px               0.126465       0.301543
                                                         0.200000      -0.478976
                                                         0.383242       0.182453
                                                         1.018307      -0.385526
                                                         2.818191       0.000000
                                                         4.716627       0.000000
                          1       8    6py               0.126465       0.301543
                                                         0.200000      -0.478976
                                                         0.383242       0.182453
                                                         1.018307      -0.385526
                                                         2.818191       0.000000
                                                         4.716627       0.000000
                          1       8    6pz               0.126465       0.301543
                                                         0.200000      -0.478976
                                                         0.383242       0.182453
                                                         1.018307      -0.385526
                                                         2.818191       0.000000
                                                         4.716627       0.000000

                          1       9    4dx2              0.126465      -0.002432
                                                         0.200000       0.000000
                                                         0.383242       0.247981
                                                         1.018307       0.380702
                                                         2.818191       1.766845
                                                         4.716627      -1.292915
                          1       9    4dxy              0.126465      -0.004212
                                                         0.200000       0.000000
                                                         0.383242       0.429516
                                                         1.018307       0.659396
                                                         2.818191       3.060265
                                                         4.716627      -2.239395
                          1       9    4dxz              0.126465      -0.004212
                                                         0.200000       0.000000
                                                         0.383242       0.429516
                                                         1.018307       0.659396
                                                         2.818191       3.060265
                                                         4.716627      -2.239395
                          1       9    4dy2              0.126465      -0.002432
                                                         0.200000       0.000000
                                                         0.383242       0.247981
                                                         1.018307       0.380702
                                                         2.818191       1.766845
                                                         4.716627      -1.292915
                          1       9    4dyz              0.126465      -0.004212
                                                         0.200000       0.000000
                                                         0.383242       0.429516
                                                         1.018307       0.659396
                                                         2.818191       3.060265
                                                         4.716627      -2.239395
                          1       9    4dz2              0.126465      -0.002432
                                                         0.200000       0.000000
                                                         0.383242       0.247981
                                                         1.018307       0.380702
                                                         2.818191       1.766845
                                                         4.716627      -1.292915

                          1      10    5dx2              0.126465       0.016935
                                                         0.200000       0.000000
                                                         0.383242       0.076897
                                                         1.018307      -0.668309
                                                         2.818191      -5.732456
                                                         4.716627      -3.235069
                          1      10    5dxy              0.126465       0.029333
                                                         0.200000       0.000000
                                                         0.383242       0.133189
                                                         1.018307      -1.157544
                                                         2.818191      -9.928905
                                                         4.716627      -5.603303
                          1      10    5dxz              0.126465       0.029333
                                                         0.200000       0.000000
                                                         0.383242       0.133189
                                                         1.018307      -1.157544
                                                         2.818191      -9.928905
                                                         4.716627      -5.603303
                          1      10    5dy2              0.126465       0.016935
                                                         0.200000       0.000000
                                                         0.383242       0.076897
                                                         1.018307      -0.668309
                                                         2.818191      -5.732456
                                                         4.716627      -3.235069
                          1      10    5dyz              0.126465       0.029333
                                                         0.200000       0.000000
                                                         0.383242       0.133189
                                                         1.018307      -1.157544
                                                         2.818191      -9.928905
                                                         4.716627      -5.603303
                          1      10    5dz2              0.126465       0.016935
                                                         0.200000       0.000000
                                                         0.383242       0.076897
                                                         1.018307      -0.668309
                                                         2.818191      -5.732456
                                                         4.716627      -3.235069

                          1      11    6dx2              0.126465       0.054199
                                                         0.200000      -0.023339
                                                         0.383242      -0.011614
                                                         1.018307       0.041199
                                                         2.818191       0.000000
                                                         4.716627       0.000000
                          1      11    6dxy              0.126465       0.093876
                                                         0.200000      -0.040425
                                                         0.383242      -0.020116
                                                         1.018307       0.071359
                                                         2.818191       0.000000
                                                         4.716627       0.000000
                          1      11    6dxz              0.126465       0.093876
                                                         0.200000      -0.040425
                                                         0.383242      -0.020116
                                                         1.018307       0.071359
                                                         2.818191       0.000000
                                                         4.716627       0.000000
                          1      11    6dy2              0.126465       0.054199
                                                         0.200000      -0.023339
                                                         0.383242      -0.011614
                                                         1.018307       0.041199
                                                         2.818191       0.000000
                                                         4.716627       0.000000
                          1      11    6dyz              0.126465       0.093876
                                                         0.200000      -0.040425
                                                         0.383242      -0.020116
                                                         1.018307       0.071359
                                                         2.818191       0.000000
                                                         4.716627       0.000000
                          1      11    6dz2              0.126465       0.054199
                                                         0.200000      -0.023339
                                                         0.383242      -0.011614
                                                         1.018307       0.041199
                                                         2.818191       0.000000
                                                         4.716627       0.000000

                          1      12    5fx3              0.126465       0.000748
                                                         0.200000       0.000000
                                                         0.383242       0.155070
                                                         1.018307       0.207296
                                                         2.818191      -4.351577
                                                         4.716627       2.509514
                          1      12    5fx2y             0.126465       0.001672
                                                         0.200000       0.000000
                                                         0.383242       0.346748
                                                         1.018307       0.463528
                                                         2.818191      -9.730422
                                                         4.716627       5.611443
                          1      12    5fx2z             0.126465       0.001672
                                                         0.200000       0.000000
                                                         0.383242       0.346748
                                                         1.018307       0.463528
                                                         2.818191      -9.730422
                                                         4.716627       5.611443
                          1      12    5fxy2             0.126465       0.001672
                                                         0.200000       0.000000
                                                         0.383242       0.346748
                                                         1.018307       0.463528
                                                         2.818191      -9.730422
                                                         4.716627       5.611443
                          1      12    5fxyz             0.126465       0.002896
                                                         0.200000       0.000000
                                                         0.383242       0.600585
                                                         1.018307       0.802854
                                                         2.818191     -16.853586
                                                         4.716627       9.719305
                          1      12    5fxz2             0.126465       0.001672
                                                         0.200000       0.000000
                                                         0.383242       0.346748
                                                         1.018307       0.463528
                                                         2.818191      -9.730422
                                                         4.716627       5.611443
                          1      12    5fy3              0.126465       0.000748
                                                         0.200000       0.000000
                                                         0.383242       0.155070
                                                         1.018307       0.207296
                                                         2.818191      -4.351577
                                                         4.716627       2.509514
                          1      12    5fy2z             0.126465       0.001672
                                                         0.200000       0.000000
                                                         0.383242       0.346748
                                                         1.018307       0.463528
                                                         2.818191      -9.730422
                                                         4.716627       5.611443
                          1      12    5fyz2             0.126465       0.001672
                                                         0.200000       0.000000
                                                         0.383242       0.346748
                                                         1.018307       0.463528
                                                         2.818191      -9.730422
                                                         4.716627       5.611443
                          1      12    5fz3              0.126465       0.000748
                                                         0.200000       0.000000
                                                         0.383242       0.155070
                                                         1.018307       0.207296
                                                         2.818191      -4.351577
                                                         4.716627       2.509514

                          1      13    6fx3              0.126465       0.000477
                                                         0.200000       0.034764
                                                         0.383242       0.014628
                                                         1.018307       0.087097
                                                         2.818191       0.000000
                                                         4.716627       0.000000
                          1      13    6fx2y             0.126465       0.001068
                                                         0.200000       0.077736
                                                         0.383242       0.032708
                                                         1.018307       0.194756
                                                         2.818191       0.000000
                                                         4.716627       0.000000
                          1      13    6fx2z             0.126465       0.001068
                                                         0.200000       0.077736
                                                         0.383242       0.032708
                                                         1.018307       0.194756
                                                         2.818191       0.000000
                                                         4.716627       0.000000
                          1      13    6fxy2             0.126465       0.001068
                                                         0.200000       0.077736
                                                         0.383242       0.032708
                                                         1.018307       0.194756
                                                         2.818191       0.000000
                                                         4.716627       0.000000
                          1      13    6fxyz             0.126465       0.001849
                                                         0.200000       0.134642
                                                         0.383242       0.056653
                                                         1.018307       0.337327
                                                         2.818191       0.000000
                                                         4.716627       0.000000
                          1      13    6fxz2             0.126465       0.001068
                                                         0.200000       0.077736
                                                         0.383242       0.032708
                                                         1.018307       0.194756
                                                         2.818191       0.000000
                                                         4.716627       0.000000
                          1      13    6fy3              0.126465       0.000477
                                                         0.200000       0.034764
                                                         0.383242       0.014628
                                                         1.018307       0.087097
                                                         2.818191       0.000000
                                                         4.716627       0.000000
                          1      13    6fy2z             0.126465       0.001068
                                                         0.200000       0.077736
                                                         0.383242       0.032708
                                                         1.018307       0.194756
                                                         2.818191       0.000000
                                                         4.716627       0.000000
                          1      13    6fyz2             0.126465       0.001068
                                                         0.200000       0.077736
                                                         0.383242       0.032708
                                                         1.018307       0.194756
                                                         2.818191       0.000000
                                                         4.716627       0.000000
                          1      13    6fz3              0.126465       0.000477
                                                         0.200000       0.034764
                                                         0.383242       0.014628
                                                         1.018307       0.087097
                                                         2.818191       0.000000
                                                         4.716627       0.000000

       Atomic covalent radius [Angstrom]:                                  0.980

       Atomic van der Waals radius [Angstrom]:                             1.880

     GTH Potential information for                                       GTH-PBE

       Description:                       Goedecker-Teter-Hutter pseudopotential
                                           Goedecker et al., PRB 54, 1703 (1996)
                                          Hartwigsen et al., PRB 58, 3641 (1998)
                                                      Krack, TCA 114, 145 (2005)

       Gaussian exponent of the core charge distribution:               3.125000
       Electronic configuration (s p d ...):                               2   6

       Parameters of the local part of the GTH pseudopotential:

                          rloc        C1          C2          C3          C4
                        0.400000   -7.100000

       Parameters of the non-local part of the GTH (SOC) pseudopotential:

                   l      r(l)      h(i,j,l)
                                    k(i,j,l)
                   0    0.318815   17.252038   -5.585488
                                   -5.585488    7.210834
                   1    0.353370    4.974216    0.000000
                                    0.000000    0.000000
                                    0.057096   -0.039278
                                   -0.039278    0.046474


 MOLECULE KIND INFORMATION


 All atoms are their own molecule, skipping detailed information


 TOTAL NUMBERS AND MAXIMUM NUMBERS

  Total number of            - Atomic kinds:                                   1
                             - Atoms:                                          4
                             - Shell sets:                                     4
                             - Shells:                                        52
                             - Primitive Cartesian functions:                 24
                             - Cartesian basis functions:                    216
                             - Spherical basis functions:                    180

  Maximum angular momentum of- Orbital basis functions:                        3
                             - Local part of the GTH pseudopotential:          0
                             - Non-local part of the GTH pseudopotential:      3


 MODULE QUICKSTEP: ATOMIC COORDINATES IN ANGSTROM

   Atom Kind Element         X             Y             Z       Z(eff)     Mass
      1    1 Ar   18      0.000000      0.000000      0.000000   8.0000  39.9480
      2    1 Ar   18      0.000000      2.975295      2.975295   8.0000  39.9480
      3    1 Ar   18      2.975295      0.000000      2.975295   8.0000  39.9480
      4    1 Ar   18      2.975295      2.975295      0.000000   8.0000  39.9480



 SCF PARAMETERS         Density guess:                                    ATOMIC
                        --------------------------------------------------------
                        max_scf:                                             500
                        max_scf_history:                                       0
                        max_diis:                                              4
                        --------------------------------------------------------
                        eps_scf:                                        1.00E-09
                        eps_scf_history:                                0.00E+00
                        eps_diis:                                       1.00E-01
                        eps_eigval:                                     1.00E-05
                        --------------------------------------------------------
                        level_shift [a.u.]:                             0.000000
                        added MOs                                       164    0
                        --------------------------------------------------------
                        Mixing method:                            BROYDEN_MIXING
                                                charge density mixing in g-space
                        --------------------------------------------------------
                        No outer SCF

 PW_GRID| Information for grid number                                          1
 PW_GRID| Grid distributed over                                    16 processors
 PW_GRID| Real space group dimensions                                    16    1
 PW_GRID| the grid is blocked:                                                NO
 PW_GRID| Cutoff [a.u.]                                                    500.0
 PW_GRID| spherical cutoff:                                                   NO
 PW_GRID|   Bounds   1            -60      59                Points:         120
 PW_GRID|   Bounds   2            -60      59                Points:         120
 PW_GRID|   Bounds   3            -60      59                Points:         120
 PW_GRID| Volume element (a.u.^3)  0.8229E-03     Volume (a.u.^3)      1421.9250
 PW_GRID| Grid span                                                    FULLSPACE
 PW_GRID|   Distribution                         Average         Max         Min
 PW_GRID|   G-Vectors                           108000.0      108000      108000
 PW_GRID|   G-Rays                                 900.0         900         900
 PW_GRID|   Real Space Points                   108000.0      115200      100800

 PW_GRID| Information for grid number                                          2
 PW_GRID| Number of the reference grid                                         1
 PW_GRID| Grid distributed over                                    16 processors
 PW_GRID| Real space group dimensions                                    16    1
 PW_GRID| the grid is blocked:                                                NO
 PW_GRID| Cutoff [a.u.]                                                    166.7
 PW_GRID| spherical cutoff:                                                   NO
 PW_GRID|   Bounds   1            -36      35                Points:          72
 PW_GRID|   Bounds   2            -36      35                Points:          72
 PW_GRID|   Bounds   3            -36      35                Points:          72
 PW_GRID| Volume element (a.u.^3)  0.3810E-02     Volume (a.u.^3)      1421.9250
 PW_GRID| Grid span                                                    FULLSPACE
 PW_GRID|   Distribution                         Average         Max         Min
 PW_GRID|   G-Vectors                            23328.0       23472       23256
 PW_GRID|   G-Rays                                 324.0         326         323
 PW_GRID|   Real Space Points                    23328.0       25920       20736

 PW_GRID| Information for grid number                                          3
 PW_GRID| Number of the reference grid                                         1
 PW_GRID| Grid distributed over                                    16 processors
 PW_GRID| Real space group dimensions                                    16    1
 PW_GRID| the grid is blocked:                                                NO
 PW_GRID| Cutoff [a.u.]                                                     55.6
 PW_GRID| spherical cutoff:                                                   NO
 PW_GRID|   Bounds   1            -20      19                Points:          40
 PW_GRID|   Bounds   2            -20      19                Points:          40
 PW_GRID|   Bounds   3            -20      19                Points:          40
 PW_GRID| Volume element (a.u.^3)  0.2222E-01     Volume (a.u.^3)      1421.9250
 PW_GRID| Grid span                                                    FULLSPACE
 PW_GRID|   Distribution                         Average         Max         Min
 PW_GRID|   G-Vectors                             4000.0        4080        3960
 PW_GRID|   G-Rays                                 100.0         102          99
 PW_GRID|   Real Space Points                     4000.0        4800        3200

 PW_GRID| Information for grid number                                          4
 PW_GRID| Number of the reference grid                                         1
 PW_GRID| Grid distributed over                                    16 processors
 PW_GRID| Real space group dimensions                                    16    1
 PW_GRID| the grid is blocked:                                                NO
 PW_GRID| Cutoff [a.u.]                                                     18.5
 PW_GRID| spherical cutoff:                                                   NO
 PW_GRID|   Bounds   1            -12      11                Points:          24
 PW_GRID|   Bounds   2            -12      11                Points:          24
 PW_GRID|   Bounds   3            -12      11                Points:          24
 PW_GRID| Volume element (a.u.^3)  0.1029         Volume (a.u.^3)      1421.9250
 PW_GRID| Grid span                                                    FULLSPACE
 PW_GRID|   Distribution                         Average         Max         Min
 PW_GRID|   G-Vectors                              864.0         912         840
 PW_GRID|   G-Rays                                  36.0          38          35
 PW_GRID|   Real Space Points                      864.0        1152         576

 POISSON| Solver                                                        PERIODIC
 POISSON| Periodicity                                                        XYZ

 RS_GRID| Information for grid number                                          1
 RS_GRID|   Bounds   1            -60      59                Points:         120
 RS_GRID|   Bounds   2            -60      59                Points:         120
 RS_GRID|   Bounds   3            -60      59                Points:         120
 RS_GRID| Real space fully replicated
 RS_GRID| Group size                                                           1

 RS_GRID| Information for grid number                                          2
 RS_GRID|   Bounds   1            -36      35                Points:          72
 RS_GRID|   Bounds   2            -36      35                Points:          72
 RS_GRID|   Bounds   3            -36      35                Points:          72
 RS_GRID| Real space fully replicated
 RS_GRID| Group size                                                           1

 RS_GRID| Information for grid number                                          3
 RS_GRID|   Bounds   1            -20      19                Points:          40
 RS_GRID|   Bounds   2            -20      19                Points:          40
 RS_GRID|   Bounds   3            -20      19                Points:          40
 RS_GRID| Real space fully replicated
 RS_GRID| Group size                                                           1

 RS_GRID| Information for grid number                                          4
 RS_GRID|   Bounds   1            -12      11                Points:          24
 RS_GRID|   Bounds   2            -12      11                Points:          24
 RS_GRID|   Bounds   3            -12      11                Points:          24
 RS_GRID| Real space fully replicated
 RS_GRID| Group size                                                           1

 Number of electrons:                                                         32
 Number of occupied orbitals:                                                 16
 Number of molecular orbitals:                                               180

 Number of orbital functions:                                                180
 Number of independent orbital functions:                                    180

 Extrapolation method: initial_guess

 Atomic guess: The first density matrix is obtained in terms of atomic orbitals
               and electronic configurations assigned to each atomic kind

 Guess for atomic kind: Ar

 Electronic structure
    Total number of core electrons                                         10.00
    Total number of valence electrons                                       8.00
    Total number of electrons                                              18.00
    Multiplicity                                                   not specified
    S   [  2.00  2.00] 2.00
    P   [  6.00] 6.00


 *******************************************************************************
                  Iteration          Convergence                     Energy [au]
 *******************************************************************************
                          1        0.131293                     -20.931908134037
                          2        0.132831                     -20.933007719238
                          3        0.182227E-02                 -20.935641557804
                          4        0.753290E-04                 -20.935642071055
                          5        0.223920E-07                 -20.935642072147

 Energy components [Hartree]           Total Energy ::          -20.935642072147
                                        Band Energy ::           -3.940940127258
                                     Kinetic Energy ::            7.843141290776
                                   Potential Energy ::          -28.778783362922
                                      Virial (-V/T) ::            3.669292990650
                                        Core Energy ::          -35.474435411901
                                          XC Energy ::           -3.554474526938
                                     Coulomb Energy ::           18.093267866692
                       Total Pseudopotential Energy ::          -43.366525396372
                       Local Pseudopotential Energy ::          -47.831055831536
                    Nonlocal Pseudopotential Energy ::            4.464530435164
                                        Confinement ::            0.489486936959

 Orbital energies  State     L     Occupation   Energy[a.u.]          Energy[eV]

                       1     0          2.000      -0.877393          -23.875090

                       1     1          6.000      -0.364359           -9.914709


 Total Electron Density at R=0:                                         0.000001
 Re-scaling the density matrix to get the right number of electrons
                  # Electrons              Trace(P)               Scaling factor
                           32                32.000                        1.000


 SCF WAVEFUNCTION OPTIMIZATION

  Step     Update method      Time    Convergence         Total energy    Change
  ------------------------------------------------------------------------------
     1 NoMix/Diag. 0.50E-01    2.7     0.02089507       -84.3027626108 -8.43E+01
     2 Broy./Diag. 0.50E-01    2.6     0.00009937       -84.1550461959  1.48E-01
     3 Broy./Diag. 0.50E-01    2.6     0.00203332       -84.2269957530 -7.19E-02
     4 Broy./Diag. 0.50E-01    2.6     0.00000935       -84.3026786571 -7.57E-02
     5 Broy./Diag. 0.50E-01    2.6     0.00004289       -84.3019667945  7.12E-04
     6 Broy./Diag. 0.50E-01    2.6     0.00000098       -84.3026594189 -6.93E-04
     7 Broy./Diag. 0.50E-01    2.6     0.00002125       -84.3025062045  1.53E-04
     8 Broy./Diag. 0.50E-01    2.6     0.00000098       -84.3020030071  5.03E-04
     9 Broy./Diag. 0.50E-01    2.6     0.00001140       -84.3020037463 -7.39E-07
    10 Broy./Diag. 0.50E-01    2.6     0.00000120       -84.3017283548  2.75E-04
    11 Broy./Diag. 0.50E-01    2.6     0.00000067       -84.3016877857  4.06E-05
    12 Broy./Diag. 0.50E-01    2.6     0.00000097       -84.3016448243  4.30E-05
    13 Broy./Diag. 0.50E-01    2.6     0.00000004       -84.3016172344  2.76E-05
    14 Broy./Diag. 0.50E-01    2.6     0.00000081       -84.3016407136 -2.35E-05
[...]
 CP2K is freely available from https://www.cp2k.org/ .
 
 T. D. Kuehne, M. Iannuzzi, M. Del Ben, V. V. Rybkin, P. Seewald, F. Stein, T. 
 Laino, R. Z. Khaliullin, O. Schuett, F. Schiffmann, D. Golze, J. Wilhelm, S. 
 Chulkov, M. H. Bani-Hashemian, V. Weber, U. Borstnik, M. Taillefumier, A. S. 
 Jakobovits, A. Lazzaro, H. Pabst, T. Mueller, R. Schade, M. Guidon, S. 
 Andermatt, N. Holmberg, G. K. Schenter, A. Hehn, A. Bussy, F. Belleflamme, G. 
 Tabacchi, A. Gloess, M. Lass, I. Bethune, C. J. Mundy, C. Plessl, M. Watkins, 
 J. VandeVondele, M. Krack, J. Hutter.
 J. Chem. Phys. 152, 194103 (2020).
 CP2K: An electronic structure and molecular dynamics software package - 
 Quickstep: Efficient and accurate electronic structure calculations.
 https://doi.org/10.1063/5.0007045

 O. Schuett, P. Messmer, J. Hutter, J. VandeVondele.
 Electronic Structure Calculations on Graphics Processing Units, 173-190 (2016).
 GPU-Accelerated Sparse Matrix-Matrix Multiplication for Linear Scaling Density 
 Functional Theory.
 https://doi.org/10.1002/9781118670712.ch8

 J. Hutter, M. Iannuzzi, F. Schiffmann, J. VandeVondele.
 WIREs Comput Mol Sci. 4, 15-25 (2014).
 CP2K: atomistic simulations of condensed matter systems.
 https://doi.org/10.1002/wcms.1159

 U. Borstnik, J. VandeVondele, V. Weber, J. Hutter.
 Parallel Comput. 40, 47-58 (2014).
 Sparse matrix multiplication: The distributed block-compressed sparse row 
 library.
 https://doi.org/10.1016/j.parco.2014.03.012

 J. VandeVondele, J. Hutter.
 J. Chem. Phys. 127, 114105 (2007).
 Gaussian basis sets for accurate calculations on molecular systems in gas and 
 condensed phases.
 https://doi.org/10.1063/1.2770708

 J. VandeVondele, M. Krack, F. Mohamed, M. Parrinello, T. Chassaing, J. Hutter.
 Comput. Phys. Commun. 167, 103-128 (2005).
 QUICKSTEP: Fast and accurate density functional calculations using a mixed 
 Gaussian and plane waves approach.
 https://doi.org/10.1016/j.cpc.2004.12.014

 M. Krack.
 Theor. Chem. Acc. 114, 145-152 (2005).
 Pseudopotentials for H to Kr optimized for gradient-corrected 
 exchange-correlation functionals.
 https://doi.org/10.1007/s00214-005-0655-y

 M. Frigo, S. G. Johnson.
 Proc. IEEE 93, 216-231 (2005).
 The design and implementation of FFTW3.
 https://doi.org/10.1109/JPROC.2004.840301

 C. Hartwigsen, S. Goedecker, J. Hutter.
 Phys. Rev. B 58, 3641-3662 (1998).
 Relativistic separable dual-space Gaussian pseudopotentials from H to Rn.
 https://doi.org/10.1103/PhysRevB.58.3641

 G. Lippert, J. Hutter, M. Parrinello.
 Mol. Phys. 92, 477-487 (1997).
 A hybrid Gaussian and plane wave density functional scheme.
 https://doi.org/10.1080/002689797170220

 S. Goedecker, M. Teter, J. Hutter.
 Phys. Rev. B 54, 1703-1710 (1996).
 Separable dual-space Gaussian pseudopotentials.
 https://doi.org/10.1103/PhysRevB.54.1703

 J. P. Perdew, K. Burke, M. Ernzerhof.
 Phys. Rev. Lett. 77, 3865-3868 (1996).
 Generalized gradient approximation made simple.
 https://doi.org/10.1103/PhysRevLett.77.3865


 -------------------------------------------------------------------------------
 -                                                                             -
 -                                T I M I N G                                  -
 -                                                                             -
 -------------------------------------------------------------------------------
 SUBROUTINE                       CALLS  ASD         SELF TIME        TOTAL TIME
                                MAXIMUM       AVERAGE  MAXIMUM  AVERAGE  MAXIMUM
 CP2K                                 1  1.0    0.009    0.012   57.021   57.021
 qs_energies                          1  2.0    0.006    0.064   56.775   56.821
 scf_env_do_scf                       1  3.0    0.000    0.000   54.969   54.969
 scf_env_do_scf_inner_loop           21  4.0    0.005    0.006   54.969   54.969
 do_general_diag_kp                  22  5.9    0.129    0.143   52.543   52.994
 qs_scf_new_mos_kp                   21  5.0    0.000    0.000   51.065   51.482
 mp_alltoall_i22                  77900  8.8    9.912   20.916    9.912   20.916
 dbcsr_desymmetrize_deep          44622  7.4    0.766    0.855   11.251   18.595
 dbcsr_complete_redistribute      33278  8.3    1.404    1.545   14.596   17.974
 copy_dbcsr_to_fm                 22526  6.9    0.256    0.275   13.847   13.965
 kpoint_density_transform            21  7.0    0.042    0.049   13.556   13.581
 rskp_transform                   11048  6.9    6.657   11.248    6.657   11.248
 copy_fm_to_dbcsr                 10752  8.0    0.066    0.073    5.744    8.934
 cp_fm_start_copy_general         32848  7.3    0.913    1.148    8.370    8.427
 mp_allgather_i                   65696  8.3    5.976    6.048    5.976    6.048
 transform_dmat                    5376  8.0    3.183    5.373    3.183    5.373
 cp_cfm_geeig                       373  6.7    0.005    0.005    4.891    5.009
 cp_cfm_heevd                       373  7.7    0.001    0.001    3.602    3.712
 cp_cfm_heevd_base                  373  8.7    3.601    3.711    3.601    3.711
 mp_alltoall_d11v                233700  9.3    2.955    3.124    2.955    3.124
 dbcsr_finalize                   81596  8.7    0.396    0.431    2.780    3.088
 mp_cart_sub                      45054  8.9    2.717    2.746    2.717    2.746
 qs_ks_update_qs_env                 21  5.0    0.000    0.000    1.563    1.962
 hybrid_alltoall_any              44622  8.4    0.189    0.205    1.819    1.955
 mp_alltoall_i11v                144456  9.0    1.738    1.808    1.738    1.808
 rebuild_ks_matrix                   21  6.0    0.000    0.000    1.382    1.782
 qs_ks_build_kohn_sham_matrix        21  7.0    0.009    0.010    1.382    1.781
 dbcsr_merge_all                  33278 10.3    0.785    1.001    1.494    1.751
 mp_cart_create                   22533  8.9    1.492    1.547    1.492    1.547
 qs_rho_update_rho_low               22  5.0    0.000    0.000    1.319    1.324
 calculate_rho_elec                  22  6.0    0.019    0.023    1.319    1.324
 sum_up_and_integrate                21  8.0    0.000    0.000    0.842    1.238
 integrate_v_rspace                  21  9.0    0.010    0.017    0.841    1.237
 mp_bcast_iv                     131416  8.3    0.991    1.081    0.991    1.081
 density_rs2pw                       22  7.0    0.001    0.001    0.699    1.036
 transfer_rs2pw                      90  8.0    0.001    0.002    0.633    0.993
 transfer_rs2pw_500                  24  8.9    0.117    0.131    0.549    0.908
 grid_collocate_task_list            22  7.0    0.596    0.863    0.596    0.863
 mp_sendrecv_dv                    1350 10.0    0.488    0.849    0.488    0.849
 cp_cfm_triangular_multiply        1119  7.7    0.827    0.842    0.827    0.842
 dbcsr_work_create                77900  8.8    0.479    0.492    0.789    0.818
 grid_integrate_task_list            21 10.0    0.420    0.812    0.420    0.812
 dbcsr_create_new                121864  8.3    0.562    0.607    0.693    0.749
 cp_fm_finish_copy_general        12244  7.8    0.691    0.714    0.713    0.741
 write_kpoints_restart               21  5.0    0.002    0.005    0.604    0.604
 dbcsr_data_new                  834361  9.7    0.560    0.599    0.560    0.599
 dbcsr_work_destroy_all           77900  9.8    0.371    0.378    0.590    0.598
 tree_to_linear_d                 33278 11.3    0.557    0.580    0.557    0.580
 dbcsr_iterator_start            224775  9.0    0.463    0.472    0.553    0.571
 kpoint_density_matrices             21  7.0    0.014    0.015    0.545    0.566
 fft_wrap_pw1pw2                    383 10.0    0.003    0.004    0.557    0.561
 copy_fm_to_dbcsr_bc              10752  9.0    0.153    0.169    0.507    0.547
 copy_dbcsr_to_fm_bc              22526  7.9    0.248    0.268    0.519    0.539
 parallel_gemm_fm                  1344  8.0    0.002    0.002    0.514    0.535
 parallel_gemm_fm_gemm             1344  9.0    0.002    0.002    0.513    0.533
 cp_fm_gemm                        1344 10.0    0.511    0.532    0.511    0.532
 fft_wrap_pw1pw2_500                254 11.3    0.043    0.045    0.511    0.515
 dbcsr_data_release             1148380 10.2    0.487    0.507    0.487    0.507
 fft3d_ps                           383 12.0    0.204    0.219    0.439    0.446
 dbcsr_destroy                   112834  8.2    0.194    0.206    0.393    0.418
 qs_vxc_create                       21  8.0    0.000    0.000    0.414    0.416
 xc_vxc_pw_create                    21  9.0    0.018    0.019    0.413    0.415
 potential_pw2rs                     21 10.0    0.002    0.002    0.411    0.414
 transfer_pw2rs                      85 11.0    0.001    0.001    0.359    0.360
 mp_waitall_1                    134831  8.3    0.217    0.357    0.217    0.357
 dbcsr_iterator_stop             224775  9.0    0.285    0.292    0.344    0.354
 cp_fm_write_unformatted            430  6.0    0.132    0.311    0.158    0.341
 gspace_mixing                       20  5.0    0.015    0.017    0.336    0.336
 mp_bcast_im                      65696  8.3    0.296    0.306    0.296    0.306
 dbcsr_copy                       19997  7.8    0.064    0.071    0.246    0.285
 quick_finalize                   44622  9.4    0.145    0.154    0.270    0.283
 broyden_mixing                      20  6.0    0.263    0.268    0.272    0.274
 transfer_pw2rs_500                  22 11.8    0.142    0.148    0.264    0.267
 xc_pw_derive                       126 11.0    0.000    0.000    0.255    0.264
 mp_comm_free                     67621  8.9    0.227    0.253    0.227    0.253
 cp_cfm_cholesky_decompose          373  7.7    0.225    0.236    0.225    0.236
 kpoint_set_mo_occupation            21  7.0    0.037    0.038    0.168    0.233
 xc_rho_set_and_dset_create          21 10.0    0.012    0.014    0.222    0.229
 mp_alltoall_z22v                   383 14.0    0.191    0.218    0.191    0.218
 cp_cfm_triangular_invert           373  7.7    0.208    0.213    0.208    0.213
 dbcsr_copy_into_existing         10967  9.9    0.104    0.133    0.167    0.199
 mp_sum_dm3                          21  8.0    0.131    0.196    0.131    0.196
 mp_send_dv                         430  7.0    0.024    0.191    0.024    0.191
 dbcsr_dot                         9031  8.0    0.057    0.073    0.178    0.185
 evaluate_core_matrix_traces         21  6.0    0.000    0.000    0.180    0.180
 calculate_ptrace_kp                 42  7.0    0.007    0.007    0.180    0.180
 xc_pw_divergence                    21 10.0    0.000    0.000    0.168    0.175
 mp_sum_d                          9621  8.6    0.122    0.165    0.122    0.165
 mp_isend_dv                      34624  8.2    0.125    0.140    0.125    0.140
 x_to_yz                            210 13.2    0.026    0.027    0.129    0.139
 dbcsr_set                        65779  8.1    0.066    0.070    0.112    0.135
 mp_sum_dv                          316  3.3    0.057    0.131    0.057    0.131
 self_consistency_check              21  5.0    0.007    0.007    0.113    0.126
 yz_to_x                            173 12.8    0.014    0.018    0.101    0.116
 cp_sm_mix                         4515  6.0    0.023    0.031    0.095    0.114
 init_scf_run                         1  3.0    0.000    0.000    0.104    0.110
 scf_env_initial_rho_setup            1  4.0    0.000    0.000    0.104    0.110
 dbcsr_sort_indices               90285 10.8    0.092    0.102    0.092    0.102
 dbcsr_iterator_seek             224775 10.0    0.090    0.100    0.090    0.100
 dbcsr_reserve_blocks             12385 10.4    0.077    0.087    0.089    0.100
 dbcsr_reserve_all_blocks         10752 10.0    0.017    0.020    0.091    0.100
 mp_max_d                          4517  7.0    0.061    0.093    0.061    0.093
 qs_energies_init_hamiltonians        1  3.0    0.000    0.000    0.090    0.090
 dbcsr_make_index_exist          121864  9.3    0.080    0.090    0.080    0.090
 xc_functional_eval                  21 11.0    0.000    0.000    0.080    0.087
 pbe_lda_eval                        21 12.0    0.080    0.086    0.080    0.086
 parser_read_line                  5064  4.1    0.002    0.002    0.081    0.082
 parser_read_line_low                23  6.2    0.006    0.031    0.079    0.081
 transfer_pw2rs_170                  21 12.0    0.033    0.035    0.072    0.080
 merge_index                      33278 11.3    0.063    0.080    0.063    0.080
 broadcast_input_information         23  7.2    0.025    0.030    0.073    0.076
 mp_isendrecv_dv                   1275 13.0    0.035    0.075    0.035    0.075
 cp_cfm_scale_and_add_fm           1492  6.7    0.067    0.070    0.067    0.070
 mp_irecv_iv                     131392  8.3    0.004    0.067    0.004    0.067
 transfer_rs2pw_170                  22  9.0    0.021    0.023    0.062    0.067
 qs_env_update_s_mstruct              1  4.0    0.000    0.000    0.051    0.067
 dbcsr_zero                       65779  9.1    0.046    0.065    0.046    0.065
 dbcsr_switch_data_area           44622 10.4    0.045    0.046    0.063    0.065
 calculate_rho_core                   1  5.0    0.001    0.002    0.045    0.064
 topology_control                     1  2.0    0.000    0.000    0.062    0.063
 restraint_control                    1  2.0    0.000    0.000    0.046    0.062
 mp_sum_i                             4  2.8    0.046    0.062    0.046    0.062
 cp_fm_cleanup_copy_general       22768  7.0    0.035    0.036    0.050    0.051
 build_core_hamiltonian_matrix        1  4.0    0.001    0.001    0.035    0.051
 create_qs_kind_set                   1  2.0    0.000    0.000    0.050    0.050
 read_qs_kind                         1  3.0    0.025    0.027    0.050    0.050
 dbcsr_data_copy_aa2              33278 11.2    0.040    0.050    0.040    0.050
 qs_init_subsys                       1  2.0    0.002    0.002    0.049    0.049
 scf_post_calculation_gpw             1  3.0    0.000    0.000    0.047    0.047
 write_available_results              1  4.0    0.000    0.000    0.047    0.047
 write_mo_free_results                1  5.0    0.001    0.002    0.047    0.047
 qs_env_setup                         1  3.0    0.000    0.000    0.046    0.046
 qs_env_rebuild_pw_env                2  3.5    0.000    0.000    0.046    0.046
 pw_env_rebuild                       1  5.0    0.000    0.000    0.045    0.046
 mp_isend_iv                      70024  8.3    0.006    0.045    0.006    0.045
 read_cell_cif                        2  4.5    0.002    0.004    0.042    0.043
 cp_dbcsr_alloc_block_from_nbl     1633  5.2    0.010    0.015    0.026    0.040
 pw_scatter_p                       210 12.2    0.039    0.040    0.039    0.040
 coordinate_control                   1  3.0    0.001    0.002    0.038    0.039
 coordinate_control_READ_COORDI       1  4.0    0.000    0.000    0.037    0.039
 read_coordinate_cif                  1  5.0    0.001    0.002    0.037    0.038
 pw_grid_setup                        4  6.0    0.000    0.000    0.037    0.037
 pw_grid_setup_internal               4  7.0    0.001    0.001    0.037    0.037
 dbcsr_distribution_new           33280  8.6    0.030    0.036    0.030    0.036
 pw_poisson_solve                    21  8.0    0.000    0.000    0.035    0.036
 dbcsr_make_dbcsr_index           90285 10.9    0.032    0.035    0.032    0.035
 mp_irecv_im2                     65696  8.3    0.002    0.033    0.002    0.033
 dbcsr_get_data_size_used         77900  9.8    0.031    0.033    0.031    0.033
 mp_bcast_i_src                      92  8.2    0.029    0.032    0.029    0.032
 cp_cfm_to_fm                       373  6.7    0.029    0.030    0.029    0.030
 mp_recv_dv                        1290  7.0    0.002    0.030    0.002    0.030
 fft_wrap_pw1pw2_170                 43 10.5    0.002    0.002    0.027    0.028
 mp_bcast_am_src                     23  8.2    0.013    0.014    0.019    0.027
 cp_cfm_to_cfm_columns              373  7.7    0.024    0.026    0.024    0.026
 pw_integral_ab_c1d_c1d_gs           21  9.0    0.023    0.023    0.024    0.024
 cp_fm_create                       348  4.1    0.021    0.023    0.021    0.023
 pw_grid_sort                         4  8.0    0.016    0.016    0.022    0.023
 calculate_hirshfeld_normalizat       1  6.0    0.002    0.007    0.021    0.022
 mixing_init                          1  5.0    0.020    0.022    0.022    0.022
 mp_irecv_dv                      34624  8.2    0.020    0.021    0.020    0.021
 hirshfeld_integration                1  6.0    0.002    0.008    0.020    0.021
 mp_isend_im2                     35012  8.3    0.003    0.020    0.003    0.020
 pw_gather_p                        173 11.8    0.019    0.020    0.019    0.020
 transfer_rs2pw_60                   22  9.0    0.004    0.004    0.016    0.019
 transfer_pw2rs_60                   21 12.0    0.006    0.006    0.016    0.018
 cp_fm_to_fm_matrix                 672  8.0    0.015    0.016    0.015    0.016
 kpoint_initialize_mos                2  2.5    0.000    0.001    0.014    0.016
 mixing_allocate                      1  3.0    0.001    0.001    0.011    0.015
 calculate_first_density_matrix       1  5.0    0.000    0.000    0.009    0.015
 calculate_atomic_block_dm            1  6.0    0.001    0.001    0.008    0.014
 build_overlap_matrix_low             1  5.0    0.004    0.007    0.009    0.014
 build_core_ppl                       1  5.0    0.006    0.012    0.006    0.012
 mp_sum_l                           429  2.1    0.010    0.012    0.010    0.012
 pw_copy                            315 10.5    0.011    0.011    0.011    0.011
 build_kinetic_matrix_low             1  5.0    0.003    0.005    0.007    0.011
 pw_derive                          189 11.3    0.010    0.011    0.010    0.011
 fft_wrap_pw1pw2_60                  43 10.5    0.001    0.001    0.010    0.010
 mp_sum_dm                           20  7.0    0.005    0.009    0.005    0.009
 pw_copy_from_array                 210 12.2    0.007    0.009    0.007    0.009
 mp_maxloc_dv                       881  1.0    0.008    0.008    0.008    0.008
 mp_sum_iv                           24  5.3    0.004    0.008    0.004    0.008
 qs_scf_ensure_work_matrices          1  3.0    0.000    0.000    0.004    0.007
 calculate_ecore_overlap              1  4.0    0.000    0.000    0.003    0.007
 pw_poisson_set                      22  8.9    0.000    0.000    0.007    0.007
 transfer_pw2rs_20                   21 12.0    0.002    0.002    0.007    0.007
 sort_shells                          4  9.0    0.007    0.007    0.007    0.007
 qs_scf_ensure_mos                    1  3.0    0.000    0.000    0.006    0.006
 qs_env_rebuild_rho                   1  5.0    0.000    0.000    0.004    0.006
 qs_rho_rebuild                       1  6.0    0.001    0.001    0.004    0.006
 grid_free_task_list                  1  2.0    0.005    0.006    0.005    0.006
 mp_bcast_av                        440  1.0    0.003    0.003    0.005    0.006
 fft_wrap_pw1pw2_20                  43 10.5    0.000    0.000    0.006    0.006
 transfer_rs2pw_20                   22  9.0    0.001    0.002    0.005    0.006
 -------------------------------------------------------------------------------

 The number of warnings for this run is : 1
 
 -------------------------------------------------------------------------------
  **** **** ******  **  PROGRAM ENDED AT                 2025-08-05 20:44:41.757
 ***** ** ***  *** **   PROGRAM RAN ON                              i01r07c04s08
 **    ****   ******    PROGRAM RAN BY                                   di38fab
 ***** **    ** ** **   PROGRAM PROCESS ID                               4124679
  **** **  *******  **  PROGRAM STOPPED IN /hppfs/scratch/04/di38fab/09_GTH/Delt
                                           a_Set/Ar/aug-TZVP-MOLOPT-GTH-tier-1/8
                                           x8x8
