Rb                                      
   1.00000000000000     
     5.671970    0.000000    0.000000
     0.000000    5.671970    0.000000
     0.000000    0.000000    5.671970
   Rb
     2
Direct
  0.000000  0.000000  0.000000
  0.500000  0.500000  0.500000
 
   48   48   48
  376.05      384.44      402.17      411.69      396.30      350.12      280.80      204.12      135.33      83.075    
  48.538      27.973      16.445      10.134      6.6473      4.6747      3.5672      2.9777      2.6710      2.4995    
  2.4058      2.3660      2.3436      2.3164      2.3016      2.3164      2.3436      2.3660      2.4058      2.4995    
  2.6710      2.9777      3.5672      4.6747      6.6473      10.134      16.445      27.973      48.538      83.075    
  135.33      204.12      280.80      350.12      396.30      411.69      402.17      384.44      384.44      391.53    
  405.89      411.22      392.25      344.07      274.50      198.82      131.55      80.718      47.226      27.291    
  16.101      9.9603      6.5568      4.6275      3.5432      2.9656      2.6648      2.4966      2.4046      2.3651    
  2.3426      2.3160      2.3016      2.3160      2.3426      2.3651      2.4046      2.4966      2.6648      2.9656    
  3.5432      4.6275      6.5568      9.9603      16.101      27.291      47.226      80.718      131.55      198.82    
  274.50      344.07      392.25      411.22      405.89      391.53      402.17      405.89      411.48      406.06    
  378.17      325.40      255.90      183.55      120.79      74.055      43.526      25.366      15.126      9.4635    
  6.2974      4.4917      3.4741      2.9308      2.6471      2.4884      2.4013      2.3626      2.3401      2.3150    
  2.3017      2.3150      2.3401      2.3626      2.4013      2.4884      2.6471      2.9308      3.4741      4.4917    
  6.2974      9.4635      15.126      25.366      43.526      74.055      120.79      183.55      255.90      325.40    
  378.17      406.06      411.48      405.89      411.69      411.22      406.06      387.87      350.14      293.52    
  226.29      160.13      104.65      64.214      38.082      22.521      13.674      8.7143      5.9024      4.2839    
  3.3684      2.8777      2.6202      2.4761      2.3964      2.3589      2.3366      2.3138      2.3023      2.3138    
  2.3366      2.3589      2.3964      2.4761      2.6202      2.8777      3.3684      4.2839      5.9024      8.7143    
  13.674      22.521      38.082      64.214      104.65      160.13      226.29      293.52      350.14      387.87    
  406.06      411.22      396.30      392.25      378.17      350.14      306.30      249.84      188.57      131.60    
  85.533      52.756      31.754      19.190      11.948      7.8085      5.4184      4.0278      3.2379      2.8122    
  2.5872      2.4613      2.3906      2.3548      2.3328      2.3131      2.3038      2.3131      2.3328      2.3548    
  2.3906      2.4613      2.5872      2.8122      3.2379      4.0278      5.4184      7.8085      11.948      19.190    
  31.754      52.756      85.533      131.60      188.57      249.84      306.30      350.14      378.17      392.25    
  350.12      344.07      325.40      293.52      249.84      198.87      147.33      101.71      66.084      41.264    
  25.393      15.797      10.152      6.8460      4.8963      3.7497      3.0959      2.7412      2.5517      2.4453    
  2.3842      2.3507      2.3296      2.3132      2.3062      2.3132      2.3296      2.3507      2.3842      2.4453    
  2.5517      2.7412      3.0959      3.7497      4.8963      6.8460      10.152      15.797      25.393      41.264    
  66.084      101.71      147.33      198.87      249.84      293.52      325.40      344.07      280.80      274.50    
  255.90      226.29      188.57      147.33      107.74      74.095      48.573      30.970      19.644      12.668    
  8.4526      5.9120      4.3820      3.4742      2.9549      2.6708      2.5167      2.4292      2.3775      2.3469    
  2.3273      2.3143      2.3093      2.3143      2.3273      2.3469      2.3775      2.4292      2.5167      2.6708    
  2.9549      3.4742      4.3820      5.9120      8.4526      12.668      19.644      30.970      48.573      74.095    
  107.74      147.33      188.57      226.29      255.90      274.50      204.12      198.82      183.55      160.13    
  131.60      101.71      74.095      51.333      34.319      22.552      14.859      9.9910      6.9531      5.0678    
  3.9115      3.2210      2.8251      2.6058      2.4843      2.4138      2.3705      2.3433      2.3262      2.3162    
  2.3128      2.3162      2.3262      2.3433      2.3705      2.4138      2.4843      2.6058      2.8251      3.2210    
  3.9115      5.0678      6.9531      9.9910      14.859      22.552      34.319      51.333      74.095      101.71    
  131.60      160.13      183.55      198.82      135.33      131.55      120.79      104.65      85.533      66.084    
  48.573      34.319      23.644      16.151      11.121      7.8286      5.7029      4.3491      3.5075      3.0033    
  2.7129      2.5494      2.4558      2.3993      2.3632      2.3399      2.3257      2.3183      2.3160      2.3183    
  2.3257      2.3399      2.3632      2.3993      2.4558      2.5494      2.7129      3.0033      3.5075      4.3491    
  5.7029      7.8286      11.121      16.151      23.644      34.319      48.573      66.084      85.533      104.65    
  120.79      131.55      83.075      80.718      74.055      64.214      52.756      41.264      30.970      22.552    
  16.151      11.539      8.3335      6.1579      4.7097      3.7695      3.1805      2.8268      2.6213      2.5025    
  2.4312      2.3859      2.3560      2.3367      2.3254      2.3202      2.3187      2.3202      2.3254      2.3367    
  2.3560      2.3859      2.4312      2.5025      2.6213      2.8268      3.1805      3.7695      4.7097      6.1579    
  8.3335      11.539      16.151      22.552      30.970      41.264      52.756      64.214      74.055      80.718    
  48.538      47.226      43.526      38.082      31.754      25.393      19.644      14.859      11.121      8.3335    
  6.3238      4.9147      3.9553      3.3257      2.9299      2.6910      2.5497      2.4646      2.4104      2.3739    
  2.3492      2.3336      2.3251      2.3215      2.3206      2.3215      2.3251      2.3336      2.3492      2.3739    
  2.4104      2.4646      2.5497      2.6910      2.9299      3.3257      3.9553      4.9147      6.3238      8.3335    
  11.121      14.859      19.644      25.393      31.754      38.082      43.526      47.226      27.973      27.291    
  25.366      22.521      19.190      15.797      12.668      9.9910      7.8286      6.1579      4.9147      4.0227    
  3.4079      3.0026      2.7470      2.5908      2.4953      2.4343      2.3927      2.3633      2.3432      2.3309    
  2.3246      2.3223      2.3218      2.3223      2.3246      2.3309      2.3432      2.3633      2.3927      2.4343    
  2.4953      2.5908      2.7470      3.0026      3.4079      4.0227      4.9147      6.1579      7.8286      9.9910    
  12.668      15.797      19.190      22.521      25.366      27.291      16.445      16.101      15.126      13.674    
  11.948      10.152      8.4526      6.9531      5.7029      4.7097      3.9553      3.4079      3.0290      2.7785    
  2.6189      2.5185      2.4539      2.4096      2.3775      2.3541      2.3381      2.3285      2.3240      2.3224    
  2.3221      2.3224      2.3240      2.3285      2.3381      2.3541      2.3775      2.4096      2.4539      2.5185    
  2.6189      2.7785      3.0290      3.4079      3.9553      4.7097      5.7029      6.9531      8.4526      10.152    
  11.948      13.674      15.126      16.101      10.134      9.9603      9.4635      8.7143      7.8085      6.8460    
  5.9120      5.0678      4.3491      3.7695      3.3257      3.0026      2.7785      2.6289      2.5311      2.4664    
  2.4217      2.3889      2.3643      2.3461      2.3338      2.3266      2.3232      2.3220      2.3218      2.3220    
  2.3232      2.3266      2.3338      2.3461      2.3643      2.3889      2.4217      2.4664      2.5311      2.6289    
  2.7785      3.0026      3.3257      3.7695      4.3491      5.0678      5.9120      6.8460      7.8085      8.7143    
  9.4635      9.9603      6.6473      6.5568      6.2974      5.9024      5.4184      4.8963      4.3820      3.9115    
  3.5075      3.1805      2.9299      2.7470      2.6189      2.5311      2.4706      2.4277      2.3958      2.3714    
  2.3529      2.3394      2.3303      2.3249      2.3221      2.3209      2.3206      2.3209      2.3221      2.3249    
  2.3303      2.3394      2.3529      2.3714      2.3958      2.4277      2.4706      2.5311      2.6189      2.7470    
  2.9299      3.1805      3.5075      3.9115      4.3820      4.8963      5.4184      5.9024      6.2974      6.5568    
  4.6747      4.6275      4.4917      4.2839      4.0278      3.7497      3.4742      3.2210      3.0033      2.8268    
  2.6910      2.5908      2.5185      2.4664      2.4277      2.3980      2.3748      2.3568      2.3434      2.3338    
  2.3273      2.3231      2.3205      2.3192      2.3187      2.3192      2.3205      2.3231      2.3273      2.3338    
  2.3434      2.3568      2.3748      2.3980      2.4277      2.4664      2.5185      2.5908      2.6910      2.8268    
  3.0033      3.2210      3.4742      3.7497      4.0278      4.2839      4.4917      4.6275      3.5672      3.5432    
  3.4741      3.3684      3.2379      3.0959      2.9549      2.8251      2.7129      2.6213      2.5497      2.4953    
  2.4539      2.4217      2.3958      2.3748      2.3580      2.3452      2.3359      2.3293      2.3247      2.3211    
  2.3185      2.3167      2.3160      2.3167      2.3185      2.3211      2.3247      2.3293      2.3359      2.3452    
  2.3580      2.3748      2.3958      2.4217      2.4539      2.4953      2.5497      2.6213      2.7129      2.8251    
  2.9549      3.0959      3.2379      3.3684      3.4741      3.5432      2.9777      2.9656      2.9308      2.8777    
  2.8122      2.7412      2.6708      2.6058      2.5494      2.5025      2.4646      2.4343      2.4096      2.3889    
  2.3714      2.3568      2.3452      2.3364      2.3302      2.3258      2.3222      2.3188      2.3158      2.3136    
  2.3128      2.3136      2.3158      2.3188      2.3222      2.3258      2.3302      2.3364      2.3452      2.3568    
  2.3714      2.3889      2.4096      2.4343      2.4646      2.5025      2.5494      2.6058      2.6708      2.7412    
  2.8122      2.8777      2.9308      2.9656      2.6710      2.6648      2.6471      2.6202      2.5872      2.5517    
  2.5167      2.4843      2.4558      2.4312      2.4104      2.3927      2.3775      2.3643      2.3529      2.3434    
  2.3359      2.3302      2.3261      2.3228      2.3196      2.3161      2.3128      2.3103      2.3093      2.3103    
  2.3128      2.3161      2.3196      2.3228      2.3261      2.3302      2.3359      2.3434      2.3529      2.3643    
  2.3775      2.3927      2.4104      2.4312      2.4558      2.4843      2.5167      2.5517      2.5872      2.6202    
  2.6471      2.6648      2.4995      2.4966      2.4884      2.4761      2.4613      2.4453      2.4292      2.4138    
  2.3993      2.3859      2.3739      2.3633      2.3541      2.3461      2.3394      2.3338      2.3293      2.3258    
  2.3228      2.3199      2.3167      2.3131      2.3097      2.3071      2.3062      2.3071      2.3097      2.3131    
  2.3167      2.3199      2.3228      2.3258      2.3293      2.3338      2.3394      2.3461      2.3541      2.3633    
  2.3739      2.3859      2.3993      2.4138      2.4292      2.4453      2.4613      2.4761      2.4884      2.4966    
  2.4058      2.4046      2.4013      2.3964      2.3906      2.3842      2.3775      2.3705      2.3632      2.3560    
  2.3492      2.3432      2.3381      2.3338      2.3303      2.3273      2.3247      2.3222      2.3196      2.3167    
  2.3135      2.3100      2.3069      2.3046      2.3038      2.3046      2.3069      2.3100      2.3135      2.3167    
  2.3196      2.3222      2.3247      2.3273      2.3303      2.3338      2.3381      2.3432      2.3492      2.3560    
  2.3632      2.3705      2.3775      2.3842      2.3906      2.3964      2.4013      2.4046      2.3660      2.3651    
  2.3626      2.3589      2.3548      2.3507      2.3469      2.3433      2.3399      2.3367      2.3336      2.3309    
  2.3285      2.3266      2.3249      2.3231      2.3211      2.3188      2.3161      2.3131      2.3100      2.3070    
  2.3046      2.3029      2.3023      2.3029      2.3046      2.3070      2.3100      2.3131      2.3161      2.3188    
  2.3211      2.3231      2.3249      2.3266      2.3285      2.3309      2.3336      2.3367      2.3399      2.3433    
  2.3469      2.3507      2.3548      2.3589      2.3626      2.3651      2.3436      2.3426      2.3401      2.3366    
  2.3328      2.3296      2.3273      2.3262      2.3257      2.3254      2.3251      2.3246      2.3240      2.3232    
  2.3221      2.3205      2.3185      2.3158      2.3128      2.3097      2.3069      2.3046      2.3029      2.3020    
  2.3017      2.3020      2.3029      2.3046      2.3069      2.3097      2.3128      2.3158      2.3185      2.3205    
  2.3221      2.3232      2.3240      2.3246      2.3251      2.3254      2.3257      2.3262      2.3273      2.3296    
  2.3328      2.3366      2.3401      2.3426      2.3164      2.3160      2.3150      2.3138      2.3131      2.3132    
  2.3143      2.3162      2.3183      2.3202      2.3215      2.3223      2.3224      2.3220      2.3209      2.3192    
  2.3167      2.3136      2.3103      2.3071      2.3046      2.3029      2.3020      2.3017      2.3016      2.3017    
  2.3020      2.3029      2.3046      2.3071      2.3103      2.3136      2.3167      2.3192      2.3209      2.3220    
  2.3224      2.3223      2.3215      2.3202      2.3183      2.3162      2.3143      2.3132      2.3131      2.3138    
  2.3150      2.3160      2.3016      2.3016      2.3017      2.3023      2.3038      2.3062      2.3093      2.3128    
  2.3160      2.3187      2.3206      2.3218      2.3221      2.3218      2.3206      2.3187      2.3160      2.3128    
  2.3093      2.3062      2.3038      2.3023      2.3017      2.3016      2.3016      2.3016      2.3017      2.3023    
  2.3038      2.3062      2.3093      2.3128      2.3160      2.3187      2.3206      2.3218      2.3221      2.3218    
  2.3206      2.3187      2.3160      2.3128      2.3093      2.3062      2.3038      2.3023      2.3017      2.3016    
  2.3164      2.3160      2.3150      2.3138      2.3131      2.3132      2.3143      2.3162      2.3183      2.3202    
  2.3215      2.3223      2.3224      2.3220      2.3209      2.3192      2.3167      2.3136      2.3103      2.3071    
  2.3046      2.3029      2.3020      2.3017      2.3016      2.3017      2.3020      2.3029      2.3046      2.3071    
  2.3103      2.3136      2.3167      2.3192      2.3209      2.3220      2.3224      2.3223      2.3215      2.3202    
  2.3183      2.3162      2.3143      2.3132      2.3131      2.3138      2.3150      2.3160      2.3436      2.3426    
  2.3401      2.3366      2.3328      2.3296      2.3273      2.3262      2.3257      2.3254      2.3251      2.3246    
  2.3240      2.3232      2.3221      2.3205      2.3185      2.3158      2.3128      2.3097      2.3069      2.3046    
  2.3029      2.3020      2.3017      2.3020      2.3029      2.3046      2.3069      2.3097      2.3128      2.3158    
  2.3185      2.3205      2.3221      2.3232      2.3240      2.3246      2.3251      2.3254      2.3257      2.3262    
  2.3273      2.3296      2.3328      2.3366      2.3401      2.3426      2.3660      2.3651      2.3626      2.3589    
  2.3548      2.3507      2.3469      2.3433      2.3399      2.3367      2.3336      2.3309      2.3285      2.3266    
  2.3249      2.3231      2.3211      2.3188      2.3161      2.3131      2.3100      2.3070      2.3046      2.3029    
  2.3023      2.3029      2.3046      2.3070      2.3100      2.3131      2.3161      2.3188      2.3211      2.3231    
  2.3249      2.3266      2.3285      2.3309      2.3336      2.3367      2.3399      2.3433      2.3469      2.3507    
  2.3548      2.3589      2.3626      2.3651      2.4058      2.4046      2.4013      2.3964      2.3906      2.3842    
  2.3775      2.3705      2.3632      2.3560      2.3492      2.3432      2.3381      2.3338      2.3303      2.3273    
  2.3247      2.3222      2.3196      2.3167      2.3135      2.3100      2.3069      2.3046      2.3038      2.3046    
  2.3069      2.3100      2.3135      2.3167      2.3196      2.3222      2.3247      2.3273      2.3303      2.3338    
  2.3381      2.3432      2.3492      2.3560      2.3632      2.3705      2.3775      2.3842      2.3906      2.3964    
  2.4013      2.4046      2.4995      2.4966      2.4884      2.4761      2.4613      2.4453      2.4292      2.4138    
  2.3993      2.3859      2.3739      2.3633      2.3541      2.3461      2.3394      2.3338      2.3293      2.3258    
  2.3228      2.3199      2.3167      2.3131      2.3097      2.3071      2.3062      2.3071      2.3097      2.3131    
  2.3167      2.3199      2.3228      2.3258      2.3293      2.3338      2.3394      2.3461      2.3541      2.3633    
  2.3739      2.3859      2.3993      2.4138      2.4292      2.4453      2.4613      2.4761      2.4884      2.4966    
  2.6710      2.6648      2.6471      2.6202      2.5872      2.5517      2.5167      2.4843      2.4558      2.4312    
  2.4104      2.3927      2.3775      2.3643      2.3529      2.3434      2.3359      2.3302      2.3261      2.3228    
  2.3196      2.3161      2.3128      2.3103      2.3093      2.3103      2.3128      2.3161      2.3196      2.3228    
  2.3261      2.3302      2.3359      2.3434      2.3529      2.3643      2.3775      2.3927      2.4104      2.4312    
  2.4558      2.4843      2.5167      2.5517      2.5872      2.6202      2.6471      2.6648      2.9777      2.9656    
  2.9308      2.8777      2.8122      2.7412      2.6708      2.6058      2.5494      2.5025      2.4646      2.4343    
  2.4096      2.3889      2.3714      2.3568      2.3452      2.3364      2.3302      2.3258      2.3222      2.3188    
  2.3158      2.3136      2.3128      2.3136      2.3158      2.3188      2.3222      2.3258      2.3302      2.3364    
  2.3452      2.3568      2.3714      2.3889      2.4096      2.4343      2.4646      2.5025      2.5494      2.6058    
  2.6708      2.7412      2.8122      2.8777      2.9308      2.9656      3.5672      3.5432      3.4741      3.3684    
  3.2379      3.0959      2.9549      2.8251      2.7129      2.6213      2.5497      2.4953      2.4539      2.4217    
  2.3958      2.3748      2.3580      2.3452      2.3359      2.3293      2.3247      2.3211      2.3185      2.3167    
  2.3160      2.3167      2.3185      2.3211      2.3247      2.3293      2.3359      2.3452      2.3580      2.3748    
  2.3958      2.4217      2.4539      2.4953      2.5497      2.6213      2.7129      2.8251      2.9549      3.0959    
  3.2379      3.3684      3.4741      3.5432      4.6747      4.6275      4.4917      4.2839      4.0278      3.7497    
  3.4742      3.2210      3.0033      2.8268      2.6910      2.5908      2.5185      2.4664      2.4277      2.3980    
  2.3748      2.3568      2.3434      2.3338      2.3273      2.3231      2.3205      2.3192      2.3187      2.3192    
  2.3205      2.3231      2.3273      2.3338      2.3434      2.3568      2.3748      2.3980      2.4277      2.4664    
  2.5185      2.5908      2.6910      2.8268      3.0033      3.2210      3.4742      3.7497      4.0278      4.2839    
  4.4917      4.6275      6.6473      6.5568      6.2974      5.9024      5.4184      4.8963      4.3820      3.9115    
  3.5075      3.1805      2.9299      2.7470      2.6189      2.5311      2.4706      2.4277      2.3958      2.3714    
  2.3529      2.3394      2.3303      2.3249      2.3221      2.3209      2.3206      2.3209      2.3221      2.3249    
  2.3303      2.3394      2.3529      2.3714      2.3958      2.4277      2.4706      2.5311      2.6189      2.7470    
  2.9299      3.1805      3.5075      3.9115      4.3820      4.8963      5.4184      5.9024      6.2974      6.5568    
  10.134      9.9603      9.4635      8.7143      7.8085      6.8460      5.9120      5.0678      4.3491      3.7695    
  3.3257      3.0026      2.7785      2.6289      2.5311      2.4664      2.4217      2.3889      2.3643      2.3461    
  2.3338      2.3266      2.3232      2.3220      2.3218      2.3220      2.3232      2.3266      2.3338      2.3461    
  2.3643      2.3889      2.4217      2.4664      2.5311      2.6289      2.7785      3.0026      3.3257      3.7695    
  4.3491      5.0678      5.9120      6.8460      7.8085      8.7143      9.4635      9.9603      16.445      16.101    
  15.126      13.674      11.948      10.152      8.4526      6.9531      5.7029      4.7097      3.9553      3.4079    
  3.0290      2.7785      2.6189      2.5185      2.4539      2.4096      2.3775      2.3541      2.3381      2.3285    
  2.3240      2.3224      2.3221      2.3224      2.3240      2.3285      2.3381      2.3541      2.3775      2.4096    
  2.4539      2.5185      2.6189      2.7785      3.0290      3.4079      3.9553      4.7097      5.7029      6.9531    
  8.4526      10.152      11.948      13.674      15.126      16.101      27.973      27.291      25.366      22.521    
  19.190      15.797      12.668      9.9910      7.8286      6.1579      4.9147      4.0227      3.4079      3.0026    
  2.7470      2.5908      2.4953      2.4343      2.3927      2.3633      2.3432      2.3309      2.3246      2.3223    
  2.3218      2.3223      2.3246      2.3309      2.3432      2.3633      2.3927      2.4343      2.4953      2.5908    
  2.7470      3.0026      3.4079      4.0227      4.9147      6.1579      7.8286      9.9910      12.668      15.797    
  19.190      22.521      25.366      27.291      48.538      47.226      43.526      38.082      31.754      25.393    
  19.644      14.859      11.121      8.3335      6.3238      4.9147      3.9553      3.3257      2.9299      2.6910    
  2.5497      2.4646      2.4104      2.3739      2.3492      2.3336      2.3251      2.3215      2.3206      2.3215    
  2.3251      2.3336      2.3492      2.3739      2.4104      2.4646      2.5497      2.6910      2.9299      3.3257    
  3.9553      4.9147      6.3238      8.3335      11.121      14.859      19.644      25.393      31.754      38.082    
  43.526      47.226      83.075      80.718      74.055      64.214      52.756      41.264      30.970      22.552    
  16.151      11.539      8.3335      6.1579      4.7097      3.7695      3.1805      2.8268      2.6213      2.5025    
  2.4312      2.3859      2.3560      2.3367      2.3254      2.3202      2.3187      2.3202      2.3254      2.3367    
  2.3560      2.3859      2.4312      2.5025      2.6213      2.8268      3.1805      3.7695      4.7097      6.1579    
  8.3335      11.539      16.151      22.552      30.970      41.264      52.756      64.214      74.055      80.718    
  135.33      131.55      120.79      104.65      85.533      66.084      48.573      34.319      23.644      16.151    
  11.121      7.8286      5.7029      4.3491      3.5075      3.0033      2.7129      2.5494      2.4558      2.3993    
  2.3632      2.3399      2.3257      2.3183      2.3160      2.3183      2.3257      2.3399      2.3632      2.3993    
  2.4558      2.5494      2.7129      3.0033      3.5075      4.3491      5.7029      7.8286      11.121      16.151    
  23.644      34.319      48.573      66.084      85.533      104.65      120.79      131.55      204.12      198.82    
  183.55      160.13      131.60      101.71      74.095      51.333      34.319      22.552      14.859      9.9910    
  6.9531      5.0678      3.9115      3.2210      2.8251      2.6058      2.4843      2.4138      2.3705      2.3433    
  2.3262      2.3162      2.3128      2.3162      2.3262      2.3433      2.3705      2.4138      2.4843      2.6058    
  2.8251      3.2210      3.9115      5.0678      6.9531      9.9910      14.859      22.552      34.319      51.333    
  74.095      101.71      131.60      160.13      183.55      198.82      280.80      274.50      255.90      226.29    
  188.57      147.33      107.74      74.095      48.573      30.970      19.644      12.668      8.4526      5.9120    
  4.3820      3.4742      2.9549      2.6708      2.5167      2.4292      2.3775      2.3469      2.3273      2.3143    
  2.3093      2.3143      2.3273      2.3469      2.3775      2.4292      2.5167      2.6708      2.9549      3.4742    
  4.3820      5.9120      8.4526      12.668      19.644      30.970      48.573      74.095      107.74      147.33    
  188.57      226.29      255.90      274.50      350.12      344.07      325.40      293.52      249.84      198.87    
  147.33      101.71      66.084      41.264      25.393      15.797      10.152      6.8460      4.8963      3.7497    
  3.0959      2.7412      2.5517      2.4453      2.3842      2.3507      2.3296      2.3132      2.3062      2.3132    
  2.3296      2.3507      2.3842      2.4453      2.5517      2.7412      3.0959      3.7497      4.8963      6.8460    
  10.152      15.797      25.393      41.264      66.084      101.71      147.33      198.87      249.84      293.52    
  325.40      344.07      396.30      392.25      378.17      350.14      306.30      249.84      188.57      131.60    
  85.533      52.756      31.754      19.190      11.948      7.8085      5.4184      4.0278      3.2379      2.8122    
  2.5872      2.4613      2.3906      2.3548      2.3328      2.3131      2.3038      2.3131      2.3328      2.3548    
  2.3906      2.4613      2.5872      2.8122      3.2379      4.0278      5.4184      7.8085      11.948      19.190    
  31.754      52.756      85.533      131.60      188.57      249.84      306.30      350.14      378.17      392.25    
  411.69      411.22      406.06      387.87      350.14      293.52      226.29      160.13      104.65      64.214    
  38.082      22.521      13.674      8.7143      5.9024      4.2839      3.3684      2.8777      2.6202      2.4761    
  2.3964      2.3589      2.3366      2.3138      2.3023      2.3138      2.3366      2.3589      2.3964      2.4761    
  2.6202      2.8777      3.3684      4.2839      5.9024      8.7143      13.674      22.521      38.082      64.214    
  104.65      160.13      226.29      293.52      350.14      387.87      406.06      411.22      402.17      405.89    
  411.48      406.06      378.17      325.40      255.90      183.55      120.79      74.055      43.526      25.366    
  15.126      9.4635      6.2974      4.4917      3.4741      2.9308      2.6471      2.4884      2.4013      2.3626    
  2.3401      2.3150      2.3017      2.3150      2.3401      2.3626      2.4013      2.4884      2.6471      2.9308    
  3.4741      4.4917      6.2974      9.4635      15.126      25.366      43.526      74.055      120.79      183.55    
  255.90      325.40      378.17      406.06      411.48      405.89      384.44      391.53      405.89      411.22    
  392.25      344.07      274.50      198.82      131.55      80.718      47.226      27.291      16.101      9.9603    
  6.5568      4.6275      3.5432      2.9656      2.6648      2.4966      2.4046      2.3651      2.3426      2.3160    
  2.3016      2.3160      2.3426      2.3651      2.4046      2.4966      2.6648      2.9656      3.5432      4.6275    
  6.5568      9.9603      16.101      27.291      47.226      80.718      131.55      198.82      274.50      344.07    
  392.25      411.22      405.89      391.53      384.44      391.53      405.89      411.22      392.25      344.07    
  274.50      198.82      131.55      80.718      47.226      27.291      16.101      9.9603      6.5568      4.6275    
  3.5432      2.9656      2.6648      2.4966      2.4046      2.3651      2.3426      2.3160      2.3016      2.3160    
  2.3426      2.3651      2.4046      2.4966      2.6648      2.9656      3.5432      4.6275      6.5568      9.9603    
  16.101      27.291      47.226      80.718      131.55      198.82      274.50      344.07      392.25      411.22    
  405.89      391.53      391.53      397.42      408.63      410.09      387.86      337.93      268.24      193.63    
  127.87      78.430      45.954      26.630      15.767      9.7905      6.4684      4.5812      3.5197      2.9538    
  2.6588      2.4938      2.4035      2.3643      2.3418      2.3157      2.3017      2.3157      2.3418      2.3643    
  2.4035      2.4938      2.6588      2.9538      3.5197      4.5812      6.4684      9.7905      15.767      26.630    
  45.954      78.430      127.87      193.63      268.24      337.93      387.86      410.09      408.63      397.42    
  405.89      408.63      411.72      403.27      372.95      319.06      249.83      178.66      117.38      71.965    
  42.368      24.762      14.820      9.3061      6.2148      4.4484      3.4521      2.9198      2.6415      2.4860    
  2.4004      2.3620      2.3395      2.3149      2.3020      2.3149      2.3395      2.3620      2.4004      2.4860    
  2.6415      2.9198      3.4521      4.4484      6.2148      9.3061      14.820      24.762      42.368      71.965    
  117.38      178.66      249.83      319.06      372.95      403.27      411.72      408.63      411.22      410.09    