Rb                                      
   1.00000000000000     
     5.671970    0.000000    0.000000
     0.000000    5.671970    0.000000
     0.000000    0.000000    5.671970
   Rb
     2
Direct
  0.000000  0.000000  0.000000
  0.500000  0.500000  0.500000
 
   48   48   48
 0.37604929175E+03 0.38443508798E+03 0.40216650182E+03 0.41168769026E+03 0.39630078676E+03
 0.35012427559E+03 0.28079559598E+03 0.20411548368E+03 0.13533368439E+03 0.83074986704E+02
 0.48538078768E+02 0.27973097703E+02 0.16444580815E+02 0.10134475187E+02 0.66472746553E+01
 0.46746943229E+01 0.35672011577E+01 0.29776774129E+01 0.26709911026E+01 0.24994814299E+01
 0.24058391770E+01 0.23659853279E+01 0.23435595603E+01 0.23163998969E+01 0.23015939524E+01
 0.23163998969E+01 0.23435595603E+01 0.23659853279E+01 0.24058391770E+01 0.24994814299E+01
 0.26709911026E+01 0.29776774129E+01 0.35672011577E+01 0.46746943229E+01 0.66472746553E+01
 0.10134475187E+02 0.16444580815E+02 0.27973097703E+02 0.48538078768E+02 0.83074986704E+02
 0.13533368439E+03 0.20411548368E+03 0.28079559598E+03 0.35012427559E+03 0.39630078676E+03
 0.41168769026E+03 0.40216650182E+03 0.38443508798E+03 0.38443508798E+03 0.39152890384E+03
 0.40588633830E+03 0.41121612004E+03 0.39225087494E+03 0.34407426434E+03 0.27449734211E+03
 0.19882398896E+03 0.13155496690E+03 0.80718076385E+02 0.47225650840E+02 0.27291042887E+02
 0.16100909044E+02 0.99602961295E+01 0.65567988182E+01 0.46274618404E+01 0.35431901808E+01
 0.29655887654E+01 0.26648151179E+01 0.24966098062E+01 0.24046491505E+01 0.23650840664E+01
 0.23426464875E+01 0.23159967914E+01 0.23015837372E+01 0.23159967914E+01 0.23426464875E+01
 0.23650840664E+01 0.24046491505E+01 0.24966098062E+01 0.26648151179E+01 0.29655887654E+01
 0.35431901808E+01 0.46274618404E+01 0.65567988182E+01 0.99602961295E+01 0.16100909044E+02
 0.27291042887E+02 0.47225650840E+02 0.80718076385E+02 0.13155496690E+03 0.19882398896E+03
 0.27449734211E+03 0.34407426434E+03 0.39225087494E+03 0.41121612004E+03 0.40588633830E+03
 0.39152890384E+03 0.40216650182E+03 0.40588633830E+03 0.41147978859E+03 0.40606087244E+03
 0.37817229778E+03 0.32540037536E+03 0.25590242774E+03 0.18354891205E+03 0.12078707518E+03
 0.74055102225E+02 0.43526078248E+02 0.25365553347E+02 0.15126465942E+02 0.94635197017E+01
 0.62974255075E+01 0.44917046961E+01 0.34741452080E+01 0.29308451814E+01 0.26471100388E+01
 0.24884390702E+01 0.24013120013E+01 0.23625694649E+01 0.23401192574E+01 0.23149715289E+01
 0.23017045341E+01 0.23149715289E+01 0.23401192574E+01 0.23625694649E+01 0.24013120013E+01
 0.24884390702E+01 0.26471100388E+01 0.29308451814E+01 0.34741452080E+01 0.44917046961E+01
 0.62974255075E+01 0.94635197017E+01 0.15126465942E+02 0.25365553347E+02 0.43526078248E+02
 0.74055102225E+02 0.12078707518E+03 0.18354891205E+03 0.25590242774E+03 0.32540037536E+03
 0.37817229778E+03 0.40606087244E+03 0.41147978859E+03 0.40588633830E+03 0.41168769026E+03
 0.41121612004E+03 0.40606087244E+03 0.38786987499E+03 0.35014102776E+03 0.29352194931E+03
 0.22628871622E+03 0.16013049649E+03 0.10465050722E+03 0.64213563741E+02 0.38081849906E+02
 0.22521238463E+02 0.13673808729E+02 0.87142514880E+01 0.59023857763E+01 0.42839435720E+01
 0.33683869744E+01 0.28776909003E+01 0.26201586018E+01 0.24761492186E+01 0.23964044837E+01
 0.23589389144E+01 0.23365657871E+01 0.23138032479E+01 0.23023170393E+01 0.23138032479E+01
 0.23365657871E+01 0.23589389144E+01 0.23964044837E+01 0.24761492186E+01 0.26201586018E+01
 0.28776909003E+01 0.33683869744E+01 0.42839435720E+01 0.59023857763E+01 0.87142514880E+01
 0.13673808729E+02 0.22521238463E+02 0.38081849906E+02 0.64213563741E+02 0.10465050722E+03
 0.16013049649E+03 0.22628871622E+03 0.29352194931E+03 0.35014102776E+03 0.38786987499E+03
 0.40606087244E+03 0.41121612004E+03 0.39630078676E+03 0.39225087494E+03 0.37817229778E+03
 0.35014102776E+03 0.30630012076E+03 0.24983765612E+03 0.18857241022E+03 0.13159664271E+03
 0.85532801974E+02 0.52756119949E+02 0.31754475503E+02 0.19190327630E+02 0.11947588983E+02
 0.78085002070E+01 0.54184387968E+01 0.40278342209E+01 0.32378557945E+01 0.28122136605E+01
 0.25871913281E+01 0.24612737052E+01 0.23905620825E+01 0.23548110563E+01 0.23327925867E+01
 0.23130705430E+01 0.23037676522E+01 0.23130705430E+01 0.23327925867E+01 0.23548110563E+01
 0.23905620825E+01 0.24612737052E+01 0.25871913281E+01 0.28122136605E+01 0.32378557945E+01
 0.40278342209E+01 0.54184387968E+01 0.78085002070E+01 0.11947588983E+02 0.19190327630E+02
 0.31754475503E+02 0.52756119949E+02 0.85532801974E+02 0.13159664271E+03 0.18857241022E+03
 0.24983765612E+03 0.30630012076E+03 0.35014102776E+03 0.37817229778E+03 0.39225087494E+03
 0.35012427559E+03 0.34407426434E+03 0.32540037536E+03 0.29352194931E+03 0.24983765612E+03
 0.19886736469E+03 0.14732596508E+03 0.10170905728E+03 0.66083937691E+02 0.41264194714E+02
 0.25393193228E+02 0.15797269947E+02 0.10152497674E+02 0.68459837940E+01 0.48962919628E+01
 0.37496879029E+01 0.30958661272E+01 0.27411581138E+01 0.25516857298E+01 0.24452684322E+01
 0.23842180803E+01 0.23506990788E+01 0.23295658073E+01 0.23132069435E+01 0.23061701586E+01
 0.23132069435E+01 0.23295658073E+01 0.23506990788E+01 0.23842180803E+01 0.24452684322E+01
 0.25516857298E+01 0.27411581138E+01 0.30958661272E+01 0.37496879029E+01 0.48962919628E+01
 0.68459837940E+01 0.10152497674E+02 0.15797269947E+02 0.25393193228E+02 0.41264194714E+02
 0.66083937691E+02 0.10170905728E+03 0.14732596508E+03 0.19886736469E+03 0.24983765612E+03
 0.29352194931E+03 0.32540037536E+03 0.34407426434E+03 0.28079559598E+03 0.27449734211E+03
 0.25590242774E+03 0.22628871622E+03 0.18857241022E+03 0.14732596508E+03 0.10774489437E+03
 0.74095365639E+02 0.48573475207E+02 0.30969913813E+02 0.19643670120E+02 0.12668062230E+02
 0.84526071196E+01 0.59120163185E+01 0.43820401802E+01 0.34741687021E+01 0.29549314293E+01
 0.26707549079E+01 0.25166845530E+01 0.24292184753E+01 0.23775292055E+01 0.23468596357E+01
 0.23273444206E+01 0.23143186002E+01 0.23093187537E+01 0.23143186002E+01 0.23273444206E+01
 0.23468596357E+01 0.23775292055E+01 0.24292184753E+01 0.25166845530E+01 0.26707549079E+01
 0.29549314293E+01 0.34741687021E+01 0.43820401802E+01 0.59120163185E+01 0.84526071196E+01
 0.12668062230E+02 0.19643670120E+02 0.30969913813E+02 0.48573475207E+02 0.74095365639E+02
 0.10774489437E+03 0.14732596508E+03 0.18857241022E+03 0.22628871622E+03 0.25590242774E+03
 0.27449734211E+03 0.20411548368E+03 0.19882398896E+03 0.18354891205E+03 0.16013049649E+03
 0.13159664271E+03 0.10170905728E+03 0.74095365639E+02 0.51333009303E+02 0.34319300221E+02
 0.22552377172E+02 0.14858819973E+02 0.99910414057E+01 0.69530606202E+01 0.50678407049E+01
 0.39114607049E+01 0.32210304752E+01 0.28250926026E+01 0.26058396770E+01 0.24843374626E+01
 0.24137748837E+01 0.23705099964E+01 0.23432997326E+01 0.23261511822E+01 0.23161574565E+01
 0.23127703457E+01 0.23161574565E+01 0.23261511822E+01 0.23432997326E+01 0.23705099964E+01
 0.24137748837E+01 0.24843374626E+01 0.26058396770E+01 0.28250926026E+01 0.32210304752E+01
 0.39114607049E+01 0.50678407049E+01 0.69530606202E+01 0.99910414057E+01 0.14858819973E+02
 0.22552377172E+02 0.34319300221E+02 0.51333009303E+02 0.74095365639E+02 0.10170905728E+03
 0.13159664271E+03 0.16013049649E+03 0.18354891205E+03 0.19882398896E+03 0.13533368439E+03
 0.13155496690E+03 0.12078707518E+03 0.10465050722E+03 0.85532801974E+02 0.66083937691E+02
 0.48573475207E+02 0.34319300221E+02 0.23643816266E+02 0.16151101257E+02 0.11120899430E+02
 0.78285836655E+01 0.57029199082E+01 0.43491352383E+01 0.35075257919E+01 0.30032775052E+01
 0.27129361037E+01 0.25493929451E+01 0.24557697483E+01 0.23992786753E+01 0.23632459498E+01
 0.23399177621E+01 0.23256589937E+01 0.23182586286E+01 0.23160291121E+01 0.23182586286E+01
 0.23256589937E+01 0.23399177621E+01 0.23632459498E+01 0.23992786753E+01 0.24557697483E+01
 0.25493929451E+01 0.27129361037E+01 0.30032775052E+01 0.35075257919E+01 0.43491352383E+01
 0.57029199082E+01 0.78285836655E+01 0.11120899430E+02 0.16151101257E+02 0.23643816266E+02
 0.34319300221E+02 0.48573475207E+02 0.66083937691E+02 0.85532801974E+02 0.10465050722E+03
 0.12078707518E+03 0.13155496690E+03 0.83074986704E+02 0.80718076385E+02 0.74055102225E+02
 0.64213563741E+02 0.52756119949E+02 0.41264194714E+02 0.30969913813E+02 0.22552377172E+02
 0.16151101257E+02 0.11538604914E+02 0.83334700949E+01 0.61579255313E+01 0.47097018981E+01
 0.37695074174E+01 0.31805148753E+01 0.28267570502E+01 0.26213161981E+01 0.25024967481E+01
 0.24312349990E+01 0.23859343575E+01 0.23560097283E+01 0.23366624664E+01 0.23254272580E+01
 0.23201533967E+01 0.23187167289E+01 0.23201533967E+01 0.23254272580E+01 0.23366624664E+01
 0.23560097283E+01 0.23859343575E+01 0.24312349990E+01 0.25024967481E+01 0.26213161981E+01
 0.28267570502E+01 0.31805148753E+01 0.37695074174E+01 0.47097018981E+01 0.61579255313E+01
 0.83334700949E+01 0.11538604914E+02 0.16151101257E+02 0.22552377172E+02 0.30969913813E+02
 0.41264194714E+02 0.52756119949E+02 0.64213563741E+02 0.74055102225E+02 0.80718076385E+02
 0.48538078768E+02 0.47225650840E+02 0.43526078248E+02 0.38081849906E+02 0.31754475503E+02
 0.25393193228E+02 0.19643670120E+02 0.14858819973E+02 0.11120899430E+02 0.83334700949E+01
 0.63238459364E+01 0.49146810280E+01 0.39553285218E+01 0.33256787805E+01 0.29298599236E+01
 0.26909704500E+01 0.25497317739E+01 0.24646415216E+01 0.24104109325E+01 0.23739023518E+01
 0.23491986480E+01 0.23335989363E+01 0.23251300924E+01 0.23215333964E+01 0.23206439848E+01
 0.23215333964E+01 0.23251300924E+01 0.23335989363E+01 0.23491986480E+01 0.23739023518E+01
 0.24104109325E+01 0.24646415216E+01 0.25497317739E+01 0.26909704500E+01 0.29298599236E+01
 0.33256787805E+01 0.39553285218E+01 0.49146810280E+01 0.63238459364E+01 0.83334700949E+01
 0.11120899430E+02 0.14858819973E+02 0.19643670120E+02 0.25393193228E+02 0.31754475503E+02
 0.38081849906E+02 0.43526078248E+02 0.47225650840E+02 0.27973097703E+02 0.27291042887E+02
 0.25365553347E+02 0.22521238463E+02 0.19190327630E+02 0.15797269947E+02 0.12668062230E+02
 0.99910414057E+01 0.78285836655E+01 0.61579255313E+01 0.49146810280E+01 0.40226841540E+01
 0.34078972009E+01 0.30026426202E+01 0.27470256093E+01 0.25907723602E+01 0.24952635690E+01
 0.24342933698E+01 0.23927020119E+01 0.23632814223E+01 0.23431607965E+01 0.23308583915E+01
 0.23246457547E+01 0.23222894097E+01 0.23217765355E+01 0.23222894097E+01 0.23246457547E+01
 0.23308583915E+01 0.23431607965E+01 0.23632814223E+01 0.23927020119E+01 0.24342933698E+01
 0.24952635690E+01 0.25907723602E+01 0.27470256093E+01 0.30026426202E+01 0.34078972009E+01
 0.40226841540E+01 0.49146810280E+01 0.61579255313E+01 0.78285836655E+01 0.99910414057E+01
 0.12668062230E+02 0.15797269947E+02 0.19190327630E+02 0.22521238463E+02 0.25365553347E+02
 0.27291042887E+02 0.16444580815E+02 0.16100909044E+02 0.15126465942E+02 0.13673808729E+02
 0.11947588983E+02 0.10152497674E+02 0.84526071196E+01 0.69530606202E+01 0.57029199082E+01
 0.47097018981E+01 0.39553285218E+01 0.34078972009E+01 0.30289691779E+01 0.27784855090E+01
 0.26188873018E+01 0.25185473081E+01 0.24538655044E+01 0.24095859354E+01 0.23774849961E+01
 0.23540611730E+01 0.23380535520E+01 0.23285315851E+01 0.23239871835E+01 0.23224354531E+01
 0.23221470639E+01 0.23224354531E+01 0.23239871835E+01 0.23285315851E+01 0.23380535520E+01
 0.23540611730E+01 0.23774849961E+01 0.24095859354E+01 0.24538655044E+01 0.25185473081E+01
 0.26188873018E+01 0.27784855090E+01 0.30289691779E+01 0.34078972009E+01 0.39553285218E+01
 0.47097018981E+01 0.57029199082E+01 0.69530606202E+01 0.84526071196E+01 0.10152497674E+02
 0.11947588983E+02 0.13673808729E+02 0.15126465942E+02 0.16100909044E+02 0.10134475187E+02
 0.99602961295E+01 0.94635197017E+01 0.87142514880E+01 0.78085002070E+01 0.68459837940E+01
 0.59120163185E+01 0.50678407049E+01 0.43491352383E+01 0.37695074174E+01 0.33256787805E+01
 0.30026426202E+01 0.27784855090E+01 0.26288986095E+01 0.25310639722E+01 0.24663756361E+01
 0.24216555793E+01 0.23889437854E+01 0.23642912982E+01 0.23461396338E+01 0.23338276882E+01
 0.23265865826E+01 0.23231600122E+01 0.23219937654E+01 0.23217765355E+01 0.23219937654E+01
 0.23231600122E+01 0.23265865826E+01 0.23338276882E+01 0.23461396338E+01 0.23642912982E+01
 0.23889437854E+01 0.24216555793E+01 0.24663756361E+01 0.25310639722E+01 0.26288986095E+01
 0.27784855090E+01 0.30026426202E+01 0.33256787805E+01 0.37695074174E+01 0.43491352383E+01
 0.50678407049E+01 0.59120163185E+01 0.68459837940E+01 0.78085002070E+01 0.87142514880E+01
 0.94635197017E+01 0.99602961295E+01 0.66472746553E+01 0.65567988182E+01 0.62974255075E+01
 0.59023857763E+01 0.54184387968E+01 0.48962919628E+01 0.43820401802E+01 0.39114607049E+01
 0.35075257919E+01 0.31805148753E+01 0.29298599236E+01 0.27470256093E+01 0.26188873018E+01
 0.25310639722E+01 0.24706208314E+01 0.24276789912E+01 0.23958045741E+01 0.23714448185E+01
 0.23529146212E+01 0.23394097416E+01 0.23303147511E+01 0.23248596482E+01 0.23220694719E+01
 0.23209261528E+01 0.23206439848E+01 0.23209261528E+01 0.23220694719E+01 0.23248596482E+01
 0.23303147511E+01 0.23394097416E+01 0.23529146212E+01 0.23714448185E+01 0.23958045741E+01
 0.24276789912E+01 0.24706208314E+01 0.25310639722E+01 0.26188873018E+01 0.27470256093E+01
 0.29298599236E+01 0.31805148753E+01 0.35075257919E+01 0.39114607049E+01 0.43820401802E+01
 0.48962919628E+01 0.54184387968E+01 0.59023857763E+01 0.62974255075E+01 0.65567988182E+01
 0.46746943229E+01 0.46274618404E+01 0.44917046961E+01 0.42839435720E+01 0.40278342209E+01
 0.37496879029E+01 0.34741687021E+01 0.32210304752E+01 0.30032775052E+01 0.28267570502E+01
 0.26909704500E+01 0.25907723602E+01 0.25185473081E+01 0.24663756361E+01 0.24276789912E+01
 0.23979828441E+01 0.23747769404E+01 0.23568222912E+01 0.23433971249E+01 0.23338216282E+01
 0.23273233108E+01 0.23231176212E+01 0.23205448471E+01 0.23191564009E+01 0.23187167289E+01
 0.23191564009E+01 0.23205448471E+01 0.23231176212E+01 0.23273233108E+01 0.23338216282E+01
 0.23433971249E+01 0.23568222912E+01 0.23747769404E+01 0.23979828441E+01 0.24276789912E+01
 0.24663756361E+01 0.25185473081E+01 0.25907723602E+01 0.26909704500E+01 0.28267570502E+01
 0.30032775052E+01 0.32210304752E+01 0.34741687021E+01 0.37496879029E+01 0.40278342209E+01
 0.42839435720E+01 0.44917046961E+01 0.46274618404E+01 0.35672011577E+01 0.35431901808E+01
 0.34741452080E+01 0.33683869744E+01 0.32378557945E+01 0.30958661272E+01 0.29549314293E+01
 0.28250926026E+01 0.27129361037E+01 0.26213161981E+01 0.25497317739E+01 0.24952635690E+01
 0.24538655044E+01 0.24216555793E+01 0.23958045741E+01 0.23747769404E+01 0.23579817190E+01
 0.23451554510E+01 0.23358611802E+01 0.23293353915E+01 0.23246720675E+01 0.23211484037E+01
 0.23184521586E+01 0.23166652300E+01 0.23160291121E+01 0.23166652300E+01 0.23184521586E+01
 0.23211484037E+01 0.23246720675E+01 0.23293353915E+01 0.23358611802E+01 0.23451554510E+01
 0.23579817190E+01 0.23747769404E+01 0.23958045741E+01 0.24216555793E+01 0.24538655044E+01
 0.24952635690E+01 0.25497317739E+01 0.26213161981E+01 0.27129361037E+01 0.28250926026E+01
 0.29549314293E+01 0.30958661272E+01 0.32378557945E+01 0.33683869744E+01 0.34741452080E+01
 0.35431901808E+01 0.29776774129E+01 0.29655887654E+01 0.29308451814E+01 0.28776909003E+01
 0.28122136605E+01 0.27411581138E+01 0.26707549079E+01 0.26058396770E+01 0.25493929451E+01
 0.25024967481E+01 0.24646415216E+01 0.24342933698E+01 0.24095859354E+01 0.23889437854E+01
 0.23714448185E+01 0.23568222912E+01 0.23451554510E+01 0.23364345213E+01 0.23302492494E+01
 0.23257901297E+01 0.23221656944E+01 0.23188261759E+01 0.23158018868E+01 0.23135906535E+01
 0.23127703457E+01 0.23135906535E+01 0.23158018868E+01 0.23188261759E+01 0.23221656944E+01
 0.23257901297E+01 0.23302492494E+01 0.23364345213E+01 0.23451554510E+01 0.23568222912E+01
 0.23714448185E+01 0.23889437854E+01 0.24095859354E+01 0.24342933698E+01 0.24646415216E+01
 0.25024967481E+01 0.25493929451E+01 0.26058396770E+01 0.26707549079E+01 0.27411581138E+01
 0.28122136605E+01 0.28776909003E+01 0.29308451814E+01 0.29655887654E+01 0.26709911026E+01
 0.26648151179E+01 0.26471100388E+01 0.26201586018E+01 0.25871913281E+01 0.25516857298E+01
 0.25166845530E+01 0.24843374626E+01 0.24557697483E+01 0.24312349990E+01 0.24104109325E+01
 0.23927020119E+01 0.23774849961E+01 0.23642912982E+01 0.23529146212E+01 0.23433971249E+01
 0.23358611802E+01 0.23302492494E+01 0.23261413634E+01 0.23228174487E+01 0.23195774135E+01
 0.23161295594E+01 0.23127780855E+01 0.23102605849E+01 0.23093187537E+01 0.23102605849E+01
 0.23127780855E+01 0.23161295594E+01 0.23195774135E+01 0.23228174487E+01 0.23261413634E+01
 0.23302492494E+01 0.23358611802E+01 0.23433971249E+01 0.23529146212E+01 0.23642912982E+01
 0.23774849961E+01 0.23927020119E+01 0.24104109325E+01 0.24312349990E+01 0.24557697483E+01
 0.24843374626E+01 0.25166845530E+01 0.25516857298E+01 0.25871913281E+01 0.26201586018E+01
 0.26471100388E+01 0.26648151179E+01 0.24994814299E+01 0.24966098062E+01 0.24884390702E+01
 0.24761492186E+01 0.24612737052E+01 0.24452684322E+01 0.24292184753E+01 0.24137748837E+01
 0.23992786753E+01 0.23859343575E+01 0.23739023518E+01 0.23632814223E+01 0.23540611730E+01
 0.23461396338E+01 0.23394097416E+01 0.23338216282E+01 0.23293353915E+01 0.23257901297E+01
 0.23228174487E+01 0.23199176579E+01 0.23166976148E+01 0.23131350431E+01 0.23096852664E+01
 0.23071224946E+01 0.23061701586E+01 0.23071224946E+01 0.23096852664E+01 0.23131350431E+01
 0.23166976148E+01 0.23199176579E+01 0.23228174487E+01 0.23257901297E+01 0.23293353915E+01
 0.23338216282E+01 0.23394097416E+01 0.23461396338E+01 0.23540611730E+01 0.23632814223E+01
 0.23739023518E+01 0.23859343575E+01 0.23992786753E+01 0.24137748837E+01 0.24292184753E+01
 0.24452684322E+01 0.24612737052E+01 0.24761492186E+01 0.24884390702E+01 0.24966098062E+01
 0.24058391770E+01 0.24046491505E+01 0.24013120013E+01 0.23964044837E+01 0.23905620825E+01
 0.23842180803E+01 0.23775292055E+01 0.23705099964E+01 0.23632459498E+01 0.23560097283E+01
 0.23491986480E+01 0.23431607965E+01 0.23380535520E+01 0.23338276882E+01 0.23303147511E+01
 0.23273233108E+01 0.23246720675E+01 0.23221656944E+01 0.23195774135E+01 0.23166976148E+01
 0.23134507917E+01 0.23100160358E+01 0.23068558387E+01 0.23045931367E+01 0.23037676522E+01
 0.23045931367E+01 0.23068558387E+01 0.23100160358E+01 0.23134507917E+01 0.23166976148E+01
 0.23195774135E+01 0.23221656944E+01 0.23246720675E+01 0.23273233108E+01 0.23303147511E+01
 0.23338276882E+01 0.23380535520E+01 0.23431607965E+01 0.23491986480E+01 0.23560097283E+01
 0.23632459498E+01 0.23705099964E+01 0.23775292055E+01 0.23842180803E+01 0.23905620825E+01
 0.23964044837E+01 0.24013120013E+01 0.24046491505E+01 0.23659853279E+01 0.23650840664E+01
 0.23625694649E+01 0.23589389144E+01 0.23548110563E+01 0.23506990788E+01 0.23468596357E+01
 0.23432997326E+01 0.23399177621E+01 0.23366624664E+01 0.23335989363E+01 0.23308583915E+01
 0.23285315851E+01 0.23265865826E+01 0.23248596482E+01 0.23231176212E+01 0.23211484037E+01
 0.23188261759E+01 0.23161295594E+01 0.23131350431E+01 0.23100160358E+01 0.23070437365E+01
 0.23045587822E+01 0.23029002439E+01 0.23023170393E+01 0.23029002439E+01 0.23045587822E+01
 0.23070437365E+01 0.23100160358E+01 0.23131350431E+01 0.23161295594E+01 0.23188261759E+01
 0.23211484037E+01 0.23231176212E+01 0.23248596482E+01 0.23265865826E+01 0.23285315851E+01
 0.23308583915E+01 0.23335989363E+01 0.23366624664E+01 0.23399177621E+01 0.23432997326E+01
 0.23468596357E+01 0.23506990788E+01 0.23548110563E+01 0.23589389144E+01 0.23625694649E+01
 0.23650840664E+01 0.23435595603E+01 0.23426464875E+01 0.23401192574E+01 0.23365657871E+01
 0.23327925867E+01 0.23295658073E+01 0.23273444206E+01 0.23261511822E+01 0.23256589937E+01
 0.23254272580E+01 0.23251300924E+01 0.23246457547E+01 0.23239871835E+01 0.23231600122E+01
 0.23220694719E+01 0.23205448471E+01 0.23184521586E+01 0.23158018868E+01 0.23127780855E+01
 0.23096852664E+01 0.23068558387E+01 0.23045587822E+01 0.23029374806E+01 0.23020045453E+01
 0.23017045341E+01 0.23020045453E+01 0.23029374806E+01 0.23045587822E+01 0.23068558387E+01
 0.23096852664E+01 0.23127780855E+01 0.23158018868E+01 0.23184521586E+01 0.23205448471E+01
 0.23220694719E+01 0.23231600122E+01 0.23239871835E+01 0.23246457547E+01 0.23251300924E+01
 0.23254272580E+01 0.23256589937E+01 0.23261511822E+01 0.23273444206E+01 0.23295658073E+01
 0.23327925867E+01 0.23365657871E+01 0.23401192574E+01 0.23426464875E+01 0.23163998969E+01
 0.23159967914E+01 0.23149715289E+01 0.23138032479E+01 0.23130705430E+01 0.23132069435E+01
 0.23143186002E+01 0.23161574565E+01 0.23182586286E+01 0.23201533967E+01 0.23215333964E+01
 0.23222894097E+01 0.23224354531E+01 0.23219937654E+01 0.23209261528E+01 0.23191564009E+01
 0.23166652300E+01 0.23135906535E+01 0.23102605849E+01 0.23071224946E+01 0.23045931367E+01
 0.23029002439E+01 0.23020045453E+01 0.23016588129E+01 0.23015837372E+01 0.23016588129E+01
 0.23020045453E+01 0.23029002439E+01 0.23045931367E+01 0.23071224946E+01 0.23102605849E+01
 0.23135906535E+01 0.23166652300E+01 0.23191564009E+01 0.23209261528E+01 0.23219937654E+01
 0.23224354531E+01 0.23222894097E+01 0.23215333964E+01 0.23201533967E+01 0.23182586286E+01
 0.23161574565E+01 0.23143186002E+01 0.23132069435E+01 0.23130705430E+01 0.23138032479E+01
 0.23149715289E+01 0.23159967914E+01 0.23015939524E+01 0.23015837372E+01 0.23017045341E+01
 0.23023170393E+01 0.23037676522E+01 0.23061701586E+01 0.23093187537E+01 0.23127703457E+01
 0.23160291121E+01 0.23187167289E+01 0.23206439848E+01 0.23217765355E+01 0.23221470639E+01
 0.23217765355E+01 0.23206439848E+01 0.23187167289E+01 0.23160291121E+01 0.23127703457E+01
 0.23093187537E+01 0.23061701586E+01 0.23037676522E+01 0.23023170393E+01 0.23017045341E+01
 0.23015837372E+01 0.23015939524E+01 0.23015837372E+01 0.23017045341E+01 0.23023170393E+01
 0.23037676522E+01 0.23061701586E+01 0.23093187537E+01 0.23127703457E+01 0.23160291121E+01
 0.23187167289E+01 0.23206439848E+01 0.23217765355E+01 0.23221470639E+01 0.23217765355E+01
 0.23206439848E+01 0.23187167289E+01 0.23160291121E+01 0.23127703457E+01 0.23093187537E+01
 0.23061701586E+01 0.23037676522E+01 0.23023170393E+01 0.23017045341E+01 0.23015837372E+01
 0.23163998969E+01 0.23159967914E+01 0.23149715289E+01 0.23138032479E+01 0.23130705430E+01
 0.23132069435E+01 0.23143186002E+01 0.23161574565E+01 0.23182586286E+01 0.23201533967E+01
 0.23215333964E+01 0.23222894097E+01 0.23224354531E+01 0.23219937654E+01 0.23209261528E+01
 0.23191564009E+01 0.23166652300E+01 0.23135906535E+01 0.23102605849E+01 0.23071224946E+01
 0.23045931367E+01 0.23029002439E+01 0.23020045453E+01 0.23016588129E+01 0.23015837372E+01
 0.23016588129E+01 0.23020045453E+01 0.23029002439E+01 0.23045931367E+01 0.23071224946E+01
 0.23102605849E+01 0.23135906535E+01 0.23166652300E+01 0.23191564009E+01 0.23209261528E+01
 0.23219937654E+01 0.23224354531E+01 0.23222894097E+01 0.23215333964E+01 0.23201533967E+01
 0.23182586286E+01 0.23161574565E+01 0.23143186002E+01 0.23132069435E+01 0.23130705430E+01
 0.23138032479E+01 0.23149715289E+01 0.23159967914E+01 0.23435595603E+01 0.23426464875E+01
 0.23401192574E+01 0.23365657871E+01 0.23327925867E+01 0.23295658073E+01 0.23273444206E+01
 0.23261511822E+01 0.23256589937E+01 0.23254272580E+01 0.23251300924E+01 0.23246457547E+01
 0.23239871835E+01 0.23231600122E+01 0.23220694719E+01 0.23205448471E+01 0.23184521586E+01
 0.23158018868E+01 0.23127780855E+01 0.23096852664E+01 0.23068558387E+01 0.23045587822E+01
 0.23029374806E+01 0.23020045453E+01 0.23017045341E+01 0.23020045453E+01 0.23029374806E+01
 0.23045587822E+01 0.23068558387E+01 0.23096852664E+01 0.23127780855E+01 0.23158018868E+01
 0.23184521586E+01 0.23205448471E+01 0.23220694719E+01 0.23231600122E+01 0.23239871835E+01
 0.23246457547E+01 0.23251300924E+01 0.23254272580E+01 0.23256589937E+01 0.23261511822E+01
 0.23273444206E+01 0.23295658073E+01 0.23327925867E+01 0.23365657871E+01 0.23401192574E+01
 0.23426464875E+01 0.23659853279E+01 0.23650840664E+01 0.23625694649E+01 0.23589389144E+01
 0.23548110563E+01 0.23506990788E+01 0.23468596357E+01 0.23432997326E+01 0.23399177621E+01
 0.23366624664E+01 0.23335989363E+01 0.23308583915E+01 0.23285315851E+01 0.23265865826E+01
 0.23248596482E+01 0.23231176212E+01 0.23211484037E+01 0.23188261759E+01 0.23161295594E+01
 0.23131350431E+01 0.23100160358E+01 0.23070437365E+01 0.23045587822E+01 0.23029002439E+01
 0.23023170393E+01 0.23029002439E+01 0.23045587822E+01 0.23070437365E+01 0.23100160358E+01
 0.23131350431E+01 0.23161295594E+01 0.23188261759E+01 0.23211484037E+01 0.23231176212E+01
 0.23248596482E+01 0.23265865826E+01 0.23285315851E+01 0.23308583915E+01 0.23335989363E+01
 0.23366624664E+01 0.23399177621E+01 0.23432997326E+01 0.23468596357E+01 0.23506990788E+01
 0.23548110563E+01 0.23589389144E+01 0.23625694649E+01 0.23650840664E+01 0.24058391770E+01
 0.24046491505E+01 0.24013120013E+01 0.23964044837E+01 0.23905620825E+01 0.23842180803E+01
 0.23775292055E+01 0.23705099964E+01 0.23632459498E+01 0.23560097283E+01 0.23491986480E+01
 0.23431607965E+01 0.23380535520E+01 0.23338276882E+01 0.23303147511E+01 0.23273233108E+01
 0.23246720675E+01 0.23221656944E+01 0.23195774135E+01 0.23166976148E+01 0.23134507917E+01
 0.23100160358E+01 0.23068558387E+01 0.23045931367E+01 0.23037676522E+01 0.23045931367E+01
 0.23068558387E+01 0.23100160358E+01 0.23134507917E+01 0.23166976148E+01 0.23195774135E+01
 0.23221656944E+01 0.23246720675E+01 0.23273233108E+01 0.23303147511E+01 0.23338276882E+01
 0.23380535520E+01 0.23431607965E+01 0.23491986480E+01 0.23560097283E+01 0.23632459498E+01
 0.23705099964E+01 0.23775292055E+01 0.23842180803E+01 0.23905620825E+01 0.23964044837E+01
 0.24013120013E+01 0.24046491505E+01 0.24994814299E+01 0.24966098062E+01 0.24884390702E+01
 0.24761492186E+01 0.24612737052E+01 0.24452684322E+01 0.24292184753E+01 0.24137748837E+01
 0.23992786753E+01 0.23859343575E+01 0.23739023518E+01 0.23632814223E+01 0.23540611730E+01
 0.23461396338E+01 0.23394097416E+01 0.23338216282E+01 0.23293353915E+01 0.23257901297E+01
 0.23228174487E+01 0.23199176579E+01 0.23166976148E+01 0.23131350431E+01 0.23096852664E+01
 0.23071224946E+01 0.23061701586E+01 0.23071224946E+01 0.23096852664E+01 0.23131350431E+01
 0.23166976148E+01 0.23199176579E+01 0.23228174487E+01 0.23257901297E+01 0.23293353915E+01
 0.23338216282E+01 0.23394097416E+01 0.23461396338E+01 0.23540611730E+01 0.23632814223E+01
 0.23739023518E+01 0.23859343575E+01 0.23992786753E+01 0.24137748837E+01 0.24292184753E+01
 0.24452684322E+01 0.24612737052E+01 0.24761492186E+01 0.24884390702E+01 0.24966098062E+01
 0.26709911026E+01 0.26648151179E+01 0.26471100388E+01 0.26201586018E+01 0.25871913281E+01
 0.25516857298E+01 0.25166845530E+01 0.24843374626E+01 0.24557697483E+01 0.24312349990E+01
 0.24104109325E+01 0.23927020119E+01 0.23774849961E+01 0.23642912982E+01 0.23529146212E+01
 0.23433971249E+01 0.23358611802E+01 0.23302492494E+01 0.23261413634E+01 0.23228174487E+01
 0.23195774135E+01 0.23161295594E+01 0.23127780855E+01 0.23102605849E+01 0.23093187537E+01
 0.23102605849E+01 0.23127780855E+01 0.23161295594E+01 0.23195774135E+01 0.23228174487E+01
 0.23261413634E+01 0.23302492494E+01 0.23358611802E+01 0.23433971249E+01 0.23529146212E+01
 0.23642912982E+01 0.23774849961E+01 0.23927020119E+01 0.24104109325E+01 0.24312349990E+01
 0.24557697483E+01 0.24843374626E+01 0.25166845530E+01 0.25516857298E+01 0.25871913281E+01
 0.26201586018E+01 0.26471100388E+01 0.26648151179E+01 0.29776774129E+01 0.29655887654E+01
 0.29308451814E+01 0.28776909003E+01 0.28122136605E+01 0.27411581138E+01 0.26707549079E+01
 0.26058396770E+01 0.25493929451E+01 0.25024967481E+01 0.24646415216E+01 0.24342933698E+01
 0.24095859354E+01 0.23889437854E+01 0.23714448185E+01 0.23568222912E+01 0.23451554510E+01
 0.23364345213E+01 0.23302492494E+01 0.23257901297E+01 0.23221656944E+01 0.23188261759E+01
 0.23158018868E+01 0.23135906535E+01 0.23127703457E+01 0.23135906535E+01 0.23158018868E+01
 0.23188261759E+01 0.23221656944E+01 0.23257901297E+01 0.23302492494E+01 0.23364345213E+01
 0.23451554510E+01 0.23568222912E+01 0.23714448185E+01 0.23889437854E+01 0.24095859354E+01
 0.24342933698E+01 0.24646415216E+01 0.25024967481E+01 0.25493929451E+01 0.26058396770E+01
 0.26707549079E+01 0.27411581138E+01 0.28122136605E+01 0.28776909003E+01 0.29308451814E+01
 0.29655887654E+01 0.35672011577E+01 0.35431901808E+01 0.34741452080E+01 0.33683869744E+01
 0.32378557945E+01 0.30958661272E+01 0.29549314293E+01 0.28250926026E+01 0.27129361037E+01
 0.26213161981E+01 0.25497317739E+01 0.24952635690E+01 0.24538655044E+01 0.24216555793E+01
 0.23958045741E+01 0.23747769404E+01 0.23579817190E+01 0.23451554510E+01 0.23358611802E+01
 0.23293353915E+01 0.23246720675E+01 0.23211484037E+01 0.23184521586E+01 0.23166652300E+01
 0.23160291121E+01 0.23166652300E+01 0.23184521586E+01 0.23211484037E+01 0.23246720675E+01
 0.23293353915E+01 0.23358611802E+01 0.23451554510E+01 0.23579817190E+01 0.23747769404E+01
 0.23958045741E+01 0.24216555793E+01 0.24538655044E+01 0.24952635690E+01 0.25497317739E+01
 0.26213161981E+01 0.27129361037E+01 0.28250926026E+01 0.29549314293E+01 0.30958661272E+01
 0.32378557945E+01 0.33683869744E+01 0.34741452080E+01 0.35431901808E+01 0.46746943229E+01
 0.46274618404E+01 0.44917046961E+01 0.42839435720E+01 0.40278342209E+01 0.37496879029E+01
 0.34741687021E+01 0.32210304752E+01 0.30032775052E+01 0.28267570502E+01 0.26909704500E+01
 0.25907723602E+01 0.25185473081E+01 0.24663756361E+01 0.24276789912E+01 0.23979828441E+01
 0.23747769404E+01 0.23568222912E+01 0.23433971249E+01 0.23338216282E+01 0.23273233108E+01
 0.23231176212E+01 0.23205448471E+01 0.23191564009E+01 0.23187167289E+01 0.23191564009E+01
 0.23205448471E+01 0.23231176212E+01 0.23273233108E+01 0.23338216282E+01 0.23433971249E+01
 0.23568222912E+01 0.23747769404E+01 0.23979828441E+01 0.24276789912E+01 0.24663756361E+01
 0.25185473081E+01 0.25907723602E+01 0.26909704500E+01 0.28267570502E+01 0.30032775052E+01
 0.32210304752E+01 0.34741687021E+01 0.37496879029E+01 0.40278342209E+01 0.42839435720E+01