   2   2   0   0
  0.9123716E+02  0.5671970E-09  0.5671970E-09  0.5671970E-09  0.5000000E-15
  1.000000000000000E-004
  CAR 
 Rb                                      
     20.27087327    -31.24073697  301      0.00656036      1.00000000
    -31.241  0.0000E+00  0.0000E+00
    -31.069  0.0000E+00  0.0000E+00
    -30.897  0.0000E+00  0.0000E+00
    -30.726  0.0000E+00  0.0000E+00
    -30.554  0.0000E+00  0.0000E+00
    -30.382  0.0000E+00  0.0000E+00
    -30.211  0.0000E+00  0.0000E+00
    -30.039  0.0000E+00  0.0000E+00
    -29.867  0.0000E+00  0.0000E+00
    -29.695  0.0000E+00  0.0000E+00
    -29.524  0.0000E+00  0.0000E+00
    -29.352  0.0000E+00  0.0000E+00
    -29.180  0.9347E-14  0.1605E-14
    -29.009  0.1590E-01  0.2730E-02
    -28.837  0.2213E+02  0.3803E+01
    -28.665  0.1150E+01  0.4000E+01
    -28.493  0.1106E-09  0.4000E+01
    -28.322  0.0000E+00  0.4000E+01
    -28.150  0.0000E+00  0.4000E+01
    -27.978  0.0000E+00  0.4000E+01
    -27.807  0.0000E+00  0.4000E+01
    -27.635  0.0000E+00  0.4000E+01
    -27.463  0.0000E+00  0.4000E+01
    -27.292  0.0000E+00  0.4000E+01
    -27.120  0.0000E+00  0.4000E+01
    -26.948  0.0000E+00  0.4000E+01
    -26.776  0.0000E+00  0.4000E+01
    -26.605  0.0000E+00  0.4000E+01
    -26.433  0.0000E+00  0.4000E+01
    -26.261  0.0000E+00  0.4000E+01
    -26.090  0.0000E+00  0.4000E+01
    -25.918  0.0000E+00  0.4000E+01
    -25.746  0.0000E+00  0.4000E+01
    -25.574  0.0000E+00  0.4000E+01
    -25.403  0.0000E+00  0.4000E+01
    -25.231  0.0000E+00  0.4000E+01
    -25.059  0.0000E+00  0.4000E+01
    -24.888  0.0000E+00  0.4000E+01
    -24.716  0.0000E+00  0.4000E+01
    -24.544  0.0000E+00  0.4000E+01
    -24.373  0.0000E+00  0.4000E+01
    -24.201  0.0000E+00  0.4000E+01
    -24.029  0.0000E+00  0.4000E+01
    -23.857  0.0000E+00  0.4000E+01
    -23.686  0.0000E+00  0.4000E+01
    -23.514  0.0000E+00  0.4000E+01
    -23.342  0.0000E+00  0.4000E+01
    -23.171  0.0000E+00  0.4000E+01
    -22.999  0.0000E+00  0.4000E+01
    -22.827  0.0000E+00  0.4000E+01
    -22.655  0.0000E+00  0.4000E+01
    -22.484  0.0000E+00  0.4000E+01
    -22.312  0.0000E+00  0.4000E+01
    -22.140  0.0000E+00  0.4000E+01
    -21.969  0.0000E+00  0.4000E+01
    -21.797  0.0000E+00  0.4000E+01
    -21.625  0.0000E+00  0.4000E+01
    -21.454  0.0000E+00  0.4000E+01
    -21.282  0.0000E+00  0.4000E+01
    -21.110  0.0000E+00  0.4000E+01
    -20.938  0.0000E+00  0.4000E+01
    -20.767  0.0000E+00  0.4000E+01
    -20.595  0.0000E+00  0.4000E+01
    -20.423  0.0000E+00  0.4000E+01
    -20.252  0.0000E+00  0.4000E+01
    -20.080  0.0000E+00  0.4000E+01
    -19.908  0.0000E+00  0.4000E+01
    -19.736  0.0000E+00  0.4000E+01
    -19.565  0.0000E+00  0.4000E+01
    -19.393  0.0000E+00  0.4000E+01
    -19.221  0.0000E+00  0.4000E+01
    -19.050  0.0000E+00  0.4000E+01
    -18.878  0.0000E+00  0.4000E+01
    -18.706  0.0000E+00  0.4000E+01
    -18.535  0.0000E+00  0.4000E+01
    -18.363  0.0000E+00  0.4000E+01
    -18.191  0.0000E+00  0.4000E+01
    -18.019  0.0000E+00  0.4000E+01
    -17.848  0.0000E+00  0.4000E+01
    -17.676  0.0000E+00  0.4000E+01
    -17.504  0.0000E+00  0.4000E+01
    -17.333  0.0000E+00  0.4000E+01
    -17.161  0.0000E+00  0.4000E+01
    -16.989  0.0000E+00  0.4000E+01
    -16.817  0.0000E+00  0.4000E+01
    -16.646  0.0000E+00  0.4000E+01
    -16.474  0.0000E+00  0.4000E+01
    -16.302  0.0000E+00  0.4000E+01
    -16.131  0.0000E+00  0.4000E+01
    -15.959  0.0000E+00  0.4000E+01
    -15.787  0.0000E+00  0.4000E+01
    -15.616  0.0000E+00  0.4000E+01
    -15.444  0.0000E+00  0.4000E+01
    -15.272  0.0000E+00  0.4000E+01
    -15.100  0.0000E+00  0.4000E+01
    -14.929  0.0000E+00  0.4000E+01
    -14.757  0.0000E+00  0.4000E+01
    -14.585  0.0000E+00  0.4000E+01
    -14.414  0.0000E+00  0.4000E+01
    -14.242  0.0000E+00  0.4000E+01
    -14.070  0.0000E+00  0.4000E+01
    -13.898  0.0000E+00  0.4000E+01
    -13.727  0.0000E+00  0.4000E+01
    -13.555  0.0000E+00  0.4000E+01
    -13.383  0.0000E+00  0.4000E+01
    -13.212  0.9200E-06  0.4000E+01
    -13.040  0.7267E+01  0.5248E+01
    -12.868  0.6238E+02  0.1596E+02
    -12.697  0.2377E+00  0.1600E+02
    -12.525  0.0000E+00  0.1600E+02
    -12.353  0.0000E+00  0.1600E+02
    -12.181  0.0000E+00  0.1600E+02
    -12.010  0.0000E+00  0.1600E+02
    -11.838  0.0000E+00  0.1600E+02
    -11.666  0.0000E+00  0.1600E+02
    -11.495  0.0000E+00  0.1600E+02
    -11.323  0.0000E+00  0.1600E+02
    -11.151  0.0000E+00  0.1600E+02
    -10.980  0.0000E+00  0.1600E+02
    -10.808  0.0000E+00  0.1600E+02
    -10.636  0.0000E+00  0.1600E+02
    -10.464  0.0000E+00  0.1600E+02
    -10.293  0.0000E+00  0.1600E+02
    -10.121  0.0000E+00  0.1600E+02
     -9.949  0.0000E+00  0.1600E+02
     -9.778  0.0000E+00  0.1600E+02
     -9.606  0.0000E+00  0.1600E+02
     -9.434  0.0000E+00  0.1600E+02
     -9.262  0.0000E+00  0.1600E+02
     -9.091  0.0000E+00  0.1600E+02
     -8.919  0.0000E+00  0.1600E+02
     -8.747  0.0000E+00  0.1600E+02
     -8.576  0.0000E+00  0.1600E+02
     -8.404  0.0000E+00  0.1600E+02
     -8.232  0.0000E+00  0.1600E+02
     -8.061  0.0000E+00  0.1600E+02
     -7.889  0.0000E+00  0.1600E+02
     -7.717  0.0000E+00  0.1600E+02
     -7.545  0.0000E+00  0.1600E+02
     -7.374  0.0000E+00  0.1600E+02
     -7.202  0.0000E+00  0.1600E+02
     -7.030  0.0000E+00  0.1600E+02
     -6.859  0.0000E+00  0.1600E+02
     -6.687  0.0000E+00  0.1600E+02
     -6.515  0.0000E+00  0.1600E+02
     -6.343  0.0000E+00  0.1600E+02
     -6.172  0.0000E+00  0.1600E+02
     -6.000  0.0000E+00  0.1600E+02
     -5.828  0.0000E+00  0.1600E+02
     -5.657  0.0000E+00  0.1600E+02
     -5.485  0.0000E+00  0.1600E+02
     -5.313  0.0000E+00  0.1600E+02
     -5.142  0.0000E+00  0.1600E+02
     -4.970  0.0000E+00  0.1600E+02
     -4.798  0.0000E+00  0.1600E+02
     -4.626  0.0000E+00  0.1600E+02
     -4.455  0.0000E+00  0.1600E+02
     -4.283  0.0000E+00  0.1600E+02
     -4.111  0.0000E+00  0.1600E+02
     -3.940  0.0000E+00  0.1600E+02
     -3.768  0.0000E+00  0.1600E+02
     -3.596  0.0000E+00  0.1600E+02
     -3.424  0.0000E+00  0.1600E+02
     -3.253  0.0000E+00  0.1600E+02
     -3.081  0.0000E+00  0.1600E+02
     -2.909  0.0000E+00  0.1600E+02
     -2.738  0.0000E+00  0.1600E+02
     -2.566  0.0000E+00  0.1600E+02
     -2.394  0.0000E+00  0.1600E+02
     -2.223  0.3023E-15  0.1600E+02
     -2.051  0.3503E-04  0.1600E+02
     -1.879  0.8670E-01  0.1601E+02
     -1.707  0.3813E+00  0.1608E+02
     -1.536  0.5245E+00  0.1617E+02
     -1.364  0.6638E+00  0.1628E+02
     -1.192  0.8228E+00  0.1643E+02
     -1.021  0.7858E+00  0.1656E+02
     -0.849  0.1192E+01  0.1677E+02
     -0.677  0.1082E+01  0.1695E+02
     -0.505  0.1281E+01  0.1717E+02
     -0.334  0.1536E+01  0.1743E+02
     -0.162  0.1300E+01  0.1766E+02
      0.010  0.2021E+01  0.1801E+02
      0.181  0.1853E+01  0.1832E+02
      0.353  0.2085E+01  0.1868E+02
      0.525  0.2182E+01  0.1906E+02
      0.696  0.1792E+01  0.1936E+02
      0.868  0.2095E+01  0.1972E+02
      1.040  0.3517E+01  0.2033E+02
      1.212  0.3511E+01  0.2093E+02
      1.383  0.4304E+01  0.2167E+02
      1.555  0.3204E+01  0.2222E+02
      1.727  0.3540E+01  0.2283E+02
      1.898  0.3205E+01  0.2338E+02
      2.070  0.2855E+01  0.2387E+02
      2.242  0.3484E+01  0.2447E+02
      2.414  0.3357E+01  0.2504E+02
      2.585  0.4810E+01  0.2587E+02
      2.757  0.4054E+01  0.2656E+02
      2.929  0.3936E+01  0.2724E+02
      3.100  0.3698E+01  0.2788E+02
      3.272  0.2704E+01  0.2834E+02
      3.444  0.4071E+01  0.2904E+02
      3.615  0.2750E+01  0.2951E+02
      3.787  0.3431E+01  0.3010E+02
      3.959  0.4443E+01  0.3086E+02
      4.131  0.5044E+01  0.3173E+02
      4.302  0.5738E+01  0.3271E+02
      4.474  0.5105E+01  0.3359E+02
      4.646  0.5020E+01  0.3445E+02
      4.817  0.5656E+01  0.3542E+02
      4.989  0.5788E+01  0.3642E+02
      5.161  0.9120E+01  0.3798E+02
      5.333  0.6783E+01  0.3915E+02
      5.504  0.3819E+01  0.3980E+02
      5.676  0.1063E+01  0.3999E+02
      5.848  0.2157E+01  0.4036E+02
      6.019  0.5318E+01  0.4127E+02
      6.191  0.8399E+01  0.4271E+02
      6.363  0.8235E+01  0.4413E+02
      6.534  0.6486E+01  0.4524E+02
      6.706  0.6837E+01  0.4641E+02
      6.878  0.7393E+01  0.4768E+02
      7.050  0.7418E+01  0.4896E+02
      7.221  0.5340E+01  0.4987E+02
      7.393  0.4086E+01  0.5058E+02
      7.565  0.2653E+01  0.5103E+02
      7.736  0.2243E+01  0.5142E+02
      7.908  0.2011E+01  0.5176E+02
      8.080  0.2542E+01  0.5220E+02
      8.251  0.1834E+01  0.5251E+02
      8.423  0.1848E+01  0.5283E+02
      8.595  0.2393E+01  0.5324E+02
      8.767  0.2553E+01  0.5368E+02
      8.938  0.3884E+01  0.5435E+02
      9.110  0.7463E+01  0.5563E+02
      9.282  0.6115E+01  0.5668E+02
      9.453  0.6389E+01  0.5777E+02
      9.625  0.3777E+01  0.5842E+02
      9.797  0.5837E+01  0.5943E+02
      9.969  0.4882E+01  0.6026E+02
     10.140  0.4428E+01  0.6102E+02
     10.312  0.5079E+01  0.6190E+02
     10.484  0.6092E+01  0.6294E+02
     10.655  0.4772E+01  0.6376E+02
     10.827  0.5540E+01  0.6471E+02
     10.999  0.4567E+01  0.6550E+02
     11.170  0.4960E+01  0.6635E+02
     11.342  0.4690E+01  0.6715E+02
     11.514  0.4623E+01  0.6795E+02
     11.686  0.3424E+01  0.6854E+02
     11.857  0.5461E+01  0.6947E+02
     12.029  0.6183E+01  0.7053E+02
     12.201  0.5907E+01  0.7155E+02
     12.372  0.5367E+01  0.7247E+02
     12.544  0.4478E+01  0.7324E+02
     12.716  0.2913E+01  0.7374E+02
     12.888  0.2627E+01  0.7419E+02
     13.059  0.3748E+01  0.7483E+02
     13.231  0.4578E+01  0.7562E+02
     13.403  0.5134E+01  0.7650E+02
     13.574  0.4785E+01  0.7732E+02
     13.746  0.6459E+01  0.7843E+02
     13.918  0.6239E+01  0.7950E+02
     14.089  0.6670E+01  0.8065E+02
     14.261  0.6108E+01  0.8170E+02
     14.433  0.5644E+01  0.8267E+02
     14.605  0.6725E+01  0.8382E+02
     14.776  0.6590E+01  0.8495E+02
     14.948  0.6185E+01  0.8602E+02
     15.120  0.6171E+01  0.8707E+02
     15.291  0.3781E+01  0.8772E+02
     15.463  0.4226E+01  0.8845E+02
     15.635  0.5589E+01  0.8941E+02
     15.807  0.6162E+01  0.9047E+02
     15.978  0.5847E+01  0.9147E+02
     16.150  0.5468E+01  0.9241E+02
     16.322  0.6462E+01  0.9352E+02
     16.493  0.3888E+01  0.9419E+02
     16.665  0.4450E+01  0.9495E+02
     16.837  0.2029E+01  0.9530E+02
     17.008  0.1338E+01  0.9553E+02
     17.180  0.1317E+01  0.9576E+02
     17.352  0.5144E+00  0.9584E+02
     17.524  0.2615E+00  0.9589E+02
     17.695  0.3331E+00  0.9595E+02
     17.867  0.2480E+00  0.9599E+02
     18.039  0.6643E-01  0.9600E+02
     18.210  0.4064E-04  0.9600E+02
     18.382  0.0000E+00  0.9600E+02
     18.554  0.0000E+00  0.9600E+02
     18.726  0.0000E+00  0.9600E+02
     18.897  0.0000E+00  0.9600E+02
     19.069  0.0000E+00  0.9600E+02
     19.241  0.0000E+00  0.9600E+02
     19.412  0.0000E+00  0.9600E+02
     19.584  0.0000E+00  0.9600E+02
     19.756  0.0000E+00  0.9600E+02
     19.927  0.0000E+00  0.9600E+02
     20.099  0.0000E+00  0.9600E+02
     20.271  0.0000E+00  0.9600E+02
