    2    2    1    1
  0.9123716E+02  0.5671970E-09  0.5671970E-09  0.5671970E-09  0.5000000E-15
  1.000000000000000E-004
  CAR 
 Rb                                      
     18     84     48
 
  0.0000000E+00  0.0000000E+00  0.0000000E+00  0.5787037E-03
      1        -28.899300   1.000000
      2        -28.891893   1.000000
      3        -13.010832   1.000000
      4        -13.010832   1.000000
      5        -13.010832   1.000000
      6        -12.942472   1.000000
      7        -12.942472   1.000000
      8        -12.942472   1.000000
      9         -1.958950   1.000000
     10          1.267202   0.000000
     11          1.267202   0.000000
     12          3.252915   0.000000
     13          3.252915   0.000000
     14          3.252915   0.000000
     15          3.683896   0.000000
     16          3.683896   0.000000
     17          3.683896   0.000000
     18          4.614114   0.000000
     19          4.614114   0.000000
     20          4.787901   0.000000
     21          5.974468   0.000000
     22          5.974468   0.000000
     23          5.974468   0.000000
     24          6.703475   0.000000
     25          6.703475   0.000000
     26          6.703475   0.000000
     27          9.301205   0.000000
     28          9.301205   0.000000
     29          9.301205   0.000000
     30         10.019814   0.000000
     31         10.019814   0.000000
     32         10.428392   0.000000
     33         10.515463   0.000000
     34         10.515463   0.000000
     35         11.937754   0.000000
     36         12.815801   0.000000
     37         12.815801   0.000000
     38         12.815801   0.000000
     39         13.963013   0.000000
     40         13.963013   0.000000
     41         13.963013   0.000000
     42         14.563587   0.000000
     43         15.311929   0.000000
     44         15.311929   0.000000
     45         15.311929   0.000000
     46         16.488453   0.000000
     47         16.488453   0.000000
     48         16.488453   0.000000
 
  0.8333333E-01 -0.9107130E-33  0.0000000E+00  0.3472222E-02
      1        -28.899160   1.000000
      2        -28.892006   1.000000
      3        -13.010485   1.000000
      4        -13.009445   1.000000
      5        -13.009445   1.000000
      6        -12.944920   1.000000
      7        -12.943643   1.000000
      8        -12.943643   1.000000
      9         -1.917910   1.000000
     10          1.213942   0.000000
     11          1.297376   0.000000
     12          3.155192   0.000000
     13          3.230517   0.000000
     14          3.230517   0.000000
     15          3.635029   0.000000
     16          3.635029   0.000000
     17          3.709565   0.000000
     18          4.437888   0.000000
     19          4.653629   0.000000
     20          5.011610   0.000000
     21          5.905077   0.000000
     22          6.044382   0.000000
     23          6.044382   0.000000
     24          6.820722   0.000000
     25          6.820722   0.000000
     26          6.900854   0.000000
     27          8.766570   0.000000
     28          9.252537   0.000000
     29          9.252537   0.000000
     30          9.899431   0.000000
     31          9.993886   0.000000
     32         10.520432   0.000000
     33         10.572802   0.000000
     34         10.807570   0.000000
     35         12.192513   0.000000
     36         12.658823   0.000000
     37         12.681828   0.000000
     38         12.681828   0.000000
     39         13.903805   0.000000
     40         13.903805   0.000000
     41         13.909497   0.000000
     42         14.944852   0.000000
     43         15.297628   0.000000
     44         15.297628   0.000000
     45         15.372294   0.000000
     46         16.133056   0.000000
     47         16.652748   0.000000
     48         16.652748   0.000000
 
  0.1666667E+00 -0.1179151E-32  0.0000000E+00  0.3472222E-02
      1        -28.898750   1.000000
      2        -28.892338   1.000000
      3        -13.009727   1.000000
      4        -13.005869   1.000000
      5        -13.005869   1.000000
      6        -12.951180   1.000000
      7        -12.946908   1.000000
      8        -12.946908   1.000000
      9         -1.795864   1.000000
     10          1.027863   0.000000
     11          1.387730   0.000000
     12          3.057116   0.000000
     13          3.173964   0.000000
     14          3.173964   0.000000
     15          3.512171   0.000000
     16          3.512171   0.000000
     17          3.786195   0.000000
     18          4.041175   0.000000
     19          4.769527   0.000000
     20          5.495021   0.000000
     21          5.716182   0.000000
     22          6.241952   0.000000
     23          6.241952   0.000000
     24          7.147305   0.000000
     25          7.147305   0.000000
     26          7.352197   0.000000
     27          7.866459   0.000000
     28          9.106849   0.000000
     29          9.106849   0.000000
     30          9.601558   0.000000
     31          9.916962   0.000000
     32         10.752966   0.000000
     33         10.774319   0.000000
     34         11.029961   0.000000
     35         12.309095   0.000000
     36         12.309095   0.000000
     37         12.422875   0.000000
     38         12.810406   0.000000
     39         13.754857   0.000000
     40         13.786316   0.000000
     41         13.786316   0.000000
     42         15.225565   0.000000
     43         15.225565   0.000000
     44         15.547848   0.000000
     45         15.555328   0.000000
     46         15.802792   0.000000
     47         17.080408   0.000000
     48         17.080408   0.000000
 
  0.2500000E+00  0.8736358E-32  0.0000000E+00  0.3472222E-02
      1        -28.898111   1.000000
      2        -28.892873   1.000000
      3        -13.008120   1.000000
      4        -13.000185   1.000000
      5        -13.000185   1.000000
      6        -12.960386   1.000000
      7        -12.952112   1.000000
      8        -12.952112   1.000000
      9         -1.596228   1.000000
     10          0.696596   0.000000
     11          1.537843   0.000000
     12          3.107125   0.000000
     13          3.107125   0.000000
     14          3.148161   0.000000
     15          3.361812   0.000000
     16          3.361812   0.000000
     17          3.582205   0.000000
     18          3.912573   0.000000
     19          4.949902   0.000000
     20          5.450782   0.000000
     21          5.991311   0.000000
     22          6.539624   0.000000
     23          6.539624   0.000000
     24          6.963648   0.000000
     25          7.631548   0.000000
     26          7.631548   0.000000
     27          7.874434   0.000000
     28          8.868421   0.000000
     29          8.868421   0.000000
     30          9.298347   0.000000
     31          9.791388   0.000000
     32         11.074741   0.000000
     33         11.078482   0.000000
     34         11.139524   0.000000
     35         11.760451   0.000000
     36         11.760451   0.000000
     37         12.260890   0.000000
     38         13.096631   0.000000
     39         13.513858   0.000000
     40         13.707067   0.000000
     41         13.707067   0.000000
     42         15.037021   0.000000
     43         15.037021   0.000000
     44         15.495410   0.000000
     45         15.866311   0.000000
     46         16.365599   0.000000
     47         16.858028   0.000000
     48         17.649164   0.000000
 
  0.3333333E+00  0.1629395E-33  0.0000000E+00  0.3472222E-02
      1        -28.897289   1.000000
      2        -28.893590   1.000000
      3        -13.004958   1.000000
      4        -12.992939   1.000000
      5        -12.992939   1.000000
      6        -12.971293   1.000000
      7        -12.958893   1.000000
      8        -12.958893   1.000000
      9         -1.324549   1.000000
     10          0.275991   0.000000
     11          1.746905   0.000000
     12          3.053782   0.000000
     13          3.053782   0.000000
     14          3.129374   0.000000
     15          3.221846   0.000000
     16          3.221846   0.000000
     17          3.438088   0.000000
     18          4.086524   0.000000
     19          5.142468   0.000000
     20          5.150876   0.000000
     21          6.170413   0.000000
     22          6.292138   0.000000
     23          6.906812   0.000000
     24          6.906812   0.000000
     25          8.218348   0.000000
     26          8.218348   0.000000
     27          8.367860   0.000000
     28          8.558382   0.000000
     29          8.558382   0.000000
     30          9.223235   0.000000
     31          9.619226   0.000000
     32         10.973214   0.000000
     33         11.098605   0.000000
     34         11.098605   0.000000
     35         11.563600   0.000000
     36         11.576676   0.000000
     37         12.166051   0.000000
     38         12.731946   0.000000
     39         13.204016   0.000000
     40         13.721293   0.000000
     41         13.721293   0.000000
     42         14.729549   0.000000
     43         14.729549   0.000000
     44         15.203652   0.000000
     45         16.256453   0.000000
     46         16.311344   0.000000
     47         17.717721   0.000000
     48         17.717721   0.000000
 
  0.4166667E+00 -0.4932802E-32  0.0000000E+00  0.3472222E-02
      1        -28.896359   1.000000
      2        -28.894444   1.000000
      3        -12.999575   1.000000
      4        -12.984518   1.000000
      5        -12.984518   1.000000
      6        -12.982307   1.000000
      7        -12.966906   1.000000
      8        -12.966906   1.000000
      9         -0.988529   1.000000
     10         -0.169235   1.000000
     11          2.013603   0.000000
     12          2.709793   0.000000
     13          3.031366   0.000000
     14          3.031366   0.000000
     15          3.114513   0.000000
     16          3.114513   0.000000
     17          3.883290   0.000000
     18          4.304484   0.000000
     19          4.847446   0.000000
     20          5.010830   0.000000
     21          5.831488   0.000000
     22          6.271402   0.000000
     23          7.315761   0.000000
     24          7.315761   0.000000
     25          8.153654   0.000000
     26          8.153654   0.000000
     27          8.787258   0.000000
     28          8.916677   0.000000
     29          8.916677   0.000000
     30          9.399836   0.000000
     31          9.523707   0.000000
     32         10.376090   0.000000
     33         10.376090   0.000000
     34         10.636874   0.000000
     35         12.005421   0.000000
     36         12.123423   0.000000
     37         12.259723   0.000000
     38         12.328631   0.000000
     39         12.840854   0.000000
     40         13.845173   0.000000
     41         13.845173   0.000000
     42         14.105458   0.000000
     43         14.382018   0.000000
     44         14.382018   0.000000
     45         16.893662   0.000000
     46         17.181452   0.000000
     47         17.883684   0.000000
     48         17.929436   0.000000
 
  0.5000000E+00  0.1747272E-31  0.0000000E+00  0.1736111E-02
      1        -28.895389   1.000000
      2        -28.895389   1.000000
      3        -12.991876   1.000000
      4        -12.991876   1.000000
      5        -12.975566   1.000000
      6        -12.975566   1.000000
      7        -12.975566   1.000000
      8        -12.975566   1.000000
      9         -0.598491   1.000000
     10         -0.598491   1.000000
     11          2.335762   0.000000
     12          2.335762   0.000000
     13          3.050264   0.000000
     14          3.050264   0.000000
     15          3.050264   0.000000
     16          3.050264   0.000000
     17          4.440609   0.000000
     18          4.440609   0.000000
     19          4.560968   0.000000
     20          4.560968   0.000000
     21          6.039261   0.000000
     22          6.039261   0.000000
     23          7.740602   0.000000
     24          7.740602   0.000000
     25          7.740602   0.000000
     26          7.740602   0.000000
     27          9.126868   0.000000
     28          9.126868   0.000000
     29          9.636205   0.000000
     30          9.636205   0.000000
     31          9.636205   0.000000
     32          9.636205   0.000000
     33         10.078946   0.000000
     34         10.078946   0.000000
     35         12.151629   0.000000
     36         12.151629   0.000000
     37         12.437098   0.000000
     38         12.437098   0.000000
     39         13.112934   0.000000
     40         13.112934   0.000000
     41         14.072594   0.000000
     42         14.072594   0.000000
     43         14.072594   0.000000
     44         14.072594   0.000000
     45         17.609618   0.000000
     46         17.609618   0.000000
     47         17.706681   0.000000
     48         17.706681   0.000000
 
  0.8333333E-01  0.8333333E-01  0.0000000E+00  0.6944444E-02
      1        -28.899025   1.000000
      2        -28.892114   1.000000
      3        -13.012481   1.000000
      4        -13.008272   1.000000
      5        -13.006178   1.000000
      6        -12.949227   1.000000
      7        -12.944788   1.000000
      8        -12.942588   1.000000
      9         -1.877084   1.000000
     10          1.212197   0.000000
     11          1.279512   0.000000
     12          2.931202   0.000000
     13          3.207143   0.000000
     14          3.393511   0.000000
     15          3.557964   0.000000
     16          3.567560   0.000000
     17          3.759123   0.000000
     18          4.435877   0.000000
     19          4.581642   0.000000
     20          5.147354   0.000000
     21          5.953022   0.000000
     22          5.997841   0.000000
     23          6.136698   0.000000
     24          6.849777   0.000000
     25          6.932494   0.000000
     26          7.141315   0.000000
     27          8.696128   0.000000
     28          8.806888   0.000000
     29          9.202058   0.000000
     30          9.841132   0.000000
     31          9.913228   0.000000
     32         10.609580   0.000000
     33         10.704890   0.000000
     34         11.057284   0.000000
     35         12.152076   0.000000
     36         12.299640   0.000000
     37         12.582291   0.000000
     38         13.104321   0.000000
     39         13.775803   0.000000
     40         13.910362   0.000000
     41         13.949569   0.000000
     42         14.830684   0.000000
     43         15.075878   0.000000
     44         15.580659   0.000000
     45         15.618207   0.000000
     46         16.188535   0.000000
     47         16.401004   0.000000
     48         16.790518   0.000000
 
  0.1666667E+00  0.8333333E-01  0.0000000E+00  0.1388889E-01
      1        -28.898628   1.000000
      2        -28.892433   1.000000
      3        -13.013512   1.000000
      4        -13.004773   1.000000
      5        -13.001016   1.000000
      6        -12.957014   1.000000
      7        -12.947882   1.000000
      8        -12.944022   1.000000
      9         -1.755725   1.000000
     10          1.052793   0.000000
     11          1.346467   0.000000
     12          2.766801   0.000000
     13          3.148047   0.000000
     14          3.368388   0.000000
     15          3.440819   0.000000
     16          3.482302   0.000000
     17          3.851601   0.000000
     18          4.169878   0.000000
     19          4.687640   0.000000
     20          5.483457   0.000000
     21          5.783556   0.000000
     22          6.178379   0.000000
     23          6.389467   0.000000
     24          7.084771   0.000000
     25          7.246492   0.000000
     26          7.562538   0.000000
     27          7.905014   0.000000
     28          8.715434   0.000000
     29          9.051798   0.000000
     30          9.575955   0.000000
     31          9.814176   0.000000
     32         10.841264   0.000000
     33         10.852740   0.000000
     34         11.343507   0.000000
     35         11.728992   0.000000
     36         12.281739   0.000000
     37         12.595658   0.000000
     38         13.122013   0.000000
     39         13.617696   0.000000
     40         13.884657   0.000000
     41         14.041137   0.000000
     42         14.885990   0.000000
     43         14.907104   0.000000
     44         15.650265   0.000000
     45         15.843097   0.000000
     46         16.112249   0.000000
     47         16.710785   0.000000
     48         17.162785   0.000000
 
  0.2500000E+00  0.8333333E-01  0.0000000E+00  0.1388889E-01
      1        -28.898008   1.000000
      2        -28.892949   1.000000
      3        -13.013033   1.000000
      4        -12.999266   1.000000
      5        -12.994485   1.000000
      6        -12.967048   1.000000
      7        -12.952859   1.000000
      8        -12.947971   1.000000
      9         -1.557245   1.000000
     10          0.725923   0.000000
     11          1.485874   0.000000
     12          2.777461   0.000000
     13          3.077741   0.000000
     14          3.119369   0.000000
     15          3.296825   0.000000
     16          3.545001   0.000000
     17          3.822325   0.000000
     18          3.984276   0.000000
     19          4.892361   0.000000
     20          5.520892   0.000000
     21          5.876071   0.000000
     22          6.475709   0.000000
     23          6.722439   0.000000
     24          6.923762   0.000000
     25          7.545967   0.000000
     26          7.716902   0.000000
     27          8.087182   0.000000
     28          8.638143   0.000000
     29          8.808027   0.000000
     30          9.287619   0.000000
     31          9.683975   0.000000
     32         11.076003   0.000000
     33         11.177105   0.000000
     34         11.369298   0.000000
     35         11.387085   0.000000
     36         11.820095   0.000000
     37         12.683271   0.000000
     38         12.801288   0.000000
     39         13.453255   0.000000
     40         13.772428   0.000000
     41         14.252626   0.000000
     42         14.791853   0.000000
     43         14.906748   0.000000
     44         15.499656   0.000000
     45         15.989338   0.000000
     46         16.411701   0.000000
     47         16.746785   0.000000
     48         17.175640   0.000000
 
  0.3333333E+00  0.8333333E-01  0.0000000E+00  0.1388889E-01
      1        -28.897214   1.000000
      2        -28.893638   1.000000
      3        -13.010604   1.000000
      4        -12.992197   1.000000
      5        -12.986891   1.000000
      6        -12.978258   1.000000
      7        -12.959388   1.000000
      8        -12.953915   1.000000
      9         -1.287157   1.000000
     10          0.305986   0.000000
     11          1.680119   0.000000
     12          2.831276   0.000000
     13          2.894016   0.000000
     14          3.020380   0.000000
     15          3.164988   0.000000
     16          3.518117   0.000000
     17          3.695836   0.000000
     18          4.160657   0.000000
     19          5.105222   0.000000
     20          5.223011   0.000000
     21          6.174578   0.000000
     22          6.183749   0.000000
     23          6.842551   0.000000
     24          7.007610   0.000000
     25          7.934887   0.000000
     26          8.286169   0.000000
     27          8.338566   0.000000
     28          8.498742   0.000000
     29          8.771239   0.000000
     30          9.242954   0.000000
     31          9.508582   0.000000
     32         10.962978   0.000000
     33         11.069601   0.000000
     34         11.209577   0.000000
     35         11.538002   0.000000
     36         11.711718   0.000000
     37         12.438343   0.000000
     38         12.439117   0.000000
     39         13.217764   0.000000
     40         13.742951   0.000000
     41         14.200955   0.000000
     42         14.554937   0.000000
     43         14.609146   0.000000
     44         15.565633   0.000000
     45         16.188913   0.000000
     46         16.236945   0.000000
     47         16.665247   0.000000
     48         17.504487   0.000000
 
  0.4166667E+00  0.8333333E-01  0.0000000E+00  0.1388889E-01
      1        -28.896313   1.000000
      2        -28.894462   1.000000
      3        -13.005893   1.000000
      4        -12.989196   1.000000
      5        -12.984102   1.000000
      6        -12.978458   1.000000
      7        -12.967147   1.000000
      8        -12.961425   1.000000
      9         -0.953104   1.000000
     10         -0.137969   0.999978
     11          1.923598   0.000000
     12          2.518743   0.000000
     13          2.993407   0.000000
     14          3.016754   0.000000
     15          3.065042   0.000000
     16          3.292950   0.000000
     17          4.020665   0.000000
     18          4.379296   0.000000
     19          4.921064   0.000000
     20          5.020492   0.000000
     21          5.830789   0.000000
     22          6.232501   0.000000
     23          7.250842   0.000000
     24          7.261446   0.000000
     25          7.890582   0.000000
     26          8.090319   0.000000
     27          8.627700   0.000000
     28          8.974332   0.000000
     29          9.225076   0.000000
     30          9.283695   0.000000
     31          9.565659   0.000000
     32         10.403029   0.000000
     33         10.468496   0.000000
     34         10.865118   0.000000
     35         11.960867   0.000000
     36         12.103422   0.000000
     37         12.178014   0.000000
     38         12.351173   0.000000
     39         12.892776   0.000000
     40         13.844713   0.000000
     41         13.847550   0.000000
     42         14.262976   0.000000
     43         14.335614   0.000000
     44         14.901385   0.000000
     45         16.583950   0.000000
     46         16.819762   0.000000
     47         17.010575   0.000000
     48         17.739037   0.000000
 
  0.5000000E+00  0.8333333E-01  0.0000000E+00  0.6944444E-02
      1        -28.895373   1.000000
      2        -28.895373   1.000000
      3        -12.998647   1.000000
      4        -12.998647   1.000000
      5        -12.975533   1.000000
      6        -12.975533   1.000000
      7        -12.969751   1.000000
      8        -12.969751   1.000000
      9         -0.565247   1.000000
     10         -0.565247   1.000000
     11          2.208081   0.000000
     12          2.208081   0.000000
     13          3.007028   0.000000
     14          3.007028   0.000000
     15          3.136638   0.000000
     16          3.136638   0.000000
     17          4.505746   0.000000
     18          4.505746   0.000000
     19          4.635490   0.000000
     20          4.635490   0.000000
     21          6.026525   0.000000
     22          6.026525   0.000000
     23          7.582263   0.000000
     24          7.582263   0.000000
     25          7.675376   0.000000
     26          7.675376   0.000000
     27          8.995519   0.000000
     28          8.995519   0.000000
     29          9.682439   0.000000
     30          9.682439   0.000000
     31          9.717616   0.000000
     32          9.717616   0.000000
     33         10.327804   0.000000
     34         10.327804   0.000000
     35         12.039154   0.000000
     36         12.039154   0.000000
     37         12.512509   0.000000
     38         12.512509   0.000000
     39         13.010524   0.000000
     40         13.010524   0.000000
     41         14.058689   0.000000
     42         14.058689   0.000000
     43         14.496392   0.000000
     44         14.496392   0.000000
     45         17.024011   0.000000
     46         17.024011   0.000000
     47         17.158683   0.000000
     48         17.158683   0.000000
 
  0.1666667E+00  0.1666667E+00  0.0000000E+00  0.6944444E-02
      1        -28.898268   1.000000
      2        -28.892714   1.000000
      3        -13.017264   1.000000
      4        -13.001601   1.000000
      5        -12.993754   1.000000
      6        -12.966821   1.000000
      7        -12.950664   1.000000
      8        -12.942651   1.000000
      9         -1.636470   1.000000
     10          1.089351   0.000000
     11          1.215470   0.000000
     12          2.579842   0.000000
     13          3.082445   0.000000
     14          3.094743   0.000000
     15          3.304039   0.000000
     16          3.759981   0.000000
     17          3.982486   0.000000
     18          4.353886   0.000000
     19          4.530031   0.000000
     20          5.546330   0.000000
     21          5.914827   0.000000
     22          6.063295   0.000000
     23          6.714628   0.000000
     24          7.121655   0.000000
     25          7.530097   0.000000
     26          7.561405   0.000000
     27          8.185915   0.000000
     28          8.194148   0.000000
     29          8.890157   0.000000
     30          9.477484   0.000000
     31          9.570183   0.000000
     32         10.922350   0.000000
     33         11.054437   0.000000
     34         11.294453   0.000000
     35         11.900627   0.000000
     36         12.174877   0.000000
     37         12.279200   0.000000
     38         13.484678   0.000000
     39         13.782067   0.000000
     40         13.904661   0.000000
     41         14.435648   0.000000
     42         14.544831   0.000000
     43         14.555830   0.000000
     44         15.836875   0.000000
     45         16.102862   0.000000
     46         16.112873   0.000000
     47         16.349607   0.000000
     48         16.553887   0.000000
 
  0.2500000E+00  0.1666667E+00  0.0000000E+00  0.1388889E-01
      1        -28.897707   1.000000
      2        -28.893172   1.000000
      3        -13.019293   1.000000
      4        -12.996664   1.000000
      5        -12.985887   1.000000
      6        -12.978258   1.000000
      7        -12.955056   1.000000
      8        -12.944002   1.000000
      9         -1.441495   1.000000
     10          0.811650   0.000000
     11          1.289533   0.000000
     12          2.613634   0.000000
     13          2.794225   0.000000
     14          3.003640   0.000000
     15          3.161688   0.000000
     16          3.938182   0.000000
     17          4.145145   0.000000
     18          4.145544   0.000000
     19          4.730354   0.000000
     20          5.711130   0.000000
     21          5.747974   0.000000
     22          6.305792   0.000000
     23          6.845890   0.000000
     24          7.022644   0.000000
     25          7.325957   0.000000
     26          7.964775   0.000000
     27          8.203980   0.000000
     28          8.633652   0.000000
     29          8.656225   0.000000
     30          9.258886   0.000000
     31          9.425578   0.000000
     32         11.014217   0.000000
     33         11.028346   0.000000
     34         11.244230   0.000000
     35         11.927428   0.000000
     36         11.998192   0.000000
     37         12.346188   0.000000
     38         13.388375   0.000000
     39         13.539909   0.000000
     40         13.834326   0.000000
     41         14.341287   0.000000
     42         14.663467   0.000000
     43         15.082613   0.000000
     44         15.515234   0.000000
     45         15.594108   0.000000
     46         16.115651   0.000000
     47         16.349335   0.000000
     48         16.778121   0.000000
 
  0.3333333E+00  0.1666667E+00  0.0000000E+00  0.1388889E-01
      1        -28.896990   1.000000
      2        -28.893785   1.000000
      3        -13.018992   1.000000
      4        -12.990295   1.000000
      5        -12.990158   1.000000
      6        -12.977463   1.000000
      7        -12.960917   1.000000
      8        -12.947868   1.000000
      9         -1.176309   1.000000
     10          0.392781   0.000000
     11          1.462323   0.000000
     12          2.492501   0.000000
     13          2.802787   0.000000
     14          2.936943   0.000000
     15          3.038753   0.000000
     16          3.856297   0.000000
     17          4.091784   0.000000
     18          4.341210   0.000000
     19          4.992725   0.000000
     20          5.420268   0.000000
     21          6.008060   0.000000
     22          6.183348   0.000000
     23          6.666768   0.000000
     24          7.113111   0.000000
     25          7.365214   0.000000
     26          8.291422   0.000000
     27          8.441858   0.000000
     28          8.523118   0.000000
     29          9.108644   0.000000
     30          9.252779   0.000000
     31          9.346912   0.000000
     32         10.785213   0.000000
     33         11.046048   0.000000
     34         11.148445   0.000000
     35         11.832143   0.000000
     36         12.061646   0.000000
     37         12.337292   0.000000
     38         12.910347   0.000000
     39         13.267246   0.000000
     40         13.772057   0.000000
     41         14.268118   0.000000
     42         14.523619   0.000000
     43         14.934196   0.000000
     44         15.479933   0.000000
     45         16.028863   0.000000
     46         16.175191   0.000000
     47         16.230784   0.000000
     48         16.546660   0.000000
 
  0.4166667E+00  0.1666667E+00  0.0000000E+00  0.1388889E-01
      1        -28.896177   1.000000
      2        -28.894519   1.000000
      3        -13.015839   1.000000
      4        -13.001024   1.000000
      5        -12.982977   1.000000
      6        -12.968958   1.000000
      7        -12.967809   1.000000
      8        -12.953623   1.000000