Rb                                      
           1
     5.671970    0.000000    0.000000
     0.000000    5.671970    0.000000
     0.000000    0.000000    5.671970
   Rb
     2
Direct configuration=     1
   0.00000000  0.00000000  0.00000000
   0.50000000  0.50000000  0.50000000
