 DBCSR| CPU Multiplication driver                                           BLAS (U)
 DBCSR| Multrec recursion limit                                              512 (U)
 DBCSR| Multiplication stack size                                           1000 (D)
 DBCSR| Maximum elements for images                                    UNLIMITED (U)
 DBCSR| Multiplicative factor virtual images                                   1 (U)
 DBCSR| Use multiplication densification                                       T (D)
 DBCSR| Multiplication size stacks                                             3 (U)
 DBCSR| Use memory pool for CPU allocation                                     F (U)
 DBCSR| Number of 3D layers                                               SINGLE (U)
 DBCSR| Use MPI memory allocation                                              F (U)
 DBCSR| Use RMA algorithm                                                      F (U)
 DBCSR| Use Communication thread                                               T (U)
 DBCSR| Communication thread load                                             45 (D)
 DBCSR| MPI: My process id                                                     0
 DBCSR| MPI: Number of processes                                               8
 DBCSR| OMP: Current number of threads                                        12
 DBCSR| OMP: Max number of threads                                            12
 DBCSR| Split modifier for TAS multiplication algorithm                  1.0E+00 (U)


  **** **** ******  **  PROGRAM STARTED AT               2025-08-05 00:05:57.922
 ***** ** ***  *** **   PROGRAM STARTED ON                          i02r04c02s12
 **    ****   ******    PROGRAM STARTED BY                               di38fab
 ***** **    ** ** **   PROGRAM PROCESS ID                               1625450
  **** **  *******  **  PROGRAM STARTED IN /hppfs/scratch/04/di38fab/09_GTH/Delt
                                           a_Set/Se/aug-DZVP-MOLOPT-GTH-tier-1/8
                                           x8x8

 CP2K| version string:                 CP2K version 2025.1 (Development Version)
 CP2K| source code revision number:                                  git:3130539
 CP2K| cp2kflags: omp libint fftw3 libxc parallel scalapack max_contr=4         
 CP2K| is freely available from                            https://www.cp2k.org/
 CP2K| Program compiled at                         Tue Jun  3 16:14:32 CEST 2025
 CP2K| Program compiled on                                               login01
 CP2K| Program compiled for                                        Supermuc-foss
 CP2K| Data directory path                  /hppfs/work/pn36zo/di38fab/cp2k/data
 CP2K| Input file name                                                    GW.inp

 GLOBAL| Force Environment number                                              1
 GLOBAL| Basis set file name            /hppfs/scratch/04/di38fab/09_GTH/BASIS_A
 GLOBAL| Potential file name            /hppfs/work/pn36zo/di38fab/cp2k/data/GTH
 GLOBAL| MM Potential file name                                     MM_POTENTIAL
 GLOBAL| Coordinate file name                                             Se.cif
 GLOBAL| Method name                                                        CP2K
 GLOBAL| Project name                                                       WSe2
 GLOBAL| Run type                                                         ENERGY
 GLOBAL| FFT library                                                       FFTW3
 GLOBAL| Diagonalization library                                       ScaLAPACK
 GLOBAL| Cholesky decomposition library                                ScaLAPACK
 GLOBAL| DGEMM library                                                      BLAS
 GLOBAL| Orthonormality check for eigenvectors                          DISABLED
 GLOBAL| Matrix multiplication library                                 ScaLAPACK
 GLOBAL| All-to-all communication in single precision                          F
 GLOBAL| FFTs using library dependent lengths                                  F
 GLOBAL| Grid backend                                                       AUTO
 GLOBAL| Global print level                                               MEDIUM
 GLOBAL| MPI I/O enabled                                                       T
 GLOBAL| Total number of message passing processes                             8
 GLOBAL| Number of threads for this process                                   12
 GLOBAL| This output is from process                                           0
 GLOBAL| OpenMP stack size per thread (OMP_STACKSIZE)                    default
 GLOBAL| CPU model name             Intel(R) Xeon(R) Platinum 8174 CPU @ 3.10GHz

 MEMORY| system memory details [Kb]
 MEMORY|                        rank 0           min           max       average
 MEMORY| MemTotal             98436664      98436664      98436664      98436664
 MEMORY| MemFree              84432764      84432764      84532896      84482830
 MEMORY| Buffers                     0             0             0             0
 MEMORY| Cached                2426148       2408960       2426148       2417554
 MEMORY| Slab                  1279056       1279056       1295272       1287164
 MEMORY| SReclaimable           286392        284512        286392        285452
 MEMORY| MemLikelyFree        87145304      87145304      87226368      87185836


 *** Fundamental physical constants (SI units) ***

 *** Literature: B. J. Mohr and B. N. Taylor,
 ***             CODATA recommended values of the fundamental physical
 ***             constants: 2006, Web Version 5.1
 ***             http://physics.nist.gov/constants

 Speed of light in vacuum [m/s]                             2.99792458000000E+08
 Magnetic constant or permeability of vacuum [N/A**2]       1.25663706143592E-06
 Electric constant or permittivity of vacuum [F/m]          8.85418781762039E-12
 Planck constant (h) [J*s]                                  6.62606896000000E-34
 Planck constant (h-bar) [J*s]                              1.05457162825177E-34
 Elementary charge [C]                                      1.60217648700000E-19
 Electron mass [kg]                                         9.10938215000000E-31
 Electron g factor [ ]                                     -2.00231930436220E+00
 Proton mass [kg]                                           1.67262163700000E-27
 Fine-structure constant                                    7.29735253760000E-03
 Rydberg constant [1/m]                                     1.09737315685270E+07
 Avogadro constant [1/mol]                                  6.02214179000000E+23
 Boltzmann constant [J/K]                                   1.38065040000000E-23
 Atomic mass unit [kg]                                      1.66053878200000E-27
 Bohr radius [m]                                            5.29177208590000E-11

 *** Conversion factors ***

 [u] -> [a.u.]                                              1.82288848426455E+03
 [Angstrom] -> [Bohr] = [a.u.]                              1.88972613288564E+00
 [a.u.] = [Bohr] -> [Angstrom]                              5.29177208590000E-01
 [a.u.] -> [s]                                              2.41888432650478E-17
 [a.u.] -> [fs]                                             2.41888432650478E-02
 [a.u.] -> [J]                                              4.35974393937059E-18
 [a.u.] -> [N]                                              8.23872205491840E-08
 [a.u.] -> [K]                                              3.15774647902944E+05
 [a.u.] -> [kJ/mol]                                         2.62549961709828E+03
 [a.u.] -> [kcal/mol]                                       6.27509468713739E+02
 [a.u.] -> [Pa]                                             2.94210107994716E+13
 [a.u.] -> [bar]                                            2.94210107994716E+08
 [a.u.] -> [atm]                                            2.90362800883016E+08
 [a.u.] -> [eV]                                             2.72113838565563E+01
 [a.u.] -> [Hz]                                             6.57968392072181E+15
 [a.u.] -> [1/cm] (wave numbers)                            2.19474631370540E+05
 [a.u./Bohr**2] -> [1/cm]                                   5.14048714338585E+03
 

 CELL_TOP| Volume [angstrom^3]:                                        89.530529
 CELL_TOP| Vector a [angstrom     4.525     0.000     0.000   |a| =     4.524640
 CELL_TOP| Vector b [angstrom    -2.262     3.918     0.000   |b| =     4.524640
 CELL_TOP| Vector c [angstrom     0.000     0.000     5.050   |c| =     5.049780
 CELL_TOP| Angle (b,c), alpha [degree]:                                90.000000
 CELL_TOP| Angle (a,c), beta  [degree]:                                90.000000
 CELL_TOP| Angle (a,b), gamma [degree]:                               120.000000
 CELL_TOP| Numerically orthorhombic:                                          NO
 CELL_TOP| Periodicity                                                       XYZ

 CELL_CIF| Volume [angstrom^3]:                                        89.530529
 CELL_CIF| Vector a [angstrom     4.525     0.000     0.000   |a| =     4.524640
 CELL_CIF| Vector b [angstrom    -2.262     3.918     0.000   |b| =     4.524640
 CELL_CIF| Vector c [angstrom     0.000     0.000     5.050   |c| =     5.049780
 CELL_CIF| Angle (b,c), alpha [degree]:                                90.000000
 CELL_CIF| Angle (a,c), beta  [degree]:                                90.000000
 CELL_CIF| Angle (a,b), gamma [degree]:                               120.000000
 CELL_CIF| Numerically orthorhombic:                                          NO
 CELL_CIF| Periodicity                                                       XYZ

 GENERATE|  Preliminary Number of Bonds generated:                             0
 GENERATE|  Achieved consistency in connectivity generation.

 CELL| Volume [angstrom^3]:                                            89.530529
 CELL| Vector a [angstrom]:       4.525     0.000     0.000   |a| =     4.524640
 CELL| Vector b [angstrom]:      -2.262     3.918     0.000   |b| =     4.524640
 CELL| Vector c [angstrom]:       0.000     0.000     5.050   |c| =     5.049780
 CELL| Angle (b,c), alpha [degree]:                                    90.000000
 CELL| Angle (a,c), beta  [degree]:                                    90.000000
 CELL| Angle (a,b), gamma [degree]:                                   120.000000
 CELL| Numerically orthorhombic:                                              NO
 CELL| Periodicity                                                           XYZ

 CELL_REF| Volume [angstrom^3]:                                        89.530529
 CELL_REF| Vector a [angstrom     4.525     0.000     0.000   |a| =     4.524640
 CELL_REF| Vector b [angstrom    -2.262     3.918     0.000   |b| =     4.524640
 CELL_REF| Vector c [angstrom     0.000     0.000     5.050   |c| =     5.049780
 CELL_REF| Angle (b,c), alpha [degree]:                                90.000000
 CELL_REF| Angle (a,c), beta  [degree]:                                90.000000
 CELL_REF| Angle (a,b), gamma [degree]:                               120.000000
 CELL_REF| Numerically orthorhombic:                                          NO
 CELL_REF| Periodicity                                                       XYZ

 *** WARNING in cryssym.F:180 :: Symmetry library SPGLIB not available ***


 *******************************************************************************
                                    Kpoints
 *******************************************************************************
 BRILLOUIN| K-point scheme                                        Monkhorst-Pack
 BRILLOUIN| K-Point grid                                             8    8    8
 BRILLOUIN| Accuracy in Symmetry determination                      0.100000E-05
 BRILLOUIN| K-Point point group symmetrization                               OFF
 BRILLOUIN| Wavefunction type                                            COMPLEX
 BRILLOUIN| List of Kpoints [2 Pi/Bohr]                                      256
 BRILLOUIN| Number           Weight            X              Y              Z
 BRILLOUIN|     1           0.00391       -0.43750       -0.43750       -0.43750
 BRILLOUIN|     2           0.00391       -0.43750       -0.43750       -0.31250
 BRILLOUIN|     3           0.00391       -0.43750       -0.43750       -0.18750
 BRILLOUIN|     4           0.00391       -0.43750       -0.43750       -0.06250
 BRILLOUIN|     5           0.00391       -0.43750       -0.43750        0.06250
 BRILLOUIN|     6           0.00391       -0.43750       -0.43750        0.18750
 BRILLOUIN|     7           0.00391       -0.43750       -0.43750        0.31250
 BRILLOUIN|     8           0.00391       -0.43750       -0.43750        0.43750
 BRILLOUIN|     9           0.00391       -0.43750       -0.31250       -0.43750
 BRILLOUIN|    10           0.00391       -0.43750       -0.31250       -0.31250
 BRILLOUIN|    11           0.00391       -0.43750       -0.31250       -0.18750
 BRILLOUIN|    12           0.00391       -0.43750       -0.31250       -0.06250
 BRILLOUIN|    13           0.00391       -0.43750       -0.31250        0.06250
 BRILLOUIN|    14           0.00391       -0.43750       -0.31250        0.18750
 BRILLOUIN|    15           0.00391       -0.43750       -0.31250        0.31250
 BRILLOUIN|    16           0.00391       -0.43750       -0.31250        0.43750
 BRILLOUIN|    17           0.00391       -0.43750       -0.18750       -0.43750
 BRILLOUIN|    18           0.00391       -0.43750       -0.18750       -0.31250
 BRILLOUIN|    19           0.00391       -0.43750       -0.18750       -0.18750
 BRILLOUIN|    20           0.00391       -0.43750       -0.18750       -0.06250
 BRILLOUIN|    21           0.00391       -0.43750       -0.18750        0.06250
 BRILLOUIN|    22           0.00391       -0.43750       -0.18750        0.18750
 BRILLOUIN|    23           0.00391       -0.43750       -0.18750        0.31250
 BRILLOUIN|    24           0.00391       -0.43750       -0.18750        0.43750
 BRILLOUIN|    25           0.00391       -0.43750       -0.06250       -0.43750
 BRILLOUIN|    26           0.00391       -0.43750       -0.06250       -0.31250
 BRILLOUIN|    27           0.00391       -0.43750       -0.06250       -0.18750
 BRILLOUIN|    28           0.00391       -0.43750       -0.06250       -0.06250
 BRILLOUIN|    29           0.00391       -0.43750       -0.06250        0.06250
 BRILLOUIN|    30           0.00391       -0.43750       -0.06250        0.18750
 BRILLOUIN|    31           0.00391       -0.43750       -0.06250        0.31250
 BRILLOUIN|    32           0.00391       -0.43750       -0.06250        0.43750
 BRILLOUIN|    33           0.00391       -0.43750        0.06250       -0.43750
 BRILLOUIN|    34           0.00391       -0.43750        0.06250       -0.31250
 BRILLOUIN|    35           0.00391       -0.43750        0.06250       -0.18750
 BRILLOUIN|    36           0.00391       -0.43750        0.06250       -0.06250
 BRILLOUIN|    37           0.00391       -0.43750        0.06250        0.06250
 BRILLOUIN|    38           0.00391       -0.43750        0.06250        0.18750
 BRILLOUIN|    39           0.00391       -0.43750        0.06250        0.31250
 BRILLOUIN|    40           0.00391       -0.43750        0.06250        0.43750
 BRILLOUIN|    41           0.00391       -0.43750        0.18750       -0.43750
 BRILLOUIN|    42           0.00391       -0.43750        0.18750       -0.31250
 BRILLOUIN|    43           0.00391       -0.43750        0.18750       -0.18750
 BRILLOUIN|    44           0.00391       -0.43750        0.18750       -0.06250
 BRILLOUIN|    45           0.00391       -0.43750        0.18750        0.06250
 BRILLOUIN|    46           0.00391       -0.43750        0.18750        0.18750
 BRILLOUIN|    47           0.00391       -0.43750        0.18750        0.31250
 BRILLOUIN|    48           0.00391       -0.43750        0.18750        0.43750
 BRILLOUIN|    49           0.00391       -0.43750        0.31250       -0.43750
 BRILLOUIN|    50           0.00391       -0.43750        0.31250       -0.31250
 BRILLOUIN|    51           0.00391       -0.43750        0.31250       -0.18750
 BRILLOUIN|    52           0.00391       -0.43750        0.31250       -0.06250
 BRILLOUIN|    53           0.00391       -0.43750        0.31250        0.06250
 BRILLOUIN|    54           0.00391       -0.43750        0.31250        0.18750
 BRILLOUIN|    55           0.00391       -0.43750        0.31250        0.31250
 BRILLOUIN|    56           0.00391       -0.43750        0.31250        0.43750
 BRILLOUIN|    57           0.00391       -0.43750        0.43750       -0.43750
 BRILLOUIN|    58           0.00391       -0.43750        0.43750       -0.31250
 BRILLOUIN|    59           0.00391       -0.43750        0.43750       -0.18750
 BRILLOUIN|    60           0.00391       -0.43750        0.43750       -0.06250
 BRILLOUIN|    61           0.00391       -0.43750        0.43750        0.06250
 BRILLOUIN|    62           0.00391       -0.43750        0.43750        0.18750
 BRILLOUIN|    63           0.00391       -0.43750        0.43750        0.31250
 BRILLOUIN|    64           0.00391       -0.43750        0.43750        0.43750
 BRILLOUIN|    65           0.00391       -0.31250       -0.43750       -0.43750
 BRILLOUIN|    66           0.00391       -0.31250       -0.43750       -0.31250
 BRILLOUIN|    67           0.00391       -0.31250       -0.43750       -0.18750
 BRILLOUIN|    68           0.00391       -0.31250       -0.43750       -0.06250
 BRILLOUIN|    69           0.00391       -0.31250       -0.43750        0.06250
 BRILLOUIN|    70           0.00391       -0.31250       -0.43750        0.18750
 BRILLOUIN|    71           0.00391       -0.31250       -0.43750        0.31250
 BRILLOUIN|    72           0.00391       -0.31250       -0.43750        0.43750
 BRILLOUIN|    73           0.00391       -0.31250       -0.31250       -0.43750
 BRILLOUIN|    74           0.00391       -0.31250       -0.31250       -0.31250
 BRILLOUIN|    75           0.00391       -0.31250       -0.31250       -0.18750
 BRILLOUIN|    76           0.00391       -0.31250       -0.31250       -0.06250
 BRILLOUIN|    77           0.00391       -0.31250       -0.31250        0.06250
 BRILLOUIN|    78           0.00391       -0.31250       -0.31250        0.18750
 BRILLOUIN|    79           0.00391       -0.31250       -0.31250        0.31250
 BRILLOUIN|    80           0.00391       -0.31250       -0.31250        0.43750
 BRILLOUIN|    81           0.00391       -0.31250       -0.18750       -0.43750
 BRILLOUIN|    82           0.00391       -0.31250       -0.18750       -0.31250
 BRILLOUIN|    83           0.00391       -0.31250       -0.18750       -0.18750
 BRILLOUIN|    84           0.00391       -0.31250       -0.18750       -0.06250
 BRILLOUIN|    85           0.00391       -0.31250       -0.18750        0.06250
 BRILLOUIN|    86           0.00391       -0.31250       -0.18750        0.18750
 BRILLOUIN|    87           0.00391       -0.31250       -0.18750        0.31250
 BRILLOUIN|    88           0.00391       -0.31250       -0.18750        0.43750
 BRILLOUIN|    89           0.00391       -0.31250       -0.06250       -0.43750
 BRILLOUIN|    90           0.00391       -0.31250       -0.06250       -0.31250
 BRILLOUIN|    91           0.00391       -0.31250       -0.06250       -0.18750
 BRILLOUIN|    92           0.00391       -0.31250       -0.06250       -0.06250
 BRILLOUIN|    93           0.00391       -0.31250       -0.06250        0.06250
 BRILLOUIN|    94           0.00391       -0.31250       -0.06250        0.18750
 BRILLOUIN|    95           0.00391       -0.31250       -0.06250        0.31250
 BRILLOUIN|    96           0.00391       -0.31250       -0.06250        0.43750
 BRILLOUIN|    97           0.00391       -0.31250        0.06250       -0.43750
 BRILLOUIN|    98           0.00391       -0.31250        0.06250       -0.31250
 BRILLOUIN|    99           0.00391       -0.31250        0.06250       -0.18750
 BRILLOUIN|   100           0.00391       -0.31250        0.06250       -0.06250
 BRILLOUIN|   101           0.00391       -0.31250        0.06250        0.06250
 BRILLOUIN|   102           0.00391       -0.31250        0.06250        0.18750
 BRILLOUIN|   103           0.00391       -0.31250        0.06250        0.31250
 BRILLOUIN|   104           0.00391       -0.31250        0.06250        0.43750
 BRILLOUIN|   105           0.00391       -0.31250        0.18750       -0.43750
 BRILLOUIN|   106           0.00391       -0.31250        0.18750       -0.31250
 BRILLOUIN|   107           0.00391       -0.31250        0.18750       -0.18750
 BRILLOUIN|   108           0.00391       -0.31250        0.18750       -0.06250
 BRILLOUIN|   109           0.00391       -0.31250        0.18750        0.06250
 BRILLOUIN|   110           0.00391       -0.31250        0.18750        0.18750
 BRILLOUIN|   111           0.00391       -0.31250        0.18750        0.31250
 BRILLOUIN|   112           0.00391       -0.31250        0.18750        0.43750
 BRILLOUIN|   113           0.00391       -0.31250        0.31250       -0.43750
 BRILLOUIN|   114           0.00391       -0.31250        0.31250       -0.31250
 BRILLOUIN|   115           0.00391       -0.31250        0.31250       -0.18750
 BRILLOUIN|   116           0.00391       -0.31250        0.31250       -0.06250
 BRILLOUIN|   117           0.00391       -0.31250        0.31250        0.06250
 BRILLOUIN|   118           0.00391       -0.31250        0.31250        0.18750
 BRILLOUIN|   119           0.00391       -0.31250        0.31250        0.31250
 BRILLOUIN|   120           0.00391       -0.31250        0.31250        0.43750
 BRILLOUIN|   121           0.00391       -0.31250        0.43750       -0.43750
 BRILLOUIN|   122           0.00391       -0.31250        0.43750       -0.31250
 BRILLOUIN|   123           0.00391       -0.31250        0.43750       -0.18750
 BRILLOUIN|   124           0.00391       -0.31250        0.43750       -0.06250
 BRILLOUIN|   125           0.00391       -0.31250        0.43750        0.06250
 BRILLOUIN|   126           0.00391       -0.31250        0.43750        0.18750
 BRILLOUIN|   127           0.00391       -0.31250        0.43750        0.31250
 BRILLOUIN|   128           0.00391       -0.31250        0.43750        0.43750
 BRILLOUIN|   129           0.00391       -0.18750       -0.43750       -0.43750
 BRILLOUIN|   130           0.00391       -0.18750       -0.43750       -0.31250
 BRILLOUIN|   131           0.00391       -0.18750       -0.43750       -0.18750
 BRILLOUIN|   132           0.00391       -0.18750       -0.43750       -0.06250
 BRILLOUIN|   133           0.00391       -0.18750       -0.43750        0.06250
 BRILLOUIN|   134           0.00391       -0.18750       -0.43750        0.18750
 BRILLOUIN|   135           0.00391       -0.18750       -0.43750        0.31250
 BRILLOUIN|   136           0.00391       -0.18750       -0.43750        0.43750
 BRILLOUIN|   137           0.00391       -0.18750       -0.31250       -0.43750
 BRILLOUIN|   138           0.00391       -0.18750       -0.31250       -0.31250
 BRILLOUIN|   139           0.00391       -0.18750       -0.31250       -0.18750
 BRILLOUIN|   140           0.00391       -0.18750       -0.31250       -0.06250
 BRILLOUIN|   141           0.00391       -0.18750       -0.31250        0.06250
 BRILLOUIN|   142           0.00391       -0.18750       -0.31250        0.18750
 BRILLOUIN|   143           0.00391       -0.18750       -0.31250        0.31250
 BRILLOUIN|   144           0.00391       -0.18750       -0.31250        0.43750
 BRILLOUIN|   145           0.00391       -0.18750       -0.18750       -0.43750
 BRILLOUIN|   146           0.00391       -0.18750       -0.18750       -0.31250
 BRILLOUIN|   147           0.00391       -0.18750       -0.18750       -0.18750
 BRILLOUIN|   148           0.00391       -0.18750       -0.18750       -0.06250
 BRILLOUIN|   149           0.00391       -0.18750       -0.18750        0.06250
 BRILLOUIN|   150           0.00391       -0.18750       -0.18750        0.18750
 BRILLOUIN|   151           0.00391       -0.18750       -0.18750        0.31250
 BRILLOUIN|   152           0.00391       -0.18750       -0.18750        0.43750
 BRILLOUIN|   153           0.00391       -0.18750       -0.06250       -0.43750
 BRILLOUIN|   154           0.00391       -0.18750       -0.06250       -0.31250
 BRILLOUIN|   155           0.00391       -0.18750       -0.06250       -0.18750
 BRILLOUIN|   156           0.00391       -0.18750       -0.06250       -0.06250
 BRILLOUIN|   157           0.00391       -0.18750       -0.06250        0.06250
 BRILLOUIN|   158           0.00391       -0.18750       -0.06250        0.18750
 BRILLOUIN|   159           0.00391       -0.18750       -0.06250        0.31250
 BRILLOUIN|   160           0.00391       -0.18750       -0.06250        0.43750
 BRILLOUIN|   161           0.00391       -0.18750        0.06250       -0.43750
 BRILLOUIN|   162           0.00391       -0.18750        0.06250       -0.31250
 BRILLOUIN|   163           0.00391       -0.18750        0.06250       -0.18750
 BRILLOUIN|   164           0.00391       -0.18750        0.06250       -0.06250
 BRILLOUIN|   165           0.00391       -0.18750        0.06250        0.06250
 BRILLOUIN|   166           0.00391       -0.18750        0.06250        0.18750
 BRILLOUIN|   167           0.00391       -0.18750        0.06250        0.31250
 BRILLOUIN|   168           0.00391       -0.18750        0.06250        0.43750
 BRILLOUIN|   169           0.00391       -0.18750        0.18750       -0.43750
 BRILLOUIN|   170           0.00391       -0.18750        0.18750       -0.31250
 BRILLOUIN|   171           0.00391       -0.18750        0.18750       -0.18750
 BRILLOUIN|   172           0.00391       -0.18750        0.18750       -0.06250
 BRILLOUIN|   173           0.00391       -0.18750        0.18750        0.06250
 BRILLOUIN|   174           0.00391       -0.18750        0.18750        0.18750
 BRILLOUIN|   175           0.00391       -0.18750        0.18750        0.31250
 BRILLOUIN|   176           0.00391       -0.18750        0.18750        0.43750
 BRILLOUIN|   177           0.00391       -0.18750        0.31250       -0.43750
 BRILLOUIN|   178           0.00391       -0.18750        0.31250       -0.31250
 BRILLOUIN|   179           0.00391       -0.18750        0.31250       -0.18750
 BRILLOUIN|   180           0.00391       -0.18750        0.31250       -0.06250
 BRILLOUIN|   181           0.00391       -0.18750        0.31250        0.06250
 BRILLOUIN|   182           0.00391       -0.18750        0.31250        0.18750
 BRILLOUIN|   183           0.00391       -0.18750        0.31250        0.31250
 BRILLOUIN|   184           0.00391       -0.18750        0.31250        0.43750
 BRILLOUIN|   185           0.00391       -0.18750        0.43750       -0.43750
 BRILLOUIN|   186           0.00391       -0.18750        0.43750       -0.31250
 BRILLOUIN|   187           0.00391       -0.18750        0.43750       -0.18750
 BRILLOUIN|   188           0.00391       -0.18750        0.43750       -0.06250
 BRILLOUIN|   189           0.00391       -0.18750        0.43750        0.06250
 BRILLOUIN|   190           0.00391       -0.18750        0.43750        0.18750
 BRILLOUIN|   191           0.00391       -0.18750        0.43750        0.31250
 BRILLOUIN|   192           0.00391       -0.18750        0.43750        0.43750
 BRILLOUIN|   193           0.00391       -0.06250       -0.43750       -0.43750
 BRILLOUIN|   194           0.00391       -0.06250       -0.43750       -0.31250
 BRILLOUIN|   195           0.00391       -0.06250       -0.43750       -0.18750
 BRILLOUIN|   196           0.00391       -0.06250       -0.43750       -0.06250
 BRILLOUIN|   197           0.00391       -0.06250       -0.43750        0.06250
 BRILLOUIN|   198           0.00391       -0.06250       -0.43750        0.18750
 BRILLOUIN|   199           0.00391       -0.06250       -0.43750        0.31250
 BRILLOUIN|   200           0.00391       -0.06250       -0.43750        0.43750
 BRILLOUIN|   201           0.00391       -0.06250       -0.31250       -0.43750
 BRILLOUIN|   202           0.00391       -0.06250       -0.31250       -0.31250
 BRILLOUIN|   203           0.00391       -0.06250       -0.31250       -0.18750
 BRILLOUIN|   204           0.00391       -0.06250       -0.31250       -0.06250
 BRILLOUIN|   205           0.00391       -0.06250       -0.31250        0.06250
 BRILLOUIN|   206           0.00391       -0.06250       -0.31250        0.18750
 BRILLOUIN|   207           0.00391       -0.06250       -0.31250        0.31250
 BRILLOUIN|   208           0.00391       -0.06250       -0.31250        0.43750
 BRILLOUIN|   209           0.00391       -0.06250       -0.18750       -0.43750
 BRILLOUIN|   210           0.00391       -0.06250       -0.18750       -0.31250
 BRILLOUIN|   211           0.00391       -0.06250       -0.18750       -0.18750
 BRILLOUIN|   212           0.00391       -0.06250       -0.18750       -0.06250
 BRILLOUIN|   213           0.00391       -0.06250       -0.18750        0.06250
 BRILLOUIN|   214           0.00391       -0.06250       -0.18750        0.18750
 BRILLOUIN|   215           0.00391       -0.06250       -0.18750        0.31250
 BRILLOUIN|   216           0.00391       -0.06250       -0.18750        0.43750
 BRILLOUIN|   217           0.00391       -0.06250       -0.06250       -0.43750
 BRILLOUIN|   218           0.00391       -0.06250       -0.06250       -0.31250
 BRILLOUIN|   219           0.00391       -0.06250       -0.06250       -0.18750
 BRILLOUIN|   220           0.00391       -0.06250       -0.06250       -0.06250
 BRILLOUIN|   221           0.00391       -0.06250       -0.06250        0.06250
 BRILLOUIN|   222           0.00391       -0.06250       -0.06250        0.18750
 BRILLOUIN|   223           0.00391       -0.06250       -0.06250        0.31250
 BRILLOUIN|   224           0.00391       -0.06250       -0.06250        0.43750
 BRILLOUIN|   225           0.00391       -0.06250        0.06250       -0.43750
 BRILLOUIN|   226           0.00391       -0.06250        0.06250       -0.31250
 BRILLOUIN|   227           0.00391       -0.06250        0.06250       -0.18750
 BRILLOUIN|   228           0.00391       -0.06250        0.06250       -0.06250
 BRILLOUIN|   229           0.00391       -0.06250        0.06250        0.06250
 BRILLOUIN|   230           0.00391       -0.06250        0.06250        0.18750
 BRILLOUIN|   231           0.00391       -0.06250        0.06250        0.31250
 BRILLOUIN|   232           0.00391       -0.06250        0.06250        0.43750
 BRILLOUIN|   233           0.00391       -0.06250        0.18750       -0.43750
 BRILLOUIN|   234           0.00391       -0.06250        0.18750       -0.31250
 BRILLOUIN|   235           0.00391       -0.06250        0.18750       -0.18750
 BRILLOUIN|   236           0.00391       -0.06250        0.18750       -0.06250
 BRILLOUIN|   237           0.00391       -0.06250        0.18750        0.06250
 BRILLOUIN|   238           0.00391       -0.06250        0.18750        0.18750
 BRILLOUIN|   239           0.00391       -0.06250        0.18750        0.31250
 BRILLOUIN|   240           0.00391       -0.06250        0.18750        0.43750
 BRILLOUIN|   241           0.00391       -0.06250        0.31250       -0.43750
 BRILLOUIN|   242           0.00391       -0.06250        0.31250       -0.31250
 BRILLOUIN|   243           0.00391       -0.06250        0.31250       -0.18750
 BRILLOUIN|   244           0.00391       -0.06250        0.31250       -0.06250
 BRILLOUIN|   245           0.00391       -0.06250        0.31250        0.06250
 BRILLOUIN|   246           0.00391       -0.06250        0.31250        0.18750
 BRILLOUIN|   247           0.00391       -0.06250        0.31250        0.31250
 BRILLOUIN|   248           0.00391       -0.06250        0.31250        0.43750
 BRILLOUIN|   249           0.00391       -0.06250        0.43750       -0.43750
 BRILLOUIN|   250           0.00391       -0.06250        0.43750       -0.31250
 BRILLOUIN|   251           0.00391       -0.06250        0.43750       -0.18750
 BRILLOUIN|   252           0.00391       -0.06250        0.43750       -0.06250
 BRILLOUIN|   253           0.00391       -0.06250        0.43750        0.06250
 BRILLOUIN|   254           0.00391       -0.06250        0.43750        0.18750
 BRILLOUIN|   255           0.00391       -0.06250        0.43750        0.31250
 BRILLOUIN|   256           0.00391       -0.06250        0.43750        0.43750
 *******************************************************************************

 *******************************************************************************
 *******************************************************************************
 **                                                                           **
 **     #####                         ##              ##                      **
 **    ##   ##            ##          ##              ##                      **
 **   ##     ##                       ##            ######                    **
 **   ##     ##  ##   ##  ##   #####  ##  ##   ####   ##    #####    #####    **
 **   ##     ##  ##   ##  ##  ##      ## ##   ##      ##   ##   ##  ##   ##   **
 **   ##  ## ##  ##   ##  ##  ##      ####     ###    ##   ######   ######    **
 **    ##  ###   ##   ##  ##  ##      ## ##      ##   ##   ##       ##        **
 **     #######   #####   ##   #####  ##  ##  ####    ##    #####   ##        **
 **           ##                                                    ##        **
 **                                                                           **
 **                                                ... make the atoms dance   **
 **                                                                           **
 **            Copyright (C) by CP2K developers group (2000-2025)             **
 **                      J. Chem. Phys. 152, 194103 (2020)                    **
 **                                                                           **
 *******************************************************************************

 DFT| Spin restricted Kohn-Sham (RKS) calculation                            RKS
 DFT| Multiplicity                                                             1
 DFT| Number of spin states                                                    1
 DFT| Charge                                                                   0
 DFT| Self-interaction correction (SIC)                                       NO
 DFT| Cutoffs: density                                              1.000000E-10
 DFT|          gradient                                             1.000000E-10
 DFT|          tau                                                  1.000000E-10
 DFT|          cutoff_smoothing_range                               0.000000E+00
 DFT| XC density smoothing                                                  NONE
 DFT| XC derivatives                                                          PW

 FUNCTIONAL| PBE:
 FUNCTIONAL| J.P.Perdew, K.Burke, M.Ernzerhof, Phys. Rev. Letter, vol. 77, n 18,
 FUNCTIONAL|  pp. 3865-3868, (1996) {spin unpolarized}                          


 QS| Method:                                                                 GPW
 QS| Density plane wave grid type                        NON-SPHERICAL FULLSPACE
 QS| Number of grid levels:                                                    4
 QS| Density cutoff [a.u.]:                                                500.0
 QS| Multi grid cutoff [a.u.]: 1) grid level                               500.0
 QS|                           2) grid level                               166.7
 QS|                           3) grid level                                55.6
 QS|                           4) grid level                                18.5
 QS| Grid level progression factor:                                          3.0
 QS| Relative density cutoff [a.u.]:                                        50.0
 QS| Interaction thresholds: eps_pgf_orb:                                1.0E-16
 QS|                         eps_filter_matrix:                          0.0E+00
 QS|                         eps_core_charge:                            1.0E-18
 QS|                         eps_rho_gspace:                             1.0E-16
 QS|                         eps_rho_rspace:                             1.0E-16
 QS|                         eps_gvg_rspace:                             1.0E-08
 QS|                         eps_ppl:                                    1.0E-02
 QS|                         eps_ppnl:                                   1.0E-10


 ATOMIC KIND INFORMATION

  1. Atomic kind: Se                                    Number of atoms:       3

     Orbital Basis Set                                aug-DZVP-MOLOPT-GTH-tier-1

       Number of orbital shell sets:                                           1
       Number of orbital shells:                                               8
       Number of primitive Cartesian functions:                                5
       Number of Cartesian basis functions:                                   24
       Number of spherical basis functions:                                   22
       Norm type:                                                              2

       Normalised Cartesian orbitals:

                        Set   Shell   Orbital            Exponent    Coefficient

                          1       1    2s                0.091127      -0.083949
                                                         0.150000       0.000000
                                                         0.277731      -0.090039
                                                         1.079560      -0.433807
                                                         1.243062       0.515786

                          1       2    3s                0.091127       0.172988
                                                         0.150000       0.000000
                                                         0.277731      -0.215297
                                                         1.079560      -0.367990
                                                         1.243062       0.680218

                          1       3    4s                0.091127      -0.139150
                                                         0.150000       0.085874
                                                         0.277731       0.137494
                                                         1.079560       0.188557
                                                         1.243062       0.374554

                          1       4    3px               0.091127      -0.056758
                                                         0.150000       0.000000
                                                         0.277731      -0.071833
                                                         1.079560      -0.264126
                                                         1.243062       0.259900
                          1       4    3py               0.091127      -0.056758
                                                         0.150000       0.000000
                                                         0.277731      -0.071833
                                                         1.079560      -0.264126
                                                         1.243062       0.259900
                          1       4    3pz               0.091127      -0.056758
                                                         0.150000       0.000000
                                                         0.277731      -0.071833
                                                         1.079560      -0.264126
                                                         1.243062       0.259900

                          1       5    4px               0.091127       0.077762
                                                         0.150000       0.000000
                                                         0.277731      -0.305414
                                                         1.079560      -3.158495
                                                         1.243062       3.526723
                          1       5    4py               0.091127       0.077762
                                                         0.150000       0.000000
                                                         0.277731      -0.305414
                                                         1.079560      -3.158495
                                                         1.243062       3.526723
                          1       5    4pz               0.091127       0.077762
                                                         0.150000       0.000000
                                                         0.277731      -0.305414
                                                         1.079560      -3.158495
                                                         1.243062       3.526723

                          1       6    5px               0.091127      -0.122460
                                                         0.150000       0.176260
                                                         0.277731       0.151513
                                                         1.079560      -0.242965
                                                         1.243062       0.765979
                          1       6    5py               0.091127      -0.122460
                                                         0.150000       0.176260
                                                         0.277731       0.151513
                                                         1.079560      -0.242965
                                                         1.243062       0.765979
                          1       6    5pz               0.091127      -0.122460
                                                         0.150000       0.176260
                                                         0.277731       0.151513
                                                         1.079560      -0.242965
                                                         1.243062       0.765979

                          1       7    4dx2              0.091127      -0.003394
                                                         0.150000       0.000000
                                                         0.277731      -0.140945
                                                         1.079560      -1.030120
                                                         1.243062       0.930025
                          1       7    4dxy              0.091127      -0.005879
                                                         0.150000       0.000000
                                                         0.277731      -0.244124
                                                         1.079560      -1.784221
                                                         1.243062       1.610850
                          1       7    4dxz              0.091127      -0.005879
                                                         0.150000       0.000000
                                                         0.277731      -0.244124
                                                         1.079560      -1.784221
                                                         1.243062       1.610850
                          1       7    4dy2              0.091127      -0.003394
                                                         0.150000       0.000000
                                                         0.277731      -0.140945
                                                         1.079560      -1.030120
                                                         1.243062       0.930025
                          1       7    4dyz              0.091127      -0.005879
                                                         0.150000       0.000000
                                                         0.277731      -0.244124
                                                         1.079560      -1.784221
                                                         1.243062       1.610850
                          1       7    4dz2              0.091127      -0.003394
                                                         0.150000       0.000000
                                                         0.277731      -0.140945
                                                         1.079560      -1.030120
                                                         1.243062       0.930025

                          1       8    5dx2              0.091127       0.029775
                                                         0.150000      -0.016726
                                                         0.277731       0.015447
                                                         1.079560       0.003488
                                                         1.243062       0.006572
                          1       8    5dxy              0.091127       0.051572
                                                         0.150000      -0.028970
                                                         0.277731       0.026755
                                                         1.079560       0.006042
                                                         1.243062       0.011382
                          1       8    5dxz              0.091127       0.051572
                                                         0.150000      -0.028970
                                                         0.277731       0.026755
                                                         1.079560       0.006042
                                                         1.243062       0.011382
                          1       8    5dy2              0.091127       0.029775
                                                         0.150000      -0.016726
                                                         0.277731       0.015447
                                                         1.079560       0.003488
                                                         1.243062       0.006572
                          1       8    5dyz              0.091127       0.051572
                                                         0.150000      -0.028970
                                                         0.277731       0.026755
                                                         1.079560       0.006042
                                                         1.243062       0.011382
                          1       8    5dz2              0.091127       0.029775
                                                         0.150000      -0.016726
                                                         0.277731       0.015447
                                                         1.079560       0.003488
                                                         1.243062       0.006572

       Atomic covalent radius [Angstrom]:                                  1.160

       Atomic van der Waals radius [Angstrom]:                             1.900

     GTH Potential information for                                       GTH-PBE

       Description:                       Goedecker-Teter-Hutter pseudopotential
                                           Goedecker et al., PRB 54, 1703 (1996)
                                          Hartwigsen et al., PRB 58, 3641 (1998)
                                                      Krack, TCA 114, 145 (2005)

       Gaussian exponent of the core charge distribution:               1.922338
       Electronic configuration (s p d ...):                               2   4

       Parameters of the local part of the GTH pseudopotential:

                          rloc        C1          C2          C3          C4
                        0.510000

       Parameters of the non-local part of the GTH (SOC) pseudopotential:

                   l      r(l)      h(i,j,l)
                                    k(i,j,l)
                   0    0.432460    6.518110   -0.222716   -1.196129
                                   -0.222716   -1.657978    3.088392
                                   -1.196129    3.088392   -2.451335
                   1    0.470492    2.281262    0.365335
                                    0.365335   -0.432271
                                    0.153868   -0.095088
                                   -0.095088    0.112509
                   2    0.625600    0.439799
                                    0.004892


 MOLECULE KIND INFORMATION


 All atoms are their own molecule, skipping detailed information


 TOTAL NUMBERS AND MAXIMUM NUMBERS

  Total number of            - Atomic kinds:                                   1
                             - Atoms:                                          3
                             - Shell sets:                                     3
                             - Shells:                                        24
                             - Primitive Cartesian functions:                 15
                             - Cartesian basis functions:                     72
                             - Spherical basis functions:                     66

  Maximum angular momentum of the orbital basis functions:                     2


 MODULE QUICKSTEP: ATOMIC COORDINATES IN ANGSTROM

   Atom Kind Element         X             Y             Z       Z(eff)     Mass
      1    1 Se   34      0.991032      0.000000      1.683243   6.0000  78.9600
      2    1 Se   34     -0.495516      0.858259      3.366537   6.0000  78.9600
      3    1 Se   34      1.766804      3.060194      0.000000   6.0000  78.9600



 SCF PARAMETERS         Density guess:                                    ATOMIC
                        --------------------------------------------------------
                        max_scf:                                             500
                        max_scf_history:                                       0
                        max_diis:                                              4
                        --------------------------------------------------------
                        eps_scf:                                        1.00E-09
                        eps_scf_history:                                0.00E+00
                        eps_diis:                                       1.00E-01
                        eps_eigval:                                     1.00E-05
                        --------------------------------------------------------
                        level_shift [a.u.]:                             0.000000
                        added MOs                                        57    0
                        --------------------------------------------------------
                        Mixing method:                            BROYDEN_MIXING
                                                charge density mixing in g-space
                        --------------------------------------------------------
                        No outer SCF

 PW_GRID| Information for grid number                                          1
 PW_GRID| Grid distributed over                                     8 processors
 PW_GRID| Real space group dimensions                                     8    1
 PW_GRID| the grid is blocked:                                                NO
 PW_GRID| Cutoff [a.u.]                                                    500.0
 PW_GRID| spherical cutoff:                                                   NO
 PW_GRID|   Bounds   1            -45      44                Points:          90
 PW_GRID|   Bounds   2            -45      44                Points:          90
 PW_GRID|   Bounds   3            -50      49                Points:         100
 PW_GRID| Volume element (a.u.^3)  0.7459E-03     Volume (a.u.^3)       604.1820
 PW_GRID| Grid span                                                    FULLSPACE
 PW_GRID|   Distribution                         Average         Max         Min
 PW_GRID|   G-Vectors                           101250.0      101250      101250
 PW_GRID|   G-Rays                                1125.0        1125        1125
 PW_GRID|   Real Space Points                   101250.0      108000       99000

 PW_GRID| Information for grid number                                          2
 PW_GRID| Number of the reference grid                                         1
 PW_GRID| Grid distributed over                                     8 processors
 PW_GRID| Real space group dimensions                                     8    1
 PW_GRID| the grid is blocked:                                                NO
 PW_GRID| Cutoff [a.u.]                                                    166.7
 PW_GRID| spherical cutoff:                                                   NO
 PW_GRID|   Bounds   1            -27      26                Points:          54
 PW_GRID|   Bounds   2            -27      26                Points:          54
 PW_GRID|   Bounds   3            -30      29                Points:          60
 PW_GRID| Volume element (a.u.^3)  0.3453E-02     Volume (a.u.^3)       604.1820
 PW_GRID| Grid span                                                    FULLSPACE
 PW_GRID|   Distribution                         Average         Max         Min
 PW_GRID|   G-Vectors                            21870.0       21924       21816
 PW_GRID|   G-Rays                                 405.0         406         404
 PW_GRID|   Real Space Points                    21870.0       22680       19440

 PW_GRID| Information for grid number                                          3
 PW_GRID| Number of the reference grid                                         1
 PW_GRID| Grid distributed over                                     8 processors
 PW_GRID| Real space group dimensions                                     8    1
 PW_GRID| the grid is blocked:                                                NO
 PW_GRID| Cutoff [a.u.]                                                     55.6
 PW_GRID| spherical cutoff:                                                   NO
 PW_GRID|   Bounds   1            -15      14                Points:          30
 PW_GRID|   Bounds   2            -15      14                Points:          30
 PW_GRID|   Bounds   3            -18      17                Points:          36
 PW_GRID| Volume element (a.u.^3)  0.1865E-01     Volume (a.u.^3)       604.1820
 PW_GRID| Grid span                                                    FULLSPACE
 PW_GRID|   Distribution                         Average         Max         Min
 PW_GRID|   G-Vectors                             4050.0        4110        3960
 PW_GRID|   G-Rays                                 135.0         137         132
 PW_GRID|   Real Space Points                     4050.0        4320        3240

 PW_GRID| Information for grid number                                          4
 PW_GRID| Number of the reference grid                                         1
 PW_GRID| Grid distributed over                                     8 processors
 PW_GRID| Real space group dimensions                                     8    1
 PW_GRID| the grid is blocked:                                                NO
 PW_GRID| Cutoff [a.u.]                                                     18.5
 PW_GRID| spherical cutoff:                                                   NO
 PW_GRID|   Bounds   1             -9       8                Points:          18
 PW_GRID|   Bounds   2             -9       8                Points:          18
 PW_GRID|   Bounds   3            -10       9                Points:          20
 PW_GRID| Volume element (a.u.^3)  0.9324E-01     Volume (a.u.^3)       604.1820
 PW_GRID| Grid span                                                    FULLSPACE
 PW_GRID|   Distribution                         Average         Max         Min
 PW_GRID|   G-Vectors                              810.0         864         792
 PW_GRID|   G-Rays                                  45.0          48          44
 PW_GRID|   Real Space Points                      810.0        1080         720

 POISSON| Solver                                                        PERIODIC
 POISSON| Periodicity                                                        XYZ

 RS_GRID| Information for grid number                                          1
 RS_GRID|   Bounds   1            -45      44                Points:          90
 RS_GRID|   Bounds   2            -45      44                Points:          90
 RS_GRID|   Bounds   3            -50      49                Points:         100
 RS_GRID| Real space fully replicated
 RS_GRID| Group size                                                           1

 RS_GRID| Information for grid number                                          2
 RS_GRID|   Bounds   1            -27      26                Points:          54
 RS_GRID|   Bounds   2            -27      26                Points:          54
 RS_GRID|   Bounds   3            -30      29                Points:          60
 RS_GRID| Real space fully replicated
 RS_GRID| Group size                                                           1

 RS_GRID| Information for grid number                                          3
 RS_GRID|   Bounds   1            -15      14                Points:          30
 RS_GRID|   Bounds   2            -15      14                Points:          30
 RS_GRID|   Bounds   3            -18      17                Points:          36
 RS_GRID| Real space fully replicated
 RS_GRID| Group size                                                           1

 RS_GRID| Information for grid number                                          4
 RS_GRID|   Bounds   1             -9       8                Points:          18
 RS_GRID|   Bounds   2             -9       8                Points:          18
 RS_GRID|   Bounds   3            -10       9                Points:          20
 RS_GRID| Real space fully replicated
 RS_GRID| Group size                                                           1

 Number of electrons:                                                         18
 Number of occupied orbitals:                                                  9
 Number of molecular orbitals:                                                66

 Number of orbital functions:                                                 66
 Number of independent orbital functions:                                     66

 Extrapolation method: initial_guess

 Atomic guess: The first density matrix is obtained in terms of atomic orbitals
               and electronic configurations assigned to each atomic kind

 Guess for atomic kind: Se

 Electronic structure
    Total number of core electrons                                         28.00
    Total number of valence electrons                                       6.00
    Total number of electrons                                              34.00
    Multiplicity                                                   not specified
    S   [  2.00  2.00  2.00] 2.00
    P   [  6.00  6.00] 4.00
    D   [ 10.00]


 *******************************************************************************
                  Iteration          Convergence                     Energy [au]
 *******************************************************************************
                          1        0.359858                      -9.128221027574
                          2        0.238503                      -9.169086163951
                          3        0.394944E-02                  -9.192380691636
                          4        0.175097E-03                  -9.192386544048
                          5        0.228398E-06                  -9.192386556331

 Energy components [Hartree]           Total Energy ::           -9.192386556331
                                        Band Energy ::           -2.100613508649
                                     Kinetic Energy ::            3.160661902926
                                   Potential Energy ::          -12.353048459257
                                      Virial (-V/T) ::            3.908373890868
                                        Core Energy ::          -14.972418076946
                                          XC Energy ::           -1.888322494837
                                     Coulomb Energy ::            7.668354015451
                       Total Pseudopotential Energy ::          -18.195498080191
                       Local Pseudopotential Energy ::          -19.421807379730
                    Nonlocal Pseudopotential Energy ::            1.226309299539
                                        Confinement ::            0.624181003193

 Orbital energies  State     L     Occupation   Energy[a.u.]          Energy[eV]

                       1     0          2.000      -0.613682          -16.699134

                       1     1          4.000      -0.218312           -5.940583


 Total Electron Density at R=0:                                         0.000422
 Re-scaling the density matrix to get the right number of electrons
                  # Electrons              Trace(P)               Scaling factor
                           18                18.000                        1.000


 SCF WAVEFUNCTION OPTIMIZATION

  Step     Update method      Time    Convergence         Total energy    Change
  ------------------------------------------------------------------------------
     1 NoMix/Diag. 0.50E-01    2.8     0.44003623       -28.3837052395 -2.84E+01
     2 Broy./Diag. 0.50E-01    2.9     0.00182728       -28.4025655694 -1.89E-02
     3 Broy./Diag. 0.50E-01    2.9     0.05106379       -28.3055238217  9.70E-02
     4 Broy./Diag. 0.50E-01    2.9     0.00071630       -28.2949422525  1.06E-02
     5 Broy./Diag. 0.50E-01    2.9     0.01976136       -28.2868871688  8.06E-03
     6 Broy./Diag. 0.50E-01    2.9     0.00019843       -28.2813034933  5.58E-03
     7 Broy./Diag. 0.50E-01    2.9     0.00406825       -28.2858288485 -4.53E-03
     8 Broy./Diag. 0.50E-01    2.9     0.00002968       -28.2868703006 -1.04E-03
     9 Broy./Diag. 0.50E-01    2.9     0.00062225       -28.2871178868 -2.48E-04
    10 Broy./Diag. 0.50E-01    2.9     0.00000700       -28.2873387899 -2.21E-04
    11 Broy./Diag. 0.50E-01    2.9     0.00021776       -28.2870634742  2.75E-04
    12 Broy./Diag. 0.50E-01    2.9     0.00000434       -28.2870876344 -2.42E-05
    13 Broy./Diag. 0.50E-01    2.9     0.00009388       -28.2872125280 -1.25E-04
    14 Broy./Diag. 0.50E-01    2.9     0.00000436       -28.2872779135 -6.54E-05
    15 Broy./Diag. 0.50E-01    2.9     0.00000264       -28.2872913805 -1.35E-05
    16 Broy./Diag. 0.50E-01    2.9     0.00000594       -28.2873110716 -1.97E-05
    17 Broy./Diag. 0.50E-01    2.9     0.00000505       -28.2873249267 -1.39E-05
    18 Broy./Diag. 0.50E-01    2.9     0.00001196       -28.2873417340 -1.68E-05
    19 Broy./Diag. 0.50E-01    2.9     0.00000991       -28.2873605034 -1.88E-05
    20 Broy./Diag. 0.50E-01    2.9     0.00000181       -28.2873670042 -6.50E-06
    21 Broy./Diag. 0.50E-01    2.9     0.00000059       -28.2873680303 -1.03E-06
    22 Broy./Diag. 0.50E-01    2.9     0.00000094       -28.2873663392  1.69E-06
    23 Broy./Diag. 0.50E-01    2.9     0.00000066       -28.2873656865  6.53E-07
    24 Broy./Diag. 0.50E-01    2.9     0.00000063       -28.2873662959 -6.09E-07
    25 Broy./Diag. 0.50E-01    2.9     0.00000062       -28.2873656614  6.35E-07
    26 Broy./Diag. 0.50E-01    2.9     0.00000053       -28.2873645854  1.08E-06
    27 Broy./Diag. 0.50E-01    2.9     0.00000013       -28.2873642151  3.70E-07
    28 Broy./Diag. 0.50E-01    2.9     0.00000017       -28.2873639888  2.26E-07
    29 Broy./Diag. 0.50E-01    2.9     0.00000013       -28.2873634881  5.01E-07
    30 Broy./Diag. 0.50E-01    3.0     0.00000004       -28.2873631959  2.92E-07
    31 Broy./Diag. 0.50E-01    2.9     0.00000009       -28.2873631150  8.09E-08
    32 Broy./Diag. 0.50E-01    2.9     0.00000004       -28.2873630360  7.90E-08
    33 Broy./Diag. 0.50E-01    2.9     0.00000014       -28.2873628345  2.02E-07
    34 Broy./Diag. 0.50E-01    2.9     0.00000003       -28.2873626458  1.89E-07
    35 Broy./Diag. 0.50E-01    2.9     0.00000003       -28.2873625928  5.30E-08
    36 Broy./Diag. 0.50E-01    2.9     0.00000005       -28.2873625755  1.72E-08
    37 Broy./Diag. 0.50E-01    2.9     5.9488E-09       -28.2873625797 -4.18E-09
    38 Broy./Diag. 0.50E-01    2.9     0.00000002       -28.2873625536  2.62E-08
    39 Broy./Diag. 0.50E-01    2.9     1.9567E-09       -28.2873625523  1.24E-09
    40 Broy./Diag. 0.50E-01    2.9     6.6015E-09       -28.2873625662 -1.38E-08
    41 Broy./Diag. 0.50E-01    2.9     4.1089E-09       -28.2873625741 -7.94E-09
    42 Broy./Diag. 0.50E-01    2.9     4.1764E-09       -28.2873625700  4.11E-09
    43 Broy./Diag. 0.50E-01    2.9     9.1794E-09       -28.2873625661  3.94E-09
    44 Broy./Diag. 0.50E-01    2.9     4.4671E-10       -28.2873625689 -2.84E-09

  *** SCF run converged in    44 steps ***


  Electronic density on regular grids:        -18.0000000000       -0.0000000000
  Core density on regular grids:               18.0000000000       -0.0000000000
  Total charge density on r-space grids:       -0.0000000000
  Total charge density g-space grids:          -0.0000000000

  Overlap energy of the core charge distribution:               0.00000000712256
  Self energy of the core charge distribution:                -59.73772061093890
  Core Hamiltonian energy:                                     13.27088031299189
  Hartree energy:                                              24.30281769997452
  Exchange-correlation energy:                                 -6.12333997804741

  Total energy:                                               -28.28736256889734

 !-----------------------------------------------------------------------------!
                     Mulliken Population Analysis

 #  Atom  Element  Kind  Atomic population                           Net charge
       1     Se       1          5.999990                              0.000010
       2     Se       1          5.999990                              0.000010
       3     Se       1          6.000020                             -0.000020
 # Total charge                             18.000000                  0.000000

 !-----------------------------------------------------------------------------!

 !-----------------------------------------------------------------------------!
                           Hirshfeld Charges

  #Atom  Element  Kind  Ref Charge     Population                    Net charge
      1       Se     1       6.000          6.000                        -0.000
      2       Se     1       6.000          6.000                        -0.000
      3       Se     1       6.000          6.000                         0.000

  Total Charge                                                           -0.000
 !-----------------------------------------------------------------------------!

 KPOINTS| Band Structure Calculation
 KPOINTS| Number of k-point sets                                               1
 KPOINTS| Number of added MOs/bands                                           -1
 KPOINTS| Number of k-points in set    1                                     148
 KPOINTS| In units of b-vector [2pi/Bohr]
 KPOINTS| Special point     1 not specifi     0.000000     0.000000     0.000000
 KPOINTS| Special point     2 not specifi     0.500000     0.000000     0.000000
 KPOINTS| Special point     3 not specifi     0.333333     0.333333     0.000000
 KPOINTS| Special point     4 not specifi     0.000000     0.000000     0.000000
 KPOINTS| Time for k-point line                                            1.229

 ENERGY| Total FORCE_EVAL ( QS ) energy [hartree]            -28.287362568897336

 -------------------------------------------------------------------------------
 -                                                                             -
 -                                DBCSR STATISTICS                             -
 -                                                                             -
 -------------------------------------------------------------------------------
 COUNTER                                    TOTAL       BLAS       SMM       ACC
 flops inhomo. stacks                           0       0.0%      0.0%      0.0%
 flops total                         0.000000E+00       0.0%      0.0%      0.0%
 flops max/rank                      0.000000E+00       0.0%      0.0%      0.0%
 matmuls inhomo. stacks                         0       0.0%      0.0%      0.0%
 matmuls total                                  0       0.0%      0.0%      0.0%
 number of processed stacks                     0       0.0%      0.0%      0.0%
 average stack size                                     0.0       0.0       0.0
 marketing flops                     0.000000E+00
 -------------------------------------------------------------------------------
 -                                                                             -
 -                      DBCSR MESSAGE PASSING PERFORMANCE                      -
 -                                                                             -
 -------------------------------------------------------------------------------
 ROUTINE             CALLS      AVE VOLUME [Bytes]
 MP_Bcast                1                     12.
 MP_Allreduce           19                     21.
 MP_Alltoall        955564                   3399.
 -------------------------------------------------------------------------------

 -------------------------------------------------------------------------------
 -                                                                             -
 -                                DBM STATISTICS                               -
 -                                                                             -
 -------------------------------------------------------------------------------
    M  x    N  x    K                                          COUNT     PERCENT
 -------------------------------------------------------------------------------

 -------------------------------------------------------------------------------
 -                                                                             -
 -                                GRID STATISTICS                              -
 -                                                                             -
 -------------------------------------------------------------------------------
 LP    KERNEL             BACKEND                              COUNT     PERCENT
 4     collocate general  CPU                                 467910      50.56%
 4     integrate general  CPU                                 457512      49.44%
 0     collocate general  CPU                                      6       0.00%
 0     integrate general  CPU                                      3       0.00%
 -------------------------------------------------------------------------------

 MEMORY| Estimated peak process memory [MiB]                                 391

 -------------------------------------------------------------------------------
 ----                             MULTIGRID INFO                            ----
 -------------------------------------------------------------------------------
 count for grid        1:              0          cutoff [a.u.]          500.00
 count for grid        2:          39255          cutoff [a.u.]          166.67
 count for grid        3:           8734          cutoff [a.u.]           55.56
 count for grid        4:          24507          cutoff [a.u.]           18.52
 total gridlevel count  :          72496

 -------------------------------------------------------------------------------
 -                                                                             -
 -                         MESSAGE PASSING PERFORMANCE                         -
 -                                                                             -
 -------------------------------------------------------------------------------

 ROUTINE             CALLS      AVE VOLUME [Bytes]
 MP_Group                6
 MP_Bcast           409261                    888.
 MP_Allreduce        81389                     85.
 MP_Sync                 4
 MP_Alltoall           797                4455873.
 MP_SendRecv          1274                 278664.
 MP_ISendRecv         1239                 275504.
 MP_Wait            282539
 MP_comm_split           4
 MP_ISend           299084                   1045.
 MP_IRecv           477824                    644.
 -------------------------------------------------------------------------------


 -------------------------------------------------------------------------------
 -                                                                             -
 -                           R E F E R E N C E S                               -
 -                                                                             -
 -------------------------------------------------------------------------------
 
 CP2K version 2025.1 (Development Version), the CP2K developers group (2025).
 CP2K is freely available from https://www.cp2k.org/ .
 
 T. D. Kuehne, M. Iannuzzi, M. Del Ben, V. V. Rybkin, P. Seewald, F. Stein, T. 
 Laino, R. Z. Khaliullin, O. Schuett, F. Schiffmann, D. Golze, J. Wilhelm, S. 
 Chulkov, M. H. Bani-Hashemian, V. Weber, U. Borstnik, M. Taillefumier, A. S. 
 Jakobovits, A. Lazzaro, H. Pabst, T. Mueller, R. Schade, M. Guidon, S. 
 Andermatt, N. Holmberg, G. K. Schenter, A. Hehn, A. Bussy, F. Belleflamme, G. 
 Tabacchi, A. Gloess, M. Lass, I. Bethune, C. J. Mundy, C. Plessl, M. Watkins, 
 J. VandeVondele, M. Krack, J. Hutter.
 J. Chem. Phys. 152, 194103 (2020).
 CP2K: An electronic structure and molecular dynamics software package - 
 Quickstep: Efficient and accurate electronic structure calculations.
 https://doi.org/10.1063/5.0007045

 O. Schuett, P. Messmer, J. Hutter, J. VandeVondele.
 Electronic Structure Calculations on Graphics Processing Units, 173-190 (2016).
 GPU-Accelerated Sparse Matrix-Matrix Multiplication for Linear Scaling Density 
 Functional Theory.
 https://doi.org/10.1002/9781118670712.ch8

 J. Hutter, M. Iannuzzi, F. Schiffmann, J. VandeVondele.
 WIREs Comput Mol Sci. 4, 15-25 (2014).
 CP2K: atomistic simulations of condensed matter systems.
 https://doi.org/10.1002/wcms.1159

 U. Borstnik, J. VandeVondele, V. Weber, J. Hutter.
 Parallel Comput. 40, 47-58 (2014).
 Sparse matrix multiplication: The distributed block-compressed sparse row 
 library.
 https://doi.org/10.1016/j.parco.2014.03.012

 J. VandeVondele, J. Hutter.
 J. Chem. Phys. 127, 114105 (2007).
 Gaussian basis sets for accurate calculations on molecular systems in gas and 
 condensed phases.
 https://doi.org/10.1063/1.2770708

 J. VandeVondele, M. Krack, F. Mohamed, M. Parrinello, T. Chassaing, J. Hutter.
 Comput. Phys. Commun. 167, 103-128 (2005).
 QUICKSTEP: Fast and accurate density functional calculations using a mixed 
 Gaussian and plane waves approach.
 https://doi.org/10.1016/j.cpc.2004.12.014

 M. Krack.
 Theor. Chem. Acc. 114, 145-152 (2005).
 Pseudopotentials for H to Kr optimized for gradient-corrected 
 exchange-correlation functionals.
 https://doi.org/10.1007/s00214-005-0655-y

 M. Frigo, S. G. Johnson.
 Proc. IEEE 93, 216-231 (2005).
 The design and implementation of FFTW3.
 https://doi.org/10.1109/JPROC.2004.840301

 C. Hartwigsen, S. Goedecker, J. Hutter.
 Phys. Rev. B 58, 3641-3662 (1998).
 Relativistic separable dual-space Gaussian pseudopotentials from H to Rn.
 https://doi.org/10.1103/PhysRevB.58.3641

 G. Lippert, J. Hutter, M. Parrinello.
 Mol. Phys. 92, 477-487 (1997).
 A hybrid Gaussian and plane wave density functional scheme.
 https://doi.org/10.1080/002689797170220

 S. Goedecker, M. Teter, J. Hutter.
 Phys. Rev. B 54, 1703-1710 (1996).
 Separable dual-space Gaussian pseudopotentials.
 https://doi.org/10.1103/PhysRevB.54.1703

 J. P. Perdew, K. Burke, M. Ernzerhof.
 Phys. Rev. Lett. 77, 3865-3868 (1996).
 Generalized gradient approximation made simple.
 https://doi.org/10.1103/PhysRevLett.77.3865


 -------------------------------------------------------------------------------
 -                                                                             -
 -                                T I M I N G                                  -
 -                                                                             -
 -------------------------------------------------------------------------------
 SUBROUTINE                       CALLS  ASD         SELF TIME        TOTAL TIME
                                MAXIMUM       AVERAGE  MAXIMUM  AVERAGE  MAXIMUM
 CP2K                                 1  1.0    0.011    0.014  132.608  132.608
 qs_energies                          1  2.0    0.010    0.065  132.384  132.415
 scf_env_do_scf                       1  3.0    0.000    0.000  130.630  130.630
 scf_env_do_scf_inner_loop           44  4.0    0.025    0.027  130.630  130.630
 do_general_diag_kp                  45  5.9    0.257    0.298  118.344  120.434
 qs_scf_new_mos_kp                   44  5.0    0.000    0.000  117.190  119.273
 mp_alltoall_i22                 163114  8.8   50.805   79.919   50.805   79.919
 dbcsr_desymmetrize_deep          93117  7.5    1.450    1.668   43.402   63.205
 rskp_transform                   22824  7.0   17.261   46.994   17.261   46.994
 dbcsr_complete_redistribute      69997  8.3    2.440    2.783   35.721   44.483
 kpoint_density_transform            44  7.0    0.099    0.116   32.356   32.413
 copy_fm_to_dbcsr                 22528  8.0    0.136    0.152   21.040   29.467
 copy_dbcsr_to_fm                 47469  6.9    0.492    0.552   23.729   24.002
 transform_dmat                   11264  8.0    8.407   22.975    8.407   22.975
 qs_ks_update_qs_env                 44  5.0    0.000    0.000    4.686    8.328
 rebuild_ks_matrix                   44  6.0    0.000    0.000    3.887    7.530
 qs_ks_build_kohn_sham_matrix        44  7.0    0.048    0.049    3.887    7.529
 cp_fm_start_copy_general         68176  7.3    1.074    1.535    6.445    6.526
 sum_up_and_integrate                44  8.0    0.000    0.001    2.581    6.213
 integrate_v_rspace                  44  9.0    0.033    0.086    2.579    6.211
 dbcsr_finalize                  173358  8.6    0.800    0.846    5.761    6.125
 qs_rho_update_rho_low               45  5.0    0.000    0.000    5.843    5.859
 calculate_rho_elec                  45  6.0    0.037    0.044    5.842    5.858
 grid_integrate_task_list            44 10.0    2.086    5.676    2.086    5.676
 density_rs2pw                       45  7.0    0.002    0.002    3.685    5.500
 mp_alltoall_d11v                489342  9.4    5.066    5.377    5.066    5.377
 transfer_rs2pw                     182  8.0    0.002    0.003    3.503    5.375
 transfer_rs2pw_500                  47  8.9    0.137    0.145    3.406    5.275
 mp_sendrecv_dv                    1274 10.0    3.330    5.199    3.330    5.199
 grid_collocate_task_list            45  7.0    2.114    5.141    2.114    5.141
 mp_cart_sub                      94940  8.9    4.041    4.092    4.041    4.092
 dbcsr_merge_all                  69997 10.3    1.891    2.171    3.277    3.562
 hybrid_alltoall_any              93117  8.5    0.379    0.407    3.194    3.472
 mp_alltoall_i11v                303108  9.0    3.216    3.326    3.216    3.326
 mp_allgather_i                  136352  8.3    2.884    3.083    2.884    3.083
 mp_cart_create                   47476  8.9    2.331    2.416    2.331    2.416
 cp_cfm_geeig                      1445  6.9    0.010    0.011    2.364    2.393
 mp_bcast_iv                     272728  8.3    1.638    1.876    1.638    1.876
 cp_cfm_heevd                      1445  7.9    0.002    0.002    1.811    1.830
 cp_cfm_heevd_base                 1445  8.9    1.809    1.827    1.809    1.827
 dbcsr_work_create               163114  8.8    0.972    1.084    1.613    1.769
 dbcsr_create_new                291088  8.2    1.214    1.284    1.455    1.551
 write_kpoints_restart               44  5.0    0.006    0.010    1.532    1.532
 fft_wrap_pw1pw2                    797 10.0    0.007    0.008    1.270    1.288
 dbcsr_iterator_start            523228  9.0    1.017    1.046    1.186    1.215
 dbcsr_work_destroy_all          163114  9.8    0.773    0.789    1.159    1.186
 fft_wrap_pw1pw2_500                530 11.3    0.088    0.090    1.163    1.180
 dbcsr_data_new                 1753242  9.7    1.059    1.170    1.059    1.170
 tree_to_linear_d                 69997 11.3    1.099    1.153    1.099    1.153
 copy_fm_to_dbcsr_bc              22528  9.0    0.295    0.323    1.018    1.084
 copy_dbcsr_to_fm_bc              47469  7.9    0.462    0.515    1.027    1.078
 fft3d_ps                           797 12.0    0.437    0.463    1.028    1.048
 dbcsr_data_release             2462704 10.2    0.906    0.967    0.906    0.967
 dbcsr_copy                       76551  7.2    0.337    0.364    0.773    0.937
 qs_vxc_create                       44  8.0    0.001    0.001    0.878    0.880
 xc_vxc_pw_create                    44  9.0    0.036    0.038    0.877    0.880
 dbcsr_dot                        53417  8.0    0.247    0.329    0.795    0.820
 dbcsr_destroy                   237672  8.2    0.394    0.423    0.745    0.807
 evaluate_core_matrix_traces         44  6.0    0.000    0.000    0.798    0.799
 calculate_ptrace_kp                 88  7.0    0.040    0.042    0.798    0.798
 gspace_mixing                       43  5.0    0.031    0.033    0.783    0.783
 dbcsr_iterator_stop             523228  9.0    0.644    0.658    0.762    0.774
 cp_fm_write_unformatted           1821  6.0    0.389    0.634    0.395    0.661
 broyden_mixing                      43  6.0    0.625    0.639    0.643    0.644
 mp_bcast_im                     136352  8.3    0.528    0.615    0.528    0.615
 xc_pw_derive                       264 11.0    0.001    0.001    0.563    0.570
 cp_fm_finish_copy_general        28308  7.8    0.435    0.485    0.479    0.549
 mp_alltoall_z22v                   797 14.0    0.512    0.548    0.512    0.548
 mp_sum_d                         54187  8.9    0.450    0.541    0.450    0.541
 self_consistency_check              44  5.0    0.038    0.039    0.496    0.530
 mp_waitall_1                    282539  8.3    0.283    0.526    0.283    0.526
 quick_finalize                   93117  9.5    0.271    0.303    0.469    0.524
 dbcsr_copy_into_existing         23135  9.9    0.217    0.356    0.348    0.492
 potential_pw2rs                     44 10.0    0.003    0.003    0.459    0.478
 xc_rho_set_and_dset_create          44 10.0    0.018    0.019    0.454    0.464
 cp_sm_mix                        26708  6.0    0.088    0.132    0.416    0.459
 mp_comm_free                    142450  8.9    0.341    0.399    0.341    0.399
 xc_pw_divergence                    44 10.0    0.001    0.001    0.378    0.384
 mp_max_d                         26710  7.0    0.265    0.335    0.265    0.335
 x_to_yz                            440 13.2    0.045    0.051    0.319    0.331
 transfer_pw2rs                     177 11.0    0.001    0.001    0.302    0.303
 dbcsr_set                       172880  7.9    0.160    0.171    0.238    0.298
 yz_to_x                            357 12.8    0.028    0.030    0.266    0.294
 cp_cfm_triangular_multiply        4335  7.9    0.284    0.287    0.284    0.287
 kpoint_density_matrices             44  7.0    0.020    0.021    0.262    0.266
 parallel_gemm_fm                  5632  8.0    0.005    0.005    0.234    0.238
 qs_energies_init_hamiltonians        1  3.0    0.000    0.000    0.236    0.236
 parallel_gemm_fm_gemm             5632  9.0    0.005    0.005    0.228    0.232
 cp_dbcsr_alloc_block_from_nbl     4515  5.2    0.080    0.191    0.100    0.232
 cp_fm_gemm                        5632 10.0    0.223    0.227    0.223    0.227
 transfer_pw2rs_500                  45 11.9    0.119    0.122    0.220    0.224
 init_scf_run                         1  3.0    0.000    0.000    0.197    0.221
 scf_env_initial_rho_setup            1  4.0    0.000    0.000    0.197    0.221
 dbcsr_sort_indices              190157 10.9    0.164    0.201    0.164    0.201
 dbcsr_iterator_seek             523228 10.0    0.168    0.190    0.168    0.190
 dbcsr_reserve_all_blocks         22528 10.0    0.034    0.040    0.159    0.176
 dbcsr_reserve_blocks             27043 10.2    0.118    0.144    0.144    0.172
 dbcsr_make_index_exist          291088  9.2    0.152    0.169    0.152    0.169
 build_core_hamiltonian_matrix        1  4.0    0.002    0.003    0.094    0.166
 xc_functional_eval                  44 11.0    0.000    0.000    0.154    0.164
 pbe_lda_eval                        44 12.0    0.154    0.164    0.154    0.164
 mp_isend_dv                      68768  8.3    0.140    0.154    0.140    0.154
 qs_env_update_s_mstruct              1  4.0    0.000    0.000    0.113    0.152
 merge_index                      69997 11.3    0.139    0.148    0.139    0.148
 calculate_rho_core                   1  5.0    0.001    0.003    0.090    0.146
 mp_irecv_iv                     272704  8.3    0.016    0.131    0.016    0.131
 cp_cfm_triangular_invert          1445  7.9    0.126    0.129    0.126    0.129
 dbcsr_zero                      172880  8.9    0.077    0.127    0.077    0.127
 cp_cfm_cholesky_decompose         1445  7.9    0.114    0.119    0.114    0.119
 dbcsr_switch_data_area           93117 10.5    0.084    0.085    0.111    0.113
 kpoint_set_mo_occupation            44  7.0    0.038    0.038    0.085    0.106
 cp_fm_cleanup_copy_general       48464  7.0    0.063    0.066    0.095    0.098
 mp_isend_iv                     153544  8.3    0.024    0.092    0.024    0.092
 parser_read_line                  6038  4.1    0.002    0.002    0.084    0.087
 parser_read_line_low                23  6.2    0.008    0.031    0.082    0.085
 dbcsr_data_copy_aa2              69997 11.2    0.046    0.083    0.046    0.083
 pw_scatter_p                       440 12.2    0.080    0.082    0.080    0.082
 mp_sum_dv                          339  3.5    0.045    0.081    0.045    0.081
 broadcast_input_information         23  7.2    0.025    0.031    0.074    0.080
 transfer_rs2pw_170                  45  9.0    0.026    0.029    0.070    0.077
 mp_isendrecv_dv                   1239 13.0    0.029    0.074    0.029    0.074
 mixing_allocate                      1  3.0    0.004    0.004    0.036    0.072
 dbcsr_distribution_new           69999  8.6    0.057    0.072    0.057    0.072
 pw_poisson_solve                    44  8.0    0.000    0.001    0.069    0.070
 fft_wrap_pw1pw2_170                 89 10.5    0.005    0.005    0.067    0.069
 mp_sum_dm3                          44  8.0    0.047    0.068    0.047    0.068
 mp_irecv_im2                    136352  8.3    0.008    0.067    0.008    0.067
 dbcsr_get_data_size_used        163114  9.8    0.055    0.065    0.055    0.065
 topology_control                     1  2.0    0.000    0.000    0.064    0.064
 transfer_pw2rs_170                  44 12.0    0.027    0.029    0.059    0.064
 calculate_first_density_matrix       1  5.0    0.000    0.000    0.040    0.064
 calculate_atomic_block_dm            1  6.0    0.001    0.001    0.039    0.062
 restraint_control                    1  2.0    0.000    0.000    0.031    0.062
 mp_sum_i                             4  2.8    0.031    0.062    0.031    0.062
 create_qs_kind_set                   1  2.0    0.000    0.000    0.055    0.056
 read_qs_kind                         1  3.0    0.030    0.031    0.055    0.056
 dbcsr_make_dbcsr_index          190157 10.9    0.050    0.053    0.050    0.053
 pw_integral_ab_c1d_c1d_gs           44  9.0    0.045    0.046    0.047    0.047
 read_cell_cif                        2  4.5    0.002    0.004    0.045    0.045
 scf_post_calculation_gpw             1  3.0    0.000    0.000    0.044    0.044
 write_available_results              1  4.0    0.000    0.000    0.044    0.044
 write_mo_free_results                1  5.0    0.001    0.001    0.044    0.044
 build_overlap_matrix_low             1  5.0    0.007    0.010    0.023    0.043
 mp_isend_im2                     76772  8.3    0.011    0.043    0.011    0.043
 pw_gather_p                        357 11.8    0.042    0.042    0.042    0.042
 mp_irecv_dv                      68768  8.3    0.039    0.042    0.039    0.042
 calculate_ecore_overlap              1  4.0    0.000    0.000    0.026    0.042
 build_kinetic_matrix_low             1  5.0    0.006    0.009    0.022    0.042
 qs_init_subsys                       1  2.0    0.001    0.001    0.041    0.041
 qs_env_setup                         1  3.0    0.000    0.000    0.038    0.039
 qs_env_rebuild_pw_env                2  3.5    0.000    0.000    0.038    0.038
 pw_env_rebuild                       1  5.0    0.000    0.000    0.038    0.038
 coordinate_control                   1  3.0    0.000    0.001    0.037    0.038
 coordinate_control_READ_COORDI       1  4.0    0.000    0.000    0.037    0.037
 read_coordinate_cif                  1  5.0    0.001    0.002    0.037    0.037
 pw_grid_setup                        4  6.0    0.000    0.000    0.036    0.036
 pw_grid_setup_internal               4  7.0    0.001    0.001    0.036    0.036
 cp_cfm_scale_and_add_fm           5780  6.9    0.035    0.036    0.035    0.036
 qs_env_rebuild_rho                   1  5.0    0.000    0.000    0.018    0.036
 qs_rho_rebuild                       1  6.0    0.002    0.002    0.018    0.036
 mp_bcast_i_src                      92  8.2    0.028    0.033    0.028    0.033
 mp_sum_iv                           24  5.3    0.018    0.030    0.018    0.030
 qs_scf_ensure_work_matrices          1  3.0    0.000    0.000    0.018    0.030
 build_core_ppnl                      1  5.0    0.021    0.030    0.021    0.030
 mp_bcast_am_src                     23  8.2    0.014    0.015    0.021    0.030
 mp_recv_dv                        5463  7.0    0.003    0.027    0.003    0.027
 pw_grid_sort                         4  8.0    0.016    0.016    0.023    0.023
 pw_copy                            660 10.5    0.022    0.023    0.022    0.023
 fft_wrap_pw1pw2_60                  89 10.5    0.001    0.001    0.022    0.023
 mixing_init                          1  5.0    0.020    0.022    0.022    0.022
 transfer_rs2pw_60                   45  9.0    0.006    0.006    0.018    0.022
 pw_derive                          396 11.3    0.021    0.021    0.021    0.021
 mp_sum_dm                           43  7.0    0.011    0.020    0.011    0.020
 calculate_hirshfeld_normalizat       1  6.0    0.004    0.012    0.019    0.020
 cp_cfm_to_cfm_columns             1445  7.9    0.018    0.019    0.018    0.019
 hirshfeld_integration                1  6.0    0.005    0.013    0.019    0.019
 transfer_pw2rs_60                   44 12.0    0.006    0.006    0.015    0.017
 pw_poisson_set                      45  8.9    0.001    0.001    0.014    0.015
 mp_comm_size                     54723  9.0    0.013    0.014    0.013    0.014
 cp_cfm_to_fm                      1445  6.9    0.014    0.014    0.014    0.014
 mp_comm_rank                     54723  9.0    0.013    0.014    0.013    0.014
 -------------------------------------------------------------------------------

 The number of warnings for this run is : 1
 
 -------------------------------------------------------------------------------
  **** **** ******  **  PROGRAM ENDED AT                 2025-08-05 00:08:10.892
 ***** ** ***  *** **   PROGRAM RAN ON                              i02r04c02s12
 **    ****   ******    PROGRAM RAN BY                                   di38fab
 ***** **    ** ** **   PROGRAM PROCESS ID                               1625450
  **** **  *******  **  PROGRAM STOPPED IN /hppfs/scratch/04/di38fab/09_GTH/Delt
                                           a_Set/Se/aug-DZVP-MOLOPT-GTH-tier-1/8
                                           x8x8
