P                                       
   1.00000000000000     
     3.304660    0.000000    0.000000
     0.000000   11.316940    0.000000
     0.000000    0.000000    4.573270
   P 
     8
Direct
  0.000000  0.093570  0.087190
  0.000000  0.906430  0.912810
  0.000000  0.406430  0.587190
  0.000000  0.593570  0.412810
  0.500000  0.593570  0.087190
  0.500000  0.406430  0.912810
  0.500000  0.906430  0.587190
  0.500000  0.093570  0.412810
 
   32  100   40
  121.99      119.61      112.80      102.50      90.006      76.631      63.517      51.489      41.038      32.368    
  25.468      20.186      16.297      13.563      11.772      10.763      10.438      10.763      11.772      13.563    
  16.297      20.186      25.468      32.368      41.038      51.489      63.517      76.631      90.006      102.50    
  112.80      119.61      124.18      121.73      114.76      104.23      91.472      77.855      64.529      52.322    
  41.718      32.917      25.902      20.523      16.557      13.765      11.934      10.902      10.569      10.902    
  11.934      13.765      16.557      20.523      25.902      32.917      41.718      52.322      64.529      77.855    
  91.472      104.23      114.76      121.73      130.37      127.77      120.35      109.18      95.716      81.424    
  67.501      54.779      43.728      34.536      27.181      21.514      17.317      14.352      12.403      11.303    
  10.949      11.303      12.403      14.352      17.317      21.514      27.181      34.536      43.728      54.779    
  67.501      81.424      95.716      109.18      120.35      127.77      138.07      135.45      127.91      116.38    
  102.22      87.015      72.222      58.715      46.960      37.136      29.228      23.094      18.523      15.280    
  13.143      11.934      11.544      11.934      13.143      15.280      18.523      23.094      29.228      37.136    
  46.960      58.715      72.222      87.015      102.22      116.38      127.91      135.45      142.06      139.77    
  133.09      122.57      109.11      93.870      78.299      63.854      51.204      40.551      31.906      25.151    
  20.087      16.478      14.094      12.745      12.309      12.745      14.094      16.478      20.087      25.151    
  31.906      40.551      51.204      63.854      78.299      93.870      109.11      122.57      133.09      139.77    
  137.70      136.23      131.75      124.15      113.45      100.05      84.965      69.786      56.140      44.526    
  35.013      27.524      21.880      17.845      15.174      13.662      13.173      13.662      15.174      17.845    
  21.880      27.524      35.013      44.526      56.140      69.786      84.965      100.05      113.45      124.15    
  131.75      136.23      123.46      123.29      122.35      119.55      113.66      104.00      90.927      75.952    
  61.365      48.727      38.279      30.000      23.734      19.242      16.267      14.581      14.037      14.581    
  16.267      19.242      23.734      30.000      38.279      48.727      61.365      75.952      90.927      104.00    
  113.66      119.55      122.35      123.29      102.66      104.06      107.41      110.46      110.53      105.71    
  95.597      81.604      66.425      52.766      41.386      32.325      25.448      20.512      17.239      15.386    
  14.788      15.386      17.239      20.512      25.448      32.325      41.386      52.766      66.425      81.604    
  95.597      105.71      110.53      110.46      107.41      104.06      82.876      85.733      93.022      101.43    
  106.97      106.59      99.275      86.332      70.816      56.213      43.984      34.226      26.813      21.491    
  17.963      15.966      15.321      15.966      17.963      21.491      26.813      34.226      43.984      56.213    
  70.816      86.332      99.275      106.59      106.97      101.43      93.022      85.733      72.607      76.348    
  86.023      97.630      106.36      108.45      102.54      89.946      73.994      58.615      45.717      35.435    
  27.631      22.033      18.326      16.229      15.553      16.229      18.326      22.033      27.631      35.435    
  45.717      58.615      73.994      89.946      102.54      108.45      106.36      97.630      86.023      76.348    
  76.652      80.439      90.201      101.82      110.35      111.99      105.42      92.074      75.436      59.543    
  46.272      35.727      27.743      22.028      18.249      16.113      15.425      16.113      18.249      22.028    
  27.743      35.727      46.272      59.543      75.436      92.074      105.42      111.99      110.35      101.82    
  90.201      80.439      93.310      96.327      103.94      112.48      117.59      116.05      106.96      91.992    
  74.648      58.675      45.442      34.973      27.072      21.428      17.703      15.600      14.922      15.600    
  17.703      21.428      27.072      34.973      45.442      58.675      74.648      91.992      106.96      116.05    
  117.59      112.48      103.94      96.327      115.18      116.90      120.93      124.44      124.18      117.94    
  105.52      88.874      71.351      55.909      43.194      33.175      25.637      20.264      16.722      14.724    
  14.080      14.724      16.722      20.264      25.637      33.175      43.194      55.909      71.351      88.874    
  105.52      117.94      124.18      124.44      120.93      116.90      132.82      133.11      133.25      131.41    
  125.63      114.87      99.730      82.361      65.714      51.416      39.689      30.476      23.558      18.634    
  15.390      13.560      12.970      13.560      15.390      18.634      23.558      30.476      39.689      51.416    
  65.714      82.361      99.730      114.87      125.63      131.41      133.25      133.11      138.90      138.01    
  134.98      128.93      119.09      105.53      89.467      73.076      58.277      45.620      35.256      27.125    
  21.023      16.681      13.817      12.201      11.680      12.201      13.817      16.681      21.023      27.125    
  35.256      45.620      58.277      73.076      89.467      105.53      119.09      128.93      134.98      138.01    
  130.92      129.33      124.49      116.26      104.81      90.978      76.291      62.328      49.808      39.095    
  30.320      23.430      18.256      14.565      12.125      10.745      10.299      10.745      12.125      14.565    
  18.256      23.430      30.320      39.095      49.808      62.328      76.291      90.978      104.81      116.26    
  124.49      129.33      111.70      109.96      104.82      96.626      86.099      74.375      62.508      51.249    
  41.125      32.442      25.314      19.704      15.476      12.447      10.436      9.2928      8.9226      9.2928    
  10.436      12.447      15.476      19.704      25.314      32.442      41.125      51.249      62.508      74.375    
  86.099      96.626      104.82      109.96      87.864      86.399      82.175      75.668      67.555      58.585    
  49.464      40.773      32.927      26.174      20.608      16.206      12.870      10.464      8.8551      7.9352    
  7.6362      7.9352      8.8551      10.464      12.870      16.206      20.608      26.174      32.927      40.773    
  49.464      58.585      67.555      75.668      82.175      86.399      66.109      65.048      61.982      57.243    
  51.311      44.722      37.990      31.546      25.702      20.647      16.456      13.119      10.567      8.7105    
  7.4575      6.7360      6.5006      6.7360      7.4575      8.7105      10.567      13.119      16.456      20.647    
  25.702      31.546      37.990      44.722      51.311      57.243      61.982      65.048      48.351      47.608    
  45.460      42.132      37.950      33.287      28.502      23.899      19.702      16.048      12.994      10.538    
  8.6411      7.2448      6.2931      5.7409      5.5600      5.7409      6.2931      7.2448      8.6411      10.538    
  12.994      16.048      19.702      23.899      28.502      33.287      37.950      42.132      45.460      47.608    
  34.591      34.089      32.635      30.378      27.533      24.349      21.066      17.891      14.976      12.416    
  10.256      8.4995      7.1262      6.1044      5.4015      4.9910      4.8561      4.9910      5.4015      6.1044    
  7.1262      8.4995      10.256      12.416      14.976      17.891      21.066      24.349      27.533      30.378    
  32.635      34.089      24.402      24.075      23.126      21.649      19.782      17.682      15.507      13.389    
  11.429      9.6924      8.2119      6.9956      6.0354      5.3154      4.8172      4.5253      4.4292      4.5253    
  4.8172      5.3154      6.0354      6.9956      8.2119      9.6924      11.429      13.389      15.507      17.682    
  19.782      21.649      23.126      24.075      17.153      16.947      16.351      15.422      14.243      12.912    
  11.525      10.166      8.9009      7.7727      6.8052      6.0066      5.3746      4.9004      4.5729      4.3814    
  4.3184      4.3814      4.5729      4.9004      5.3746      6.0066      6.8052      7.7727      8.9009      10.166    
  11.525      12.912      14.243      15.422      16.351      16.947      12.164      12.042      11.686      11.131    
  10.426      9.6282      8.7963      7.9821      7.2260      6.5556      5.9860      5.5221      5.1613      4.8958    
  4.7161      4.6127      4.5790      4.6127      4.7161      4.8958      5.1613      5.5221      5.9860      6.5556    
  7.2260      7.9821      8.7963      9.6282      10.426      11.131      11.686      12.042      8.8230      8.7568    
  8.5652      8.2672      7.8916      7.4722      7.0436      6.6362      6.2735      5.9705      5.7332      5.5597    
  5.4425      5.3702      5.3303      5.3115      5.3061      5.3115      5.3303      5.3702      5.4425      5.5597    
  5.7332      5.9705      6.2735      6.6362      7.0436      7.4722      7.8916      8.2672      8.5652      8.7568    
  6.6477      6.6216      6.5473      6.4362      6.3054      6.1748      6.0643      5.9906      5.9647      5.9906    
  6.0643      6.1748      6.3054      6.4362      6.5473      6.6216      6.6477      6.6216      6.5473      6.4362    
  6.3054      6.1748      6.0643      5.9906      5.9647      5.9906      6.0643      6.1748      6.3054      6.4362    
  6.5473      6.6216      5.3061      5.3115      5.3303      5.3702      5.4425      5.5597      5.7332      5.9705    
  6.2735      6.6362      7.0436      7.4722      7.8916      8.2672      8.5652      8.7568      8.8230      8.7568    
  8.5652      8.2672      7.8916      7.4722      7.0436      6.6362      6.2735      5.9705      5.7332      5.5597    
  5.4425      5.3702      5.3303      5.3115      4.5790      4.6127      4.7161      4.8958      5.1613      5.5221    
  5.9860      6.5556      7.2260      7.9821      8.7963      9.6282      10.426      11.131      11.686      12.042    
  12.164      12.042      11.686      11.131      10.426      9.6282      8.7963      7.9821      7.2260      6.5556    
  5.9860      5.5221      5.1613      4.8958      4.7161      4.6127      4.3184      4.3814      4.5729      4.9004    
  5.3746      6.0066      6.8052      7.7727      8.9009      10.166      11.525      12.912      14.243      15.422    
  16.351      16.947      17.153      16.947      16.351      15.422      14.243      12.912      11.525      10.166    
  8.9009      7.7727      6.8052      6.0066      5.3746      4.9004      4.5729      4.3814      4.4292      4.5253    
  4.8172      5.3154      6.0354      6.9956      8.2119      9.6924      11.429      13.389      15.507      17.682    
  19.782      21.649      23.126      24.075      24.402      24.075      23.126      21.649      19.782      17.682    
  15.507      13.389      11.429      9.6924      8.2119      6.9956      6.0354      5.3154      4.8172      4.5253    
  4.8561      4.9910      5.4015      6.1044      7.1262      8.4995      10.256      12.416      14.976      17.891    
  21.066      24.349      27.533      30.378      32.635      34.089      34.591      34.089      32.635      30.378    
  27.533      24.349      21.066      17.891      14.976      12.416      10.256      8.4995      7.1262      6.1044    
  5.4015      4.9910      5.5600      5.7409      6.2931      7.2448      8.6411      10.538      12.994      16.048    
  19.702      23.899      28.502      33.287      37.950      42.132      45.460      47.608      48.351      47.608    
  45.460      42.132      37.950      33.287      28.502      23.899      19.702      16.048      12.994      10.538    
  8.6411      7.2448      6.2931      5.7409      6.5006      6.7360      7.4575      8.7105      10.567      13.119    
  16.456      20.647      25.702      31.546      37.990      44.722      51.311      57.243      61.982      65.048    
  66.109      65.048      61.982      57.243      51.311      44.722      37.990      31.546      25.702      20.647    
  16.456      13.119      10.567      8.7105      7.4575      6.7360      7.6362      7.9352      8.8551      10.464    
  12.870      16.206      20.608      26.174      32.927      40.773      49.464      58.585      67.555      75.668    
  82.175      86.399      87.864      86.399      82.175      75.668      67.555      58.585      49.464      40.773    
  32.927      26.174      20.608      16.206      12.870      10.464      8.8551      7.9352      8.9226      9.2928    
  10.436      12.447      15.476      19.704      25.314      32.442      41.125      51.249      62.508      74.375    
  86.099      96.626      104.82      109.96      111.70      109.96      104.82      96.626      86.099      74.375    
  62.508      51.249      41.125      32.442      25.314      19.704      15.476      12.447      10.436      9.2928    
  10.299      10.745      12.125      14.565      18.256      23.430      30.320      39.095      49.808      62.328    
  76.291      90.978      104.81      116.26      124.49      129.33      130.92      129.33      124.49      116.26    
  104.81      90.978      76.291      62.328      49.808      39.095      30.320      23.430      18.256      14.565    
  12.125      10.745      11.680      12.201      13.817      16.681      21.023      27.125      35.256      45.620    
  58.277      73.076      89.467      105.53      119.09      128.93      134.98      138.01      138.90      138.01    
  134.98      128.93      119.09      105.53      89.467      73.076      58.277      45.620      35.256      27.125    
  21.023      16.681      13.817      12.201      12.970      13.560      15.390      18.634      23.558      30.476    
  39.689      51.416      65.714      82.361      99.730      114.87      125.63      131.41      133.25      133.11    
  132.82      133.11      133.25      131.41      125.63      114.87      99.730      82.361      65.714      51.416    
  39.689      30.476      23.558      18.634      15.390      13.560      14.080      14.724      16.722      20.264    
  25.637      33.175      43.194      55.909      71.351      88.874      105.52      117.94      124.18      124.44    
  120.93      116.90      115.18      116.90      120.93      124.44      124.18      117.94      105.52      88.874    
  71.351      55.909      43.194      33.175      25.637      20.264      16.722      14.724      14.922      15.600    
  17.703      21.428      27.072      34.973      45.442      58.675      74.648      91.992      106.96      116.05    
  117.59      112.48      103.94      96.327      93.310      96.327      103.94      112.48      117.59      116.05    
  106.96      91.992      74.648      58.675      45.442      34.973      27.072      21.428      17.703      15.600    
  15.425      16.113      18.249      22.028      27.743      35.727      46.272      59.543      75.436      92.074    
  105.42      111.99      110.35      101.82      90.201      80.439      76.652      80.439      90.201      101.82    
  110.35      111.99      105.42      92.074      75.436      59.543      46.272      35.727      27.743      22.028    
  18.249      16.113      15.553      16.229      18.326      22.033      27.631      35.435      45.717      58.615    
  73.994      89.946      102.54      108.45      106.36      97.630      86.023      76.348      72.607      76.348    
  86.023      97.630      106.36      108.45      102.54      89.946      73.994      58.615      45.717      35.435    
  27.631      22.033      18.326      16.229      15.321      15.966      17.963      21.491      26.813      34.226    
  43.984      56.213      70.816      86.332      99.275      106.59      106.97      101.43      93.022      85.733    
  82.876      85.733      93.022      101.43      106.97      106.59      99.275      86.332      70.816      56.213    
  43.984      34.226      26.813      21.491      17.963      15.966      14.788      15.386      17.239      20.512    
  25.448      32.325      41.386      52.766      66.425      81.604      95.597      105.71      110.53      110.46    
  107.41      104.06      102.66      104.06      107.41      110.46      110.53      105.71      95.597      81.604    
  66.425      52.766      41.386      32.325      25.448      20.512      17.239      15.386      14.037      14.581    
  16.267      19.242      23.734      30.000      38.279      48.727      61.365      75.952      90.927      104.00    
  113.66      119.55      122.35      123.29      123.46      123.29      122.35      119.55      113.66      104.00    
  90.927      75.952      61.365      48.727      38.279      30.000      23.734      19.242      16.267      14.581    
  13.173      13.662      15.174      17.845      21.880      27.524      35.013      44.526      56.140      69.786    
  84.965      100.05      113.45      124.15      131.75      136.23      137.70      136.23      131.75      124.15    
  113.45      100.05      84.965      69.786      56.140      44.526      35.013      27.524      21.880      17.845    
  15.174      13.662      12.309      12.745      14.094      16.478      20.087      25.151      31.906      40.551    
  51.204      63.854      78.299      93.870      109.11      122.57      133.09      139.77      142.06      139.77    
  133.09      122.57      109.11      93.870      78.299      63.854      51.204      40.551      31.906      25.151    
  20.087      16.478      14.094      12.745      11.544      11.934      13.143      15.280      18.523      23.094    
  29.228      37.136      46.960      58.715      72.222      87.015      102.22      116.38      127.91      135.45    
  138.07      135.45      127.91      116.38      102.22      87.015      72.222      58.715      46.960      37.136    
  29.228      23.094      18.523      15.280      13.143      11.934      10.949      11.303      12.403      14.352    
  17.317      21.514      27.181      34.536      43.728      54.779      67.501      81.424      95.716      109.18    
  120.35      127.77      130.37      127.77      120.35      109.18      95.716      81.424      67.501      54.779    
  43.728      34.536      27.181      21.514      17.317      14.352      12.403      11.303      10.569      10.902    
  11.934      13.765      16.557      20.523      25.902      32.917      41.718      52.322      64.529      77.855    
  91.472      104.23      114.76      121.73      124.18      121.73      114.76      104.23      91.472      77.855    
  64.529      52.322      41.718      32.917      25.902      20.523      16.557      13.765      11.934      10.902    
  10.438      10.763      11.772      13.563      16.297      20.186      25.468      32.368      41.038      51.489    
  63.517      76.631      90.006      102.50      112.80      119.61      121.99      119.61      112.80      102.50    
  90.006      76.631      63.517      51.489      41.038      32.368      25.468      20.186      16.297      13.563    
  11.772      10.763      10.569      10.902      11.934      13.765      16.557      20.523      25.902      32.917    
  41.718      52.322      64.529      77.855      91.472      104.23      114.76      121.73      124.18      121.73    
  114.76      104.23      91.472      77.855      64.529      52.322      41.718      32.917      25.902      20.523    
  16.557      13.765      11.934      10.902      10.949      11.303      12.403      14.352      17.317      21.514    
  27.181      34.536      43.728      54.779      67.501      81.424      95.716      109.18      120.35      127.77    
  130.37      127.77      120.35      109.18      95.716      81.424      67.501      54.779      43.728      34.536    
  27.181      21.514      17.317      14.352      12.403      11.303      11.544      11.934      13.143      15.280    
  18.523      23.094      29.228      37.136      46.960      58.715      72.222      87.015      102.22      116.38    
  127.91      135.45      138.07      135.45      127.91      116.38      102.22      87.015      72.222      58.715    
  46.960      37.136      29.228      23.094      18.523      15.280      13.143      11.934      12.309      12.745    
  14.094      16.478      20.087      25.151      31.906      40.551      51.204      63.854      78.299      93.870    
  109.11      122.57      133.09      139.77      142.06      139.77      133.09      122.57      109.11      93.870    
  78.299      63.854      51.204      40.551      31.906      25.151      20.087      16.478      14.094      12.745    
  13.173      13.662      15.174      17.845      21.880      27.524      35.013      44.526      56.140      69.786    
  84.965      100.05      113.45      124.15      131.75      136.23      137.70      136.23      131.75      124.15    
  113.45      100.05      84.965      69.786      56.140      44.526      35.013      27.524      21.880      17.845    
  15.174      13.662      14.037      14.581      16.267      19.242      23.734      30.000      38.279      48.727    
  61.365      75.952      90.927      104.00      113.66      119.55      122.35      123.29      123.46      123.29    
  122.35      119.55      113.66      104.00      90.927      75.952      61.365      48.727      38.279      30.000    
  23.734      19.242      16.267      14.581      14.788      15.386      17.239      20.512      25.448      32.325    
  41.386      52.766      66.425      81.604      95.597      105.71      110.53      110.46      107.41      104.06    
  102.66      104.06      107.41      110.46      110.53      105.71      95.597      81.604      66.425      52.766    
  41.386      32.325      25.448      20.512      17.239      15.386      15.321      15.966      17.963      21.491    
  26.813      34.226      43.984      56.213      70.816      86.332      99.275      106.59      106.97      101.43    
  93.022      85.733      82.876      85.733      93.022      101.43      106.97      106.59      99.275      86.332    
  70.816      56.213      43.984      34.226      26.813      21.491      17.963      15.966      15.553      16.229    
  18.326      22.033      27.631      35.435      45.717      58.615      73.994      89.946      102.54      108.45    
  106.36      97.630      86.023      76.348      72.607      76.348      86.023      97.630      106.36      108.45    
  102.54      89.946      73.994      58.615      45.717      35.435      27.631      22.033      18.326      16.229    
  15.425      16.113      18.249      22.028      27.743      35.727      46.272      59.543      75.436      92.074    
  105.42      111.99      110.35      101.82      90.201      80.439      76.652      80.439      90.201      101.82    
  110.35      111.99      105.42      92.074      75.436      59.543      46.272      35.727      27.743      22.028    
  18.249      16.113      14.922      15.600      17.703      21.428      27.072      34.973      45.442      58.675    
  74.648      91.992      106.96      116.05      117.59      112.48      103.94      96.327      93.310      96.327    
  103.94      112.48      117.59      116.05      106.96      91.992      74.648      58.675      45.442      34.973    
  27.072      21.428      17.703      15.600      14.080      14.724      16.722      20.264      25.637      33.175    
  43.194      55.909      71.351      88.874      105.52      117.94      124.18      124.44      120.93      116.90    
  115.18      116.90      120.93      124.44      124.18      117.94      105.52      88.874      71.351      55.909    
  43.194      33.175      25.637      20.264      16.722      14.724      12.970      13.560      15.390      18.634    
  23.558      30.476      39.689      51.416      65.714      82.361      99.730      114.87      125.63      131.41    
  133.25      133.11      132.82      133.11      133.25      131.41      125.63      114.87      99.730      82.361    
  65.714      51.416      39.689      30.476      23.558      18.634      15.390      13.560      11.680      12.201    
  13.817      16.681      21.023      27.125      35.256      45.620      58.277      73.076      89.467      105.53    
  119.09      128.93      134.98      138.01      138.90      138.01      134.98      128.93      119.09      105.53    
  89.467      73.076      58.277      45.620      35.256      27.125      21.023      16.681      13.817      12.201    
  10.299      10.745      12.125      14.565      18.256      23.430      30.320      39.095      49.808      62.328    
  76.291      90.978      104.81      116.26      124.49      129.33      130.92      129.33      124.49      116.26    
  104.81      90.978      76.291      62.328      49.808      39.095      30.320      23.430      18.256      14.565    
  12.125      10.745      8.9226      9.2928      10.436      12.447      15.476      19.704      25.314      32.442    
  41.125      51.249      62.508      74.375      86.099      96.626      104.82      109.96      111.70      109.96    
  104.82      96.626      86.099      74.375      62.508      51.249      41.125      32.442      25.314      19.704    
  15.476      12.447      10.436      9.2928      7.6362      7.9352      8.8551      10.464      12.870      16.206    
  20.608      26.174      32.927      40.773      49.464      58.585      67.555      75.668      82.175      86.399    
  87.864      86.399      82.175      75.668      67.555      58.585      49.464      40.773      32.927      26.174    
  20.608      16.206      12.870      10.464      8.8551      7.9352      6.5006      6.7360      7.4575      8.7105    
  10.567      13.119      16.456      20.647      25.702      31.546      37.990      44.722      51.311      57.243    
  61.982      65.048      66.109      65.048      61.982      57.243      51.311      44.722      37.990      31.546    
  25.702      20.647      16.456      13.119      10.567      8.7105      7.4575      6.7360      5.5600      5.7409    
  6.2931      7.2448      8.6411      10.538      12.994      16.048      19.702      23.899      28.502      33.287    
  37.950      42.132      45.460      47.608      48.351      47.608      45.460      42.132      37.950      33.287    
  28.502      23.899      19.702      16.048      12.994      10.538      8.6411      7.2448      6.2931      5.7409    
  4.8561      4.9910      5.4015      6.1044      7.1262      8.4995      10.256      12.416      14.976      17.891    
  21.066      24.349      27.533      30.378      32.635      34.089      34.591      34.089      32.635      30.378    
  27.533      24.349      21.066      17.891      14.976      12.416      10.256      8.4995      7.1262      6.1044    
  5.4015      4.9910      4.4292      4.5253      4.8172      5.3154      6.0354      6.9956      8.2119      9.6924    
  11.429      13.389      15.507      17.682      19.782      21.649      23.126      24.075      24.402      24.075    
  23.126      21.649      19.782      17.682      15.507      13.389      11.429      9.6924      8.2119      6.9956    
  6.0354      5.3154      4.8172      4.5253      4.3184      4.3814      4.5729      4.9004      5.3746      6.0066    
  6.8052      7.7727      8.9009      10.166      11.525      12.912      14.243      15.422      16.351      16.947    
  17.153      16.947      16.351      15.422      14.243      12.912      11.525      10.166      8.9009      7.7727    
  6.8052      6.0066      5.3746      4.9004      4.5729      4.3814      4.5790      4.6127      4.7161      4.8958    
  5.1613      5.5221      5.9860      6.5556      7.2260      7.9821      8.7963      9.6282      10.426      11.131    
  11.686      12.042      12.164      12.042      11.686      11.131      10.426      9.6282      8.7963      7.9821    
  7.2260      6.5556      5.9860      5.5221      5.1613      4.8958      4.7161      4.6127      5.3061      5.3115    
  5.3303      5.3702      5.4425      5.5597      5.7332      5.9705      6.2735      6.6362      7.0436      7.4722    
  7.8916      8.2672      8.5652      8.7568      8.8230      8.7568      8.5652      8.2672      7.8916      7.4722    
  7.0436      6.6362      6.2735      5.9705      5.7332      5.5597      5.4425      5.3702      5.3303      5.3115    
  6.6477      6.6216      6.5473      6.4362      6.3054      6.1748      6.0643      5.9906      5.9647      5.9906    
  6.0643      6.1748      6.3054      6.4362      6.5473      6.6216      6.6477      6.6216      6.5473      6.4362    
  6.3054      6.1748      6.0643      5.9906      5.9647      5.9906      6.0643      6.1748      6.3054      6.4362    
  6.5473      6.6216      8.8230      8.7568      8.5652      8.2672      7.8916      7.4722      7.0436      6.6362    