P                                       
   1.00000000000000     
     3.304660    0.000000    0.000000
     0.000000   11.316940    0.000000
     0.000000    0.000000    4.573270
   P 
     8
Direct
  0.000000  0.093570  0.087190
  0.000000  0.906430  0.912810
  0.000000  0.406430  0.587190
  0.000000  0.593570  0.412810
  0.500000  0.593570  0.087190
  0.500000  0.406430  0.912810
  0.500000  0.906430  0.587190
  0.500000  0.093570  0.412810
 
   32  100   40
 0.12199397690E+03 0.11960871919E+03 0.11279907875E+03 0.10250443579E+03 0.90006080238E+02
 0.76631227106E+02 0.63517427191E+02 0.51489072847E+02 0.41037897257E+02 0.32368135802E+02
 0.25468150572E+02 0.20185771079E+02 0.16297084083E+02 0.13563345725E+02 0.11772363514E+02
 0.10763332521E+02 0.10437940008E+02 0.10763332521E+02 0.11772363514E+02 0.13563345725E+02
 0.16297084083E+02 0.20185771079E+02 0.25468150572E+02 0.32368135802E+02 0.41037897257E+02
 0.51489072847E+02 0.63517427191E+02 0.76631227106E+02 0.90006080238E+02 0.10250443579E+03
 0.11279907875E+03 0.11960871919E+03 0.12418068350E+03 0.12173430259E+03 0.11475687954E+03
 0.10422716714E+03 0.91472232502E+02 0.77854663267E+02 0.64529215393E+02 0.52321868891E+02
 0.41718342124E+02 0.32916665994E+02 0.25902309334E+02 0.20523258493E+02 0.16556792444E+02
 0.13764625184E+02 0.11933733738E+02 0.10901724448E+02 0.10568858368E+02 0.10901724448E+02
 0.11933733738E+02 0.13764625184E+02 0.16556792444E+02 0.20523258493E+02 0.25902309334E+02
 0.32916665994E+02 0.41718342124E+02 0.52321868891E+02 0.64529215393E+02 0.77854663267E+02
 0.91472232502E+02 0.10422716714E+03 0.11475687954E+03 0.12173430259E+03 0.13036979775E+03
 0.12776730347E+03 0.12034625077E+03 0.10917572804E+03 0.95715893491E+02 0.81424238120E+02
 0.67501287436E+02 0.54778518278E+02 0.43728326234E+02 0.34535522305E+02 0.27180738766E+02
 0.21514193249E+02 0.17317026562E+02 0.14352000336E+02 0.12403246660E+02 0.11303434332E+02
 0.10948521404E+02 0.11303434332E+02 0.12403246660E+02 0.14352000336E+02 0.17317026562E+02
 0.21514193249E+02 0.27180738766E+02 0.34535522305E+02 0.43728326234E+02 0.54778518278E+02
 0.67501287436E+02 0.81424238120E+02 0.95715893491E+02 0.10917572804E+03 0.12034625077E+03
 0.12776730347E+03 0.13807424085E+03 0.13544933707E+03 0.12790746490E+03 0.11637844291E+03
 0.10221923343E+03 0.87015014966E+02 0.72222092376E+02 0.58715374084E+02 0.46960238916E+02
 0.37136186665E+02 0.29227554233E+02 0.23093745285E+02 0.18523392055E+02 0.15280186340E+02
 0.13142529856E+02 0.11934322223E+02 0.11544203601E+02 0.11934322223E+02 0.13142529856E+02
 0.15280186340E+02 0.18523392055E+02 0.23093745285E+02 0.29227554233E+02 0.37136186665E+02
 0.46960238916E+02 0.58715374084E+02 0.72222092376E+02 0.87015014966E+02 0.10221923343E+03
 0.11637844291E+03 0.12790746490E+03 0.13544933707E+03 0.14206255488E+03 0.13977020615E+03
 0.13308705785E+03 0.12257247089E+03 0.10910817964E+03 0.93870024131E+02 0.78299125169E+02
 0.63854452314E+02 0.51204200727E+02 0.40551256057E+02 0.31906182673E+02 0.25151027850E+02
 0.20087104156E+02 0.16478424616E+02 0.14094032908E+02 0.12744831706E+02 0.12309017217E+02
 0.12744831706E+02 0.14094032908E+02 0.16478424616E+02 0.20087104156E+02 0.25151027850E+02
 0.31906182673E+02 0.40551256057E+02 0.51204200727E+02 0.63854452314E+02 0.78299125169E+02
 0.93870024131E+02 0.10910817964E+03 0.12257247089E+03 0.13308705785E+03 0.13977020615E+03
 0.13769710460E+03 0.13622508023E+03 0.13174820230E+03 0.12415053469E+03 0.11344955419E+03
 0.10005312494E+03 0.84964680234E+02 0.69785866399E+02 0.56140428556E+02 0.44525729588E+02
 0.35012638526E+02 0.27524062911E+02 0.21880203621E+02 0.17844713858E+02 0.15173775121E+02
 0.13661506908E+02 0.13172960433E+02 0.13661506908E+02 0.15173775121E+02 0.17844713858E+02
 0.21880203621E+02 0.27524062911E+02 0.35012638526E+02 0.44525729588E+02 0.56140428556E+02
 0.69785866399E+02 0.84964680234E+02 0.10005312494E+03 0.11344955419E+03 0.12415053469E+03
 0.13174820230E+03 0.13622508023E+03 0.12345990061E+03 0.12329167336E+03 0.12235395234E+03
 0.11955134089E+03 0.11366252095E+03 0.10400178524E+03 0.90926629293E+02 0.75951994931E+02
 0.61364855301E+02 0.48727052836E+02 0.38278776166E+02 0.29999863975E+02 0.23733681048E+02
 0.19242347927E+02 0.16266553606E+02 0.14581275611E+02 0.14036865162E+02 0.14581275611E+02
 0.16266553606E+02 0.19242347927E+02 0.23733681048E+02 0.29999863975E+02 0.38278776166E+02
 0.48727052836E+02 0.61364855301E+02 0.75951994931E+02 0.90926629293E+02 0.10400178524E+03
 0.11366252095E+03 0.11955134089E+03 0.12235395234E+03 0.12329167336E+03 0.10265687422E+03
 0.10406460698E+03 0.10741406799E+03 0.11045775250E+03 0.11053455294E+03 0.10570636373E+03
 0.95597003513E+02 0.81603690340E+02 0.66425162371E+02 0.52765913610E+02 0.41385944858E+02
 0.32325305544E+02 0.25448097608E+02 0.20511703253E+02 0.17239369851E+02 0.15386198657E+02
 0.14787644077E+02 0.15386198657E+02 0.17239369851E+02 0.20511703253E+02 0.25448097608E+02
 0.32325305544E+02 0.41385944858E+02 0.52765913610E+02 0.66425162371E+02 0.81603690340E+02
 0.95597003513E+02 0.10570636373E+03 0.11053455294E+03 0.11045775250E+03 0.10741406799E+03
 0.10406460698E+03 0.82876216910E+02 0.85733452084E+02 0.93021559142E+02 0.10142724413E+03
 0.10697211975E+03 0.10659284393E+03 0.99274842024E+02 0.86332027232E+02 0.70815797441E+02
 0.56212878139E+02 0.43983890557E+02 0.34226401583E+02 0.26813170944E+02 0.21490644717E+02
 0.17962948889E+02 0.15965912566E+02 0.15321086035E+02 0.15965912566E+02 0.17962948889E+02
 0.21490644717E+02 0.26813170944E+02 0.34226401583E+02 0.43983890557E+02 0.56212878139E+02
 0.70815797441E+02 0.86332027232E+02 0.99274842024E+02 0.10659284393E+03 0.10697211975E+03
 0.10142724413E+03 0.93021559142E+02 0.85733452084E+02 0.72607063207E+02 0.76348462076E+02
 0.86023023277E+02 0.97630432577E+02 0.10635693435E+03 0.10844992928E+03 0.10253913223E+03
 0.89945781788E+02 0.73994092746E+02 0.58615382002E+02 0.45717333418E+02 0.35434806823E+02
 0.27630534431E+02 0.22032774456E+02 0.18326072606E+02 0.16229352997E+02 0.15552665893E+02
 0.16229352997E+02 0.18326072606E+02 0.22032774456E+02 0.27630534431E+02 0.35434806823E+02
 0.45717333418E+02 0.58615382002E+02 0.73994092746E+02 0.89945781788E+02 0.10253913223E+03
 0.10844992928E+03 0.10635693435E+03 0.97630432577E+02 0.86023023277E+02 0.76348462076E+02
 0.76651614332E+02 0.80438746533E+02 0.90200891261E+02 0.10181732454E+03 0.11035145684E+03
 0.11199441232E+03 0.10541934244E+03 0.92073851654E+02 0.75436397349E+02 0.59542736774E+02
 0.46272137689E+02 0.35726841613E+02 0.27743264243E+02 0.22027904000E+02 0.18248843645E+02
 0.16113432062E+02 0.15424653315E+02 0.16113432062E+02 0.18248843645E+02 0.22027904000E+02
 0.27743264243E+02 0.35726841613E+02 0.46272137689E+02 0.59542736774E+02 0.75436397349E+02
 0.92073851654E+02 0.10541934244E+03 0.11199441232E+03 0.11035145684E+03 0.10181732454E+03
 0.90200891261E+02 0.80438746533E+02 0.93310465184E+02 0.96326750251E+02 0.10394221624E+03
 0.11248056885E+03 0.11759384138E+03 0.11604864577E+03 0.10695514019E+03 0.91991655149E+02
 0.74647931571E+02 0.58675354202E+02 0.45442429318E+02 0.34972680510E+02 0.27071556853E+02
 0.21428195141E+02 0.17702684467E+02 0.15599693318E+02 0.14921720801E+02 0.15599693318E+02
 0.17702684467E+02 0.21428195141E+02 0.27071556853E+02 0.34972680510E+02 0.45442429318E+02
 0.58675354202E+02 0.74647931571E+02 0.91991655149E+02 0.10695514019E+03 0.11604864577E+03
 0.11759384138E+03 0.11248056885E+03 0.10394221624E+03 0.96326750251E+02 0.11518137896E+03
 0.11689769881E+03 0.12093002117E+03 0.12444371665E+03 0.12418275326E+03 0.11793563520E+03
 0.10551638552E+03 0.88874087232E+02 0.71350866913E+02 0.55909306231E+02 0.43194012619E+02
 0.33175162041E+02 0.25636964577E+02 0.20264019496E+02 0.16721711838E+02 0.14723606040E+02
 0.14079650687E+02 0.14723606040E+02 0.16721711838E+02 0.20264019496E+02 0.25636964577E+02
 0.33175162041E+02 0.43194012619E+02 0.55909306231E+02 0.71350866913E+02 0.88874087232E+02
 0.10551638552E+03 0.11793563520E+03 0.12418275326E+03 0.12444371665E+03 0.12093002117E+03
 0.11689769881E+03 0.13281828195E+03 0.13311203600E+03 0.13325448926E+03 0.13141364694E+03
 0.12562697140E+03 0.11487117094E+03 0.99730354412E+02 0.82361395623E+02 0.65713978781E+02
 0.51416470810E+02 0.39689010405E+02 0.30475669454E+02 0.23558209559E+02 0.18634226669E+02
 0.15389911730E+02 0.13560135525E+02 0.12970402587E+02 0.13560135525E+02 0.15389911730E+02
 0.18634226669E+02 0.23558209559E+02 0.30475669454E+02 0.39689010405E+02 0.51416470810E+02
 0.65713978781E+02 0.82361395623E+02 0.99730354412E+02 0.11487117094E+03 0.12562697140E+03
 0.13141364694E+03 0.13325448926E+03 0.13311203600E+03 0.13889702279E+03 0.13801382004E+03
 0.13498461373E+03 0.12892747393E+03 0.11909224156E+03 0.10553448505E+03 0.89466625445E+02
 0.73075724856E+02 0.58276543282E+02 0.45620024198E+02 0.35256179414E+02 0.27124521424E+02
 0.21023490750E+02 0.16680605580E+02 0.13817287795E+02 0.12200889445E+02 0.11679580559E+02
 0.12200889445E+02 0.13817287795E+02 0.16680605580E+02 0.21023490750E+02 0.27124521424E+02
 0.35256179414E+02 0.45620024198E+02 0.58276543282E+02 0.73075724856E+02 0.89466625445E+02
 0.10553448505E+03 0.11909224156E+03 0.12892747393E+03 0.13498461373E+03 0.13801382004E+03
 0.13091522954E+03 0.12933259624E+03 0.12449143397E+03 0.11625909093E+03 0.10481407797E+03
 0.90977568518E+02 0.76291180974E+02 0.62328216994E+02 0.49808185295E+02 0.39095456156E+02
 0.30319888211E+02 0.23430445967E+02 0.18255500931E+02 0.14564717477E+02 0.12125177282E+02
 0.10744586585E+02 0.10298633662E+02 0.10744586585E+02 0.12125177282E+02 0.14564717477E+02
 0.18255500931E+02 0.23430445967E+02 0.30319888211E+02 0.39095456156E+02 0.49808185295E+02
 0.62328216994E+02 0.76291180974E+02 0.90977568518E+02 0.10481407797E+03 0.11625909093E+03
 0.12449143397E+03 0.12933259624E+03 0.11170074415E+03 0.10995725050E+03 0.10481918615E+03
 0.96626314945E+02 0.86099027028E+02 0.74374542868E+02 0.62507715792E+02 0.51248999613E+02
 0.41125165176E+02 0.32442435522E+02 0.25314240821E+02 0.19703926658E+02 0.15475715588E+02
 0.12447254756E+02 0.10435932695E+02 0.92928073001E+01 0.89226133561E+01 0.92928073001E+01
 0.10435932695E+02 0.12447254756E+02 0.15475715588E+02 0.19703926658E+02 0.25314240821E+02
 0.32442435522E+02 0.41125165176E+02 0.51248999613E+02 0.62507715792E+02 0.74374542868E+02
 0.86099027028E+02 0.96626314945E+02 0.10481918615E+03 0.10995725050E+03 0.87863527870E+02
 0.86398605903E+02 0.82174762533E+02 0.75667708389E+02 0.67554530401E+02 0.58584902183E+02
 0.49464191066E+02 0.40772833165E+02 0.32927047845E+02 0.26173506324E+02 0.20607528022E+02
 0.16206283688E+02 0.12870027480E+02 0.10464169132E+02 0.88551071448E+01 0.79351688073E+01
 0.76362297574E+01 0.79351688073E+01 0.88551071448E+01 0.10464169132E+02 0.12870027480E+02
 0.16206283688E+02 0.20607528022E+02 0.26173506324E+02 0.32927047845E+02 0.40772833165E+02
 0.49464191066E+02 0.58584902183E+02 0.67554530401E+02 0.75667708389E+02 0.82174762533E+02
 0.86398605903E+02 0.66109455481E+02 0.65047737006E+02 0.61981709432E+02 0.57243489167E+02
 0.51311199740E+02 0.44722138093E+02 0.37990396643E+02 0.31546022693E+02 0.25701956741E+02
 0.20646576661E+02 0.16455864601E+02 0.13118503369E+02 0.10567302731E+02 0.87105097467E+01
 0.74575296718E+01 0.67360239609E+01 0.65006267913E+01 0.67360239609E+01 0.74575296718E+01
 0.87105097467E+01 0.10567302731E+02 0.13118503369E+02 0.16455864601E+02 0.20646576661E+02
 0.25701956741E+02 0.31546022693E+02 0.37990396643E+02 0.44722138093E+02 0.51311199740E+02
 0.57243489167E+02 0.61981709432E+02 0.65047737006E+02 0.48350619732E+02 0.47607808093E+02
 0.45459749712E+02 0.42131583476E+02 0.37950237791E+02 0.33287213673E+02 0.28502188184E+02
 0.23899353803E+02 0.19702350681E+02 0.16047829753E+02 0.12993942391E+02 0.10538467469E+02
 0.86410740567E+01 0.72447991190E+01 0.62931158590E+01 0.57409369055E+01 0.55600475026E+01
 0.57409369055E+01 0.62931158590E+01 0.72447991190E+01 0.86410740567E+01 0.10538467469E+02
 0.12993942391E+02 0.16047829753E+02 0.19702350681E+02 0.23899353803E+02 0.28502188184E+02
 0.33287213673E+02 0.37950237791E+02 0.42131583476E+02 0.45459749712E+02 0.47607808093E+02
 0.34591225259E+02 0.34089049728E+02 0.32635228492E+02 0.30377858586E+02 0.27533217233E+02
 0.24348821833E+02 0.21066113577E+02 0.17890849694E+02 0.14975795284E+02 0.12416270829E+02
 0.10256032984E+02 0.84994912497E+01 0.71262019240E+01 0.61043932032E+01 0.54015002362E+01
 0.49910154533E+01 0.48560964353E+01 0.49910154533E+01 0.54015002362E+01 0.61043932032E+01
 0.71262019240E+01 0.84994912497E+01 0.10256032984E+02 0.12416270829E+02 0.14975795284E+02
 0.17890849694E+02 0.21066113577E+02 0.24348821833E+02 0.27533217233E+02 0.30377858586E+02
 0.32635228492E+02 0.34089049728E+02 0.24402433641E+02 0.24074957592E+02 0.23125827771E+02
 0.21648833611E+02 0.19781547775E+02 0.17682341715E+02 0.15506796563E+02 0.13388716837E+02
 0.11428932913E+02 0.96924054400E+01 0.82119196914E+01 0.69955832019E+01 0.60354430690E+01
 0.53153548705E+01 0.48172010556E+01 0.45252968968E+01 0.44292090074E+01 0.45252968968E+01
 0.48172010556E+01 0.53153548705E+01 0.60354430690E+01 0.69955832019E+01 0.82119196914E+01
 0.96924054400E+01 0.11428932913E+02 0.13388716837E+02 0.15506796563E+02 0.17682341715E+02
 0.19781547775E+02 0.21648833611E+02 0.23125827771E+02 0.24074957592E+02 0.17152513595E+02
 0.16947226181E+02 0.16351492788E+02 0.15422173529E+02 0.14243140226E+02 0.12911727184E+02
 0.11524577228E+02 0.10166003028E+02 0.89009074488E+01 0.77726943290E+01 0.68051538241E+01
 0.60065895851E+01 0.53745821886E+01 0.49004204229E+01 0.45728827165E+01 0.43813788523E+01
 0.43184397918E+01 0.43813788523E+01 0.45728827165E+01 0.49004204229E+01 0.53745821886E+01
 0.60065895851E+01 0.68051538241E+01 0.77726943290E+01 0.89009074488E+01 0.10166003028E+02
 0.11524577228E+02 0.12911727184E+02 0.14243140226E+02 0.15422173529E+02 0.16351492788E+02
 0.16947226181E+02 0.12164183235E+02 0.12041830475E+02 0.11686495258E+02 0.11131418962E+02
 0.10426000083E+02 0.96281860868E+01 0.87963045476E+01 0.79820640304E+01 0.72259704491E+01
 0.65555573485E+01 0.59859906359E+01 0.55221449342E+01 0.51612840929E+01 0.48958322871E+01
 0.47160680719E+01 0.46126829031E+01 0.45790245429E+01 0.46126829031E+01 0.47160680719E+01
 0.48958322871E+01 0.51612840929E+01 0.55221449342E+01 0.59859906359E+01 0.65555573485E+01
 0.72259704491E+01 0.79820640304E+01 0.87963045476E+01 0.96281860868E+01 0.10426000083E+02
 0.11131418962E+02 0.11686495258E+02 0.12041830475E+02 0.88229786486E+01 0.87568455231E+01
 0.85651907583E+01 0.82672016403E+01 0.78915682377E+01 0.74722190025E+01 0.70435656262E+01
 0.66361651706E+01 0.62735404862E+01 0.59705373803E+01 0.57331862018E+01 0.55597473719E+01
 0.54425389610E+01 0.53702165649E+01 0.53302670629E+01 0.53114866448E+01 0.53061452800E+01
 0.53114866448E+01 0.53302670629E+01 0.53702165649E+01 0.54425389610E+01 0.55597473719E+01
 0.57331862018E+01 0.59705373803E+01 0.62735404862E+01 0.66361651706E+01 0.70435656262E+01
 0.74722190025E+01 0.78915682377E+01 0.82672016403E+01 0.85651907583E+01 0.87568455231E+01
 0.66477381014E+01 0.66216212458E+01 0.65472980716E+01 0.64362079542E+01 0.63053885843E+01
 0.61748089198E+01 0.60642975022E+01 0.59905530278E+01 0.59646758775E+01 0.59905530278E+01
 0.60642975022E+01 0.61748089198E+01 0.63053885843E+01 0.64362079542E+01 0.65472980716E+01
 0.66216212458E+01 0.66477381014E+01 0.66216212458E+01 0.65472980716E+01 0.64362079542E+01
 0.63053885843E+01 0.61748089198E+01 0.60642975022E+01 0.59905530278E+01 0.59646758775E+01
 0.59905530278E+01 0.60642975022E+01 0.61748089198E+01 0.63053885843E+01 0.64362079542E+01
 0.65472980716E+01 0.66216212458E+01 0.53061452800E+01 0.53114866448E+01 0.53302670629E+01
 0.53702165649E+01 0.54425389610E+01 0.55597473719E+01 0.57331862018E+01 0.59705373803E+01
 0.62735404862E+01 0.66361651706E+01 0.70435656262E+01 0.74722190025E+01 0.78915682377E+01
 0.82672016403E+01 0.85651907583E+01 0.87568455231E+01 0.88229786486E+01 0.87568455231E+01
 0.85651907583E+01 0.82672016403E+01 0.78915682377E+01 0.74722190025E+01 0.70435656262E+01
 0.66361651706E+01 0.62735404862E+01 0.59705373803E+01 0.57331862018E+01 0.55597473719E+01
 0.54425389610E+01 0.53702165649E+01 0.53302670629E+01 0.53114866448E+01 0.45790245429E+01
 0.46126829031E+01 0.47160680719E+01 0.48958322871E+01 0.51612840929E+01 0.55221449342E+01
 0.59859906359E+01 0.65555573485E+01 0.72259704491E+01 0.79820640304E+01 0.87963045476E+01
 0.96281860868E+01 0.10426000083E+02 0.11131418962E+02 0.11686495258E+02 0.12041830475E+02
 0.12164183235E+02 0.12041830475E+02 0.11686495258E+02 0.11131418962E+02 0.10426000083E+02
 0.96281860868E+01 0.87963045476E+01 0.79820640304E+01 0.72259704491E+01 0.65555573485E+01
 0.59859906359E+01 0.55221449342E+01 0.51612840929E+01 0.48958322871E+01 0.47160680719E+01
 0.46126829031E+01 0.43184397918E+01 0.43813788523E+01 0.45728827165E+01 0.49004204229E+01
 0.53745821886E+01 0.60065895851E+01 0.68051538241E+01 0.77726943290E+01 0.89009074488E+01
 0.10166003028E+02 0.11524577228E+02 0.12911727184E+02 0.14243140226E+02 0.15422173529E+02
 0.16351492788E+02 0.16947226181E+02 0.17152513595E+02 0.16947226181E+02 0.16351492788E+02
 0.15422173529E+02 0.14243140226E+02 0.12911727184E+02 0.11524577228E+02 0.10166003028E+02
 0.89009074488E+01 0.77726943290E+01 0.68051538241E+01 0.60065895851E+01 0.53745821886E+01
 0.49004204229E+01 0.45728827165E+01 0.43813788523E+01 0.44292090074E+01 0.45252968968E+01
 0.48172010556E+01 0.53153548705E+01 0.60354430690E+01 0.69955832019E+01 0.82119196914E+01
 0.96924054400E+01 0.11428932913E+02 0.13388716837E+02 0.15506796563E+02 0.17682341715E+02
 0.19781547775E+02 0.21648833611E+02 0.23125827771E+02 0.24074957592E+02 0.24402433641E+02
 0.24074957592E+02 0.23125827771E+02 0.21648833611E+02 0.19781547775E+02 0.17682341715E+02
 0.15506796563E+02 0.13388716837E+02 0.11428932913E+02 0.96924054400E+01 0.82119196914E+01
 0.69955832019E+01 0.60354430690E+01 0.53153548705E+01 0.48172010556E+01 0.45252968968E+01
 0.48560964353E+01 0.49910154533E+01 0.54015002362E+01 0.61043932032E+01 0.71262019240E+01
 0.84994912497E+01 0.10256032984E+02 0.12416270829E+02 0.14975795284E+02 0.17890849694E+02
 0.21066113577E+02 0.24348821833E+02 0.27533217233E+02 0.30377858586E+02 0.32635228492E+02
 0.34089049728E+02 0.34591225259E+02 0.34089049728E+02 0.32635228492E+02 0.30377858586E+02
 0.27533217233E+02 0.24348821833E+02 0.21066113577E+02 0.17890849694E+02 0.14975795284E+02
 0.12416270829E+02 0.10256032984E+02 0.84994912497E+01 0.71262019240E+01 0.61043932032E+01
 0.54015002362E+01 0.49910154533E+01 0.55600475026E+01 0.57409369055E+01 0.62931158590E+01
 0.72447991190E+01 0.86410740567E+01 0.10538467469E+02 0.12993942391E+02 0.16047829753E+02
 0.19702350681E+02 0.23899353803E+02 0.28502188184E+02 0.33287213673E+02 0.37950237791E+02
 0.42131583476E+02 0.45459749712E+02 0.47607808093E+02 0.48350619732E+02 0.47607808093E+02
 0.45459749712E+02 0.42131583476E+02 0.37950237791E+02 0.33287213673E+02 0.28502188184E+02
 0.23899353803E+02 0.19702350681E+02 0.16047829753E+02 0.12993942391E+02 0.10538467469E+02
 0.86410740567E+01 0.72447991190E+01 0.62931158590E+01 0.57409369055E+01 0.65006267913E+01
 0.67360239609E+01 0.74575296718E+01 0.87105097467E+01 0.10567302731E+02 0.13118503369E+02
 0.16455864601E+02 0.20646576661E+02 0.25701956741E+02 0.31546022693E+02 0.37990396643E+02
 0.44722138093E+02 0.51311199740E+02 0.57243489167E+02 0.61981709432E+02 0.65047737006E+02
 0.66109455481E+02 0.65047737006E+02 0.61981709432E+02 0.57243489167E+02 0.51311199740E+02
 0.44722138093E+02 0.37990396643E+02 0.31546022693E+02 0.25701956741E+02 0.20646576661E+02
 0.16455864601E+02 0.13118503369E+02 0.10567302731E+02 0.87105097467E+01 0.74575296718E+01
 0.67360239609E+01 0.76362297574E+01 0.79351688073E+01 0.88551071448E+01 0.10464169132E+02
 0.12870027480E+02 0.16206283688E+02 0.20607528022E+02 0.26173506324E+02 0.32927047845E+02
 0.40772833165E+02 0.49464191066E+02 0.58584902183E+02 0.67554530401E+02 0.75667708389E+02
 0.82174762533E+02 0.86398605903E+02 0.87863527870E+02 0.86398605903E+02 0.82174762533E+02
 0.75667708389E+02 0.67554530401E+02 0.58584902183E+02 0.49464191066E+02 0.40772833165E+02
 0.32927047845E+02 0.26173506324E+02 0.20607528022E+02 0.16206283688E+02 0.12870027480E+02
 0.10464169132E+02 0.88551071448E+01 0.79351688073E+01 0.89226133561E+01 0.92928073001E+01
 0.10435932695E+02 0.12447254756E+02 0.15475715588E+02 0.19703926658E+02 0.25314240821E+02
 0.32442435522E+02 0.41125165176E+02 0.51248999613E+02 0.62507715792E+02 0.74374542868E+02
 0.86099027028E+02 0.96626314945E+02 0.10481918615E+03 0.10995725050E+03 0.11170074415E+03
 0.10995725050E+03 0.10481918615E+03 0.96626314945E+02 0.86099027028E+02 0.74374542868E+02
 0.62507715792E+02 0.51248999613E+02 0.41125165176E+02 0.32442435522E+02 0.25314240821E+02
 0.19703926658E+02 0.15475715588E+02 0.12447254756E+02 0.10435932695E+02 0.92928073001E+01
 0.10298633662E+02 0.10744586585E+02 0.12125177282E+02 0.14564717477E+02 0.18255500931E+02
 0.23430445967E+02 0.30319888211E+02 0.39095456156E+02 0.49808185295E+02 0.62328216994E+02
 0.76291180974E+02 0.90977568518E+02 0.10481407797E+03 0.11625909093E+03 0.12449143397E+03
 0.12933259624E+03 0.13091522954E+03 0.12933259624E+03 0.12449143397E+03 0.11625909093E+03
 0.10481407797E+03 0.90977568518E+02 0.76291180974E+02 0.62328216994E+02 0.49808185295E+02
 0.39095456156E+02 0.30319888211E+02 0.23430445967E+02 0.18255500931E+02 0.14564717477E+02
 0.12125177282E+02 0.10744586585E+02 0.11679580559E+02 0.12200889445E+02 0.13817287795E+02
 0.16680605580E+02 0.21023490750E+02 0.27124521424E+02 0.35256179414E+02 0.45620024198E+02
 0.58276543282E+02 0.73075724856E+02 0.89466625445E+02 0.10553448505E+03 0.11909224156E+03
 0.12892747393E+03 0.13498461373E+03 0.13801382004E+03 0.13889702279E+03 0.13801382004E+03
 0.13498461373E+03 0.12892747393E+03 0.11909224156E+03 0.10553448505E+03 0.89466625445E+02
 0.73075724856E+02 0.58276543282E+02 0.45620024198E+02 0.35256179414E+02 0.27124521424E+02
 0.21023490750E+02 0.16680605580E+02 0.13817287795E+02 0.12200889445E+02 0.12970402587E+02
 0.13560135525E+02 0.15389911730E+02 0.18634226669E+02 0.23558209559E+02 0.30475669454E+02
 0.39689010405E+02 0.51416470810E+02 0.65713978781E+02 0.82361395623E+02 0.99730354412E+02
 0.11487117094E+03 0.12562697140E+03 0.13141364694E+03 0.13325448926E+03 0.13311203600E+03
 0.13281828195E+03 0.13311203600E+03 0.13325448926E+03 0.13141364694E+03 0.12562697140E+03
 0.11487117094E+03 0.99730354412E+02 0.82361395623E+02 0.65713978781E+02 0.51416470810E+02
 0.39689010405E+02 0.30475669454E+02 0.23558209559E+02 0.18634226669E+02 0.15389911730E+02
 0.13560135525E+02 0.14079650687E+02 0.14723606040E+02 0.16721711838E+02 0.20264019496E+02
 0.25636964577E+02 0.33175162041E+02 0.43194012619E+02 0.55909306231E+02 0.71350866913E+02
 0.88874087232E+02 0.10551638552E+03 0.11793563520E+03 0.12418275326E+03 0.12444371665E+03
 0.12093002117E+03 0.11689769881E+03 0.11518137896E+03 0.11689769881E+03 0.12093002117E+03
 0.12444371665E+03 0.12418275326E+03 0.11793563520E+03 0.10551638552E+03 0.88874087232E+02
 0.71350866913E+02 0.55909306231E+02 0.43194012619E+02 0.33175162041E+02 0.25636964577E+02
 0.20264019496E+02 0.16721711838E+02 0.14723606040E+02 0.14921720801E+02 0.15599693318E+02
 0.17702684467E+02 0.21428195141E+02 0.27071556853E+02 0.34972680510E+02 0.45442429318E+02
 0.58675354202E+02 0.74647931571E+02 0.91991655149E+02 0.10695514019E+03 0.11604864577E+03
 0.11759384138E+03 0.11248056885E+03 0.10394221624E+03 0.96326750251E+02 0.93310465184E+02
 0.96326750251E+02 0.10394221624E+03 0.11248056885E+03 0.11759384138E+03 0.11604864577E+03
 0.10695514019E+03 0.91991655149E+02 0.74647931571E+02 0.58675354202E+02 0.45442429318E+02
 0.34972680510E+02 0.27071556853E+02 0.21428195141E+02 0.17702684467E+02 0.15599693318E+02
 0.15424653315E+02 0.16113432062E+02 0.18248843645E+02 0.22027904000E+02 0.27743264243E+02
 0.35726841613E+02 0.46272137689E+02 0.59542736774E+02 0.75436397349E+02 0.92073851654E+02
 0.10541934244E+03 0.11199441232E+03 0.11035145684E+03 0.10181732454E+03 0.90200891261E+02
 0.80438746533E+02 0.76651614332E+02 0.80438746533E+02 0.90200891261E+02 0.10181732454E+03
 0.11035145684E+03 0.11199441232E+03 0.10541934244E+03 0.92073851654E+02 0.75436397349E+02
 0.59542736774E+02 0.46272137689E+02 0.35726841613E+02 0.27743264243E+02 0.22027904000E+02
 0.18248843645E+02 0.16113432062E+02 0.15552665893E+02 0.16229352997E+02 0.18326072606E+02
 0.22032774456E+02 0.27630534431E+02 0.35434806823E+02 0.45717333418E+02 0.58615382002E+02
 0.73994092746E+02 0.89945781788E+02 0.10253913223E+03 0.10844992928E+03 0.10635693435E+03
 0.97630432577E+02 0.86023023277E+02 0.76348462076E+02 0.72607063207E+02 0.76348462076E+02
 0.86023023277E+02 0.97630432577E+02 0.10635693435E+03 0.10844992928E+03 0.10253913223E+03
 0.89945781788E+02 0.73994092746E+02 0.58615382002E+02 0.45717333418E+02 0.35434806823E+02
 0.27630534431E+02 0.22032774456E+02 0.18326072606E+02 0.16229352997E+02 0.15321086035E+02
 0.15965912566E+02 0.17962948889E+02 0.21490644717E+02 0.26813170944E+02 0.34226401583E+02
 0.43983890557E+02 0.56212878139E+02 0.70815797441E+02 0.86332027232E+02 0.99274842024E+02
 0.10659284393E+03 0.10697211975E+03 0.10142724413E+03 0.93021559142E+02 0.85733452084E+02
 0.82876216910E+02 0.85733452084E+02 0.93021559142E+02 0.10142724413E+03 0.10697211975E+03
 0.10659284393E+03 0.99274842024E+02 0.86332027232E+02 0.70815797441E+02 0.56212878139E+02
 0.43983890557E+02 0.34226401583E+02 0.26813170944E+02 0.21490644717E+02 0.17962948889E+02
 0.15965912566E+02 0.14787644077E+02 0.15386198657E+02 0.17239369851E+02 0.20511703253E+02
 0.25448097608E+02 0.32325305544E+02 0.41385944858E+02 0.52765913610E+02 0.66425162371E+02
 0.81603690340E+02 0.95597003513E+02 0.10570636373E+03 0.11053455294E+03 0.11045775250E+03
 0.10741406799E+03 0.10406460698E+03 0.10265687422E+03 0.10406460698E+03 0.10741406799E+03
 0.11045775250E+03 0.11053455294E+03 0.10570636373E+03 0.95597003513E+02 0.81603690340E+02
 0.66425162371E+02 0.52765913610E+02 0.41385944858E+02 0.32325305544E+02 0.25448097608E+02
 0.20511703253E+02 0.17239369851E+02 0.15386198657E+02 0.14036865162E+02 0.14581275611E+02
 0.16266553606E+02 0.19242347927E+02 0.23733681048E+02 0.29999863975E+02 0.38278776166E+02
 0.48727052836E+02 0.61364855301E+02 0.75951994931E+02 0.90926629293E+02 0.10400178524E+03
 0.11366252095E+03 0.11955134089E+03 0.12235395234E+03 0.12329167336E+03 0.12345990061E+03
 0.12329167336E+03 0.12235395234E+03 0.11955134089E+03 0.11366252095E+03 0.10400178524E+03
 0.90926629293E+02 0.75951994931E+02 0.61364855301E+02 0.48727052836E+02 0.38278776166E+02
 0.29999863975E+02 0.23733681048E+02 0.19242347927E+02 0.16266553606E+02 0.14581275611E+02
 0.13172960433E+02 0.13661506908E+02 0.15173775121E+02 0.17844713858E+02 0.21880203621E+02
 0.27524062911E+02 0.35012638526E+02 0.44525729588E+02 0.56140428556E+02 0.69785866399E+02
 0.84964680234E+02 0.10005312494E+03 0.11344955419E+03 0.12415053469E+03 0.13174820230E+03
 0.13622508023E+03 0.13769710460E+03 0.13622508023E+03 0.13174820230E+03 0.12415053469E+03
 0.11344955419E+03 0.10005312494E+03 0.84964680234E+02 0.69785866399E+02 0.56140428556E+02
 0.44525729588E+02 0.35012638526E+02 0.27524062911E+02 0.21880203621E+02 0.17844713858E+02
 0.15173775121E+02 0.13661506908E+02 0.12309017217E+02 0.12744831706E+02 0.14094032908E+02
 0.16478424616E+02 0.20087104156E+02 0.25151027850E+02 0.31906182673E+02 0.40551256057E+02
 0.51204200727E+02 0.63854452314E+02 0.78299125169E+02 0.93870024131E+02 0.10910817964E+03
 0.12257247089E+03 0.13308705785E+03 0.13977020615E+03 0.14206255488E+03 0.13977020615E+03
 0.13308705785E+03 0.12257247089E+03 0.10910817964E+03 0.93870024131E+02 0.78299125169E+02
 0.63854452314E+02 0.51204200727E+02 0.40551256057E+02 0.31906182673E+02 0.25151027850E+02
 0.20087104156E+02 0.16478424616E+02 0.14094032908E+02 0.12744831706E+02 0.11544203601E+02
 0.11934322223E+02 0.13142529856E+02 0.15280186340E+02 0.18523392055E+02 0.23093745285E+02
 0.29227554233E+02 0.37136186665E+02 0.46960238916E+02 0.58715374084E+02 0.72222092376E+02
 0.87015014966E+02 0.10221923343E+03 0.11637844291E+03 0.12790746490E+03 0.13544933707E+03
 0.13807424085E+03 0.13544933707E+03 0.12790746490E+03 0.11637844291E+03 0.10221923343E+03
 0.87015014966E+02 0.72222092376E+02 0.58715374084E+02 0.46960238916E+02 0.37136186665E+02
 0.29227554233E+02 0.23093745285E+02 0.18523392055E+02 0.15280186340E+02 0.13142529856E+02
 0.11934322223E+02 0.10948521404E+02 0.11303434332E+02 0.12403246660E+02 0.14352000336E+02
 0.17317026562E+02 0.21514193249E+02 0.27180738766E+02 0.34535522305E+02 0.43728326234E+02
 0.54778518278E+02 0.67501287436E+02 0.81424238120E+02 0.95715893491E+02 0.10917572804E+03
 0.12034625077E+03 0.12776730347E+03 0.13036979775E+03 0.12776730347E+03 0.12034625077E+03
 0.10917572804E+03 0.95715893491E+02 0.81424238120E+02 0.67501287436E+02 0.54778518278E+02
 0.43728326234E+02 0.34535522305E+02 0.27180738766E+02 0.21514193249E+02 0.17317026562E+02
 0.14352000336E+02 0.12403246660E+02 0.11303434332E+02 0.10568858368E+02 0.10901724448E+02
 0.11933733738E+02 0.13764625184E+02 0.16556792444E+02 0.20523258493E+02 0.25902309334E+02
 0.32916665994E+02 0.41718342124E+02 0.52321868891E+02 0.64529215393E+02 0.77854663267E+02
 0.91472232502E+02 0.10422716714E+03 0.11475687954E+03 0.12173430259E+03 0.12418068350E+03
 0.12173430259E+03 0.11475687954E+03 0.10422716714E+03 0.91472232502E+02 0.77854663267E+02
 0.64529215393E+02 0.52321868891E+02 0.41718342124E+02 0.32916665994E+02 0.25902309334E+02
 0.20523258493E+02 0.16556792444E+02 0.13764625184E+02 0.11933733738E+02 0.10901724448E+02
 0.10437940008E+02 0.10763332521E+02 0.11772363514E+02 0.13563345725E+02 0.16297084083E+02
 0.20185771079E+02 0.25468150572E+02 0.32368135802E+02 0.41037897257E+02 0.51489072847E+02
 0.63517427191E+02 0.76631227106E+02 0.90006080238E+02 0.10250443579E+03 0.11279907875E+03
 0.11960871919E+03 0.12199397690E+03 0.11960871919E+03 0.11279907875E+03 0.10250443579E+03