   8   8   0   0
  0.2137926E+02  0.3304660E-09  0.1131694E-08  0.4573270E-09  0.5000000E-15
  1.000000000000000E-004
  CAR 
 P                                       
     19.42007007    -11.60283734  301      5.36751398      1.00000000
    -11.603  0.0000E+00  0.0000E+00
    -11.499  0.0000E+00  0.0000E+00
    -11.396  0.0000E+00  0.0000E+00
    -11.293  0.0000E+00  0.0000E+00
    -11.189  0.0000E+00  0.0000E+00
    -11.086  0.0000E+00  0.0000E+00
    -10.982  0.0000E+00  0.0000E+00
    -10.879  0.0000E+00  0.0000E+00
    -10.776  0.0000E+00  0.0000E+00
    -10.672  0.0000E+00  0.0000E+00
    -10.569  0.0000E+00  0.0000E+00
    -10.465  0.2137E-15  0.2210E-16
    -10.362  0.3666E-07  0.3791E-08
    -10.259  0.2192E-02  0.2267E-03
    -10.155  0.2345E+00  0.2447E-01
    -10.052  0.1276E+01  0.1564E+00
     -9.948  0.1694E+01  0.3315E+00
     -9.845  0.1333E+01  0.4694E+00
     -9.741  0.2184E+01  0.6953E+00
     -9.638  0.1569E+01  0.8575E+00
     -9.535  0.1458E+01  0.1008E+01
     -9.431  0.1556E+01  0.1169E+01
     -9.328  0.1875E+01  0.1363E+01
     -9.224  0.2746E+01  0.1647E+01
     -9.121  0.9649E+00  0.1747E+01
     -9.018  0.1387E+01  0.1890E+01
     -8.914  0.2039E+01  0.2101E+01
     -8.811  0.1950E+01  0.2303E+01
     -8.707  0.1910E+01  0.2500E+01
     -8.604  0.2898E+01  0.2800E+01
     -8.501  0.1598E+01  0.2965E+01
     -8.397  0.6393E+00  0.3031E+01
     -8.294  0.3177E+01  0.3360E+01
     -8.190  0.1293E+01  0.3493E+01
     -8.087  0.2358E+01  0.3737E+01
     -7.983  0.3838E+01  0.4134E+01
     -7.880  0.2134E+01  0.4355E+01
     -7.777  0.2538E+01  0.4617E+01
     -7.673  0.3463E+01  0.4976E+01
     -7.570  0.2148E+01  0.5198E+01
     -7.466  0.3033E+01  0.5511E+01
     -7.363  0.2079E+01  0.5726E+01
     -7.260  0.3526E+01  0.6091E+01
     -7.156  0.3209E+01  0.6423E+01
     -7.053  0.2535E+01  0.6685E+01
     -6.949  0.3127E+01  0.7008E+01
     -6.846  0.1959E+01  0.7211E+01
     -6.743  0.1186E+01  0.7334E+01
     -6.639  0.1133E+01  0.7451E+01
     -6.536  0.1605E+01  0.7617E+01
     -6.432  0.2174E+01  0.7842E+01
     -6.329  0.1020E+01  0.7947E+01
     -6.226  0.3930E+00  0.7988E+01
     -6.122  0.1182E+00  0.8000E+01
     -6.019  0.1532E-02  0.8000E+01
     -5.915  0.1780E-07  0.8000E+01
     -5.812  0.8415E-06  0.8000E+01
     -5.708  0.1175E-01  0.8001E+01
     -5.605  0.5571E+00  0.8059E+01
     -5.502  0.1658E+01  0.8230E+01
     -5.398  0.1757E+01  0.8412E+01
     -5.295  0.1303E+01  0.8547E+01
     -5.191  0.1176E+01  0.8668E+01
     -5.088  0.7965E+00  0.8751E+01
     -4.985  0.1469E+01  0.8903E+01
     -4.881  0.3033E+01  0.9216E+01
     -4.778  0.3277E+01  0.9555E+01
     -4.674  0.3027E+01  0.9868E+01
     -4.571  0.2789E+01  0.1016E+02
     -4.468  0.2236E+01  0.1039E+02
     -4.364  0.4475E+01  0.1085E+02
     -4.261  0.6422E+01  0.1151E+02
     -4.157  0.2209E+01  0.1174E+02
     -4.054  0.2465E+01  0.1200E+02
     -3.951  0.2205E+01  0.1223E+02
     -3.847  0.2163E+01  0.1245E+02
     -3.744  0.1970E+01  0.1265E+02
     -3.640  0.2368E+01  0.1290E+02
     -3.537  0.2437E+01  0.1315E+02
     -3.433  0.1419E+01  0.1330E+02
     -3.330  0.8247E+00  0.1338E+02
     -3.227  0.1343E+01  0.1352E+02
     -3.123  0.1481E+01  0.1367E+02
     -3.020  0.9653E+00  0.1377E+02
     -2.916  0.1206E+01  0.1390E+02
     -2.813  0.9779E+00  0.1400E+02
     -2.710  0.1153E+01  0.1412E+02
     -2.606  0.1844E+01  0.1431E+02
     -2.503  0.1719E+01  0.1449E+02
     -2.399  0.1235E+01  0.1462E+02
     -2.296  0.3288E+00  0.1465E+02
     -2.193  0.1066E+01  0.1476E+02
     -2.089  0.1202E+01  0.1488E+02
     -1.986  0.8481E+00  0.1497E+02
     -1.882  0.5287E+00  0.1503E+02
     -1.779  0.5696E+00  0.1508E+02
     -1.676  0.5666E+00  0.1514E+02
     -1.572  0.8436E+00  0.1523E+02
     -1.469  0.1736E+01  0.1541E+02
     -1.365  0.1131E+01  0.1553E+02
     -1.262  0.5238E+00  0.1558E+02
     -1.158  0.1434E+01  0.1573E+02
     -1.055  0.2107E+01  0.1595E+02
     -0.952  0.3632E+01  0.1632E+02
     -0.848  0.3664E+01  0.1670E+02
     -0.745  0.4042E+01  0.1712E+02
     -0.641  0.4345E+01  0.1757E+02
     -0.538  0.3445E+01  0.1793E+02
     -0.435  0.3738E+01  0.1831E+02
     -0.331  0.4071E+01  0.1873E+02
     -0.228  0.3975E+01  0.1914E+02
     -0.124  0.7679E+01  0.1994E+02
     -0.021  0.6960E+01  0.2066E+02
      0.082  0.5400E+01  0.2122E+02
      0.186  0.4682E+01  0.2170E+02
      0.289  0.3012E+01  0.2201E+02
      0.393  0.2321E+01  0.2225E+02
      0.496  0.2160E+01  0.2248E+02
      0.600  0.3014E+01  0.2279E+02
      0.703  0.4049E+01  0.2321E+02
      0.806  0.3503E+01  0.2357E+02
      0.910  0.2488E+01  0.2383E+02
      1.013  0.3567E+01  0.2419E+02
      1.117  0.3743E+01  0.2458E+02
      1.220  0.4353E+01  0.2503E+02
      1.323  0.5020E+01  0.2555E+02
      1.427  0.5708E+01  0.2614E+02
      1.530  0.6306E+01  0.2679E+02
      1.634  0.5702E+01  0.2738E+02
      1.737  0.6058E+01  0.2801E+02
      1.840  0.7304E+01  0.2876E+02
      1.944  0.6097E+01  0.2939E+02
      2.047  0.4401E+01  0.2985E+02
      2.151  0.4603E+01  0.3033E+02
      2.254  0.2578E+01  0.3059E+02
      2.357  0.2693E+01  0.3087E+02
      2.461  0.2721E+01  0.3115E+02
      2.564  0.4316E+01  0.3160E+02
      2.668  0.3478E+01  0.3196E+02
      2.771  0.3042E+01  0.3227E+02
      2.875  0.3111E+01  0.3259E+02
      2.978  0.4248E+01  0.3303E+02
      3.081  0.5524E+01  0.3361E+02
      3.185  0.4899E+01  0.3411E+02
      3.288  0.5066E+01  0.3464E+02
      3.392  0.5427E+01  0.3520E+02
      3.495  0.5695E+01  0.3579E+02
      3.598  0.6099E+01  0.3642E+02
      3.702  0.7372E+01  0.3718E+02
      3.805  0.7273E+01  0.3793E+02
      3.909  0.5206E+01  0.3847E+02
      4.012  0.2517E+01  0.3873E+02
      4.115  0.2018E+01  0.3894E+02
      4.219  0.2941E+01  0.3924E+02
      4.322  0.2035E+01  0.3945E+02
      4.426  0.2075E+01  0.3967E+02
      4.529  0.1031E+01  0.3977E+02
      4.632  0.3698E+00  0.3981E+02
      4.736  0.4148E+00  0.3985E+02
      4.839  0.4853E+00  0.3991E+02
      4.943  0.4836E+00  0.3996E+02
      5.046  0.1927E+00  0.3998E+02
      5.150  0.8394E-01  0.3998E+02
      5.253  0.1209E+00  0.4000E+02
      5.356  0.3614E-01  0.4000E+02
      5.460  0.1512E-01  0.4000E+02
      5.563  0.7331E-01  0.4001E+02
      5.667  0.7586E-01  0.4002E+02
      5.770  0.3510E+00  0.4005E+02
      5.873  0.1127E+01  0.4017E+02
      5.977  0.2255E+01  0.4040E+02
      6.080  0.3090E+01  0.4072E+02
      6.184  0.3548E+01  0.4109E+02
      6.287  0.3169E+01  0.4142E+02
      6.390  0.3928E+01  0.4182E+02
      6.494  0.3583E+01  0.4219E+02
      6.597  0.3477E+01  0.4255E+02
      6.701  0.3628E+01  0.4293E+02
      6.804  0.5394E+01  0.4349E+02
      6.907  0.5351E+01  0.4404E+02
      7.011  0.5416E+01  0.4460E+02
      7.114  0.3969E+01  0.4501E+02
      7.218  0.7267E+01  0.4576E+02
      7.321  0.7636E+01  0.4655E+02
      7.425  0.8834E+01  0.4746E+02
      7.528  0.7643E+01  0.4826E+02
      7.631  0.7200E+01  0.4900E+02
      7.735  0.9453E+01  0.4998E+02
      7.838  0.7093E+01  0.5071E+02
      7.942  0.5469E+01  0.5128E+02
      8.045  0.5988E+01  0.5190E+02
      8.148  0.7340E+01  0.5265E+02
      8.252  0.5239E+01  0.5320E+02
      8.355  0.4596E+01  0.5367E+02
      8.459  0.5068E+01  0.5420E+02
      8.562  0.5878E+01  0.5480E+02
      8.665  0.4856E+01  0.5531E+02
      8.769  0.5239E+01  0.5585E+02
      8.872  0.3258E+01  0.5618E+02
      8.976  0.3831E+01  0.5658E+02
      9.079  0.6555E+01  0.5726E+02
      9.183  0.7184E+01  0.5800E+02
      9.286  0.4622E+01  0.5848E+02
      9.389  0.3907E+01  0.5888E+02
      9.493  0.3171E+01  0.5921E+02
      9.596  0.2181E+01  0.5944E+02
      9.700  0.3466E+01  0.5979E+02
      9.803  0.4858E+01  0.6030E+02
      9.906  0.3467E+01  0.6066E+02
     10.010  0.4040E+01  0.6107E+02
     10.113  0.4693E+01  0.6156E+02
     10.217  0.4563E+01  0.6203E+02
     10.320  0.4174E+01  0.6246E+02
     10.423  0.2919E+01  0.6276E+02
     10.527  0.3300E+01  0.6311E+02
     10.630  0.2720E+01  0.6339E+02
     10.734  0.2886E+01  0.6369E+02
     10.837  0.3361E+01  0.6403E+02
     10.940  0.5205E+01  0.6457E+02
     11.044  0.4752E+01  0.6506E+02
     11.147  0.3618E+01  0.6544E+02
     11.251  0.3813E+01  0.6583E+02
     11.354  0.5174E+01  0.6637E+02
     11.458  0.5772E+01  0.6696E+02
     11.561  0.5414E+01  0.6752E+02
     11.664  0.6166E+01  0.6816E+02
     11.768  0.6976E+01  0.6888E+02
     11.871  0.6681E+01  0.6957E+02
     11.975  0.6997E+01  0.7030E+02
     12.078  0.6229E+01  0.7094E+02
     12.181  0.4325E+01  0.7139E+02
     12.285  0.4215E+01  0.7182E+02
     12.388  0.3836E+01  0.7222E+02
     12.492  0.3835E+01  0.7262E+02
     12.595  0.4643E+01  0.7310E+02
     12.698  0.4860E+01  0.7360E+02
     12.802  0.5665E+01  0.7419E+02
     12.905  0.6554E+01  0.7486E+02
     13.009  0.7868E+01  0.7568E+02
     13.112  0.6442E+01  0.7634E+02
     13.215  0.5775E+01  0.7694E+02
     13.319  0.5416E+01  0.7750E+02
     13.422  0.4181E+01  0.7793E+02
     13.526  0.4157E+01  0.7836E+02
     13.629  0.4203E+01  0.7880E+02
     13.733  0.4552E+01  0.7927E+02
     13.836  0.3843E+01  0.7967E+02
     13.939  0.4757E+01  0.8016E+02
     14.043  0.4392E+01  0.8061E+02
     14.146  0.3970E+01  0.8102E+02
     14.250  0.4687E+01  0.8151E+02
     14.353  0.4432E+01  0.8196E+02
     14.456  0.5087E+01  0.8249E+02
     14.560  0.5740E+01  0.8308E+02
     14.663  0.4709E+01  0.8357E+02
     14.767  0.4321E+01  0.8402E+02
     14.870  0.4657E+01  0.8450E+02
     14.973  0.3965E+01  0.8491E+02
     15.077  0.4175E+01  0.8534E+02
     15.180  0.5489E+01  0.8591E+02
     15.284  0.5490E+01  0.8648E+02
     15.387  0.5980E+01  0.8710E+02
     15.491  0.6157E+01  0.8773E+02
     15.594  0.6269E+01  0.8838E+02
     15.697  0.5301E+01  0.8893E+02
     15.801  0.4741E+01  0.8942E+02
     15.904  0.5749E+01  0.9001E+02
     16.008  0.6623E+01  0.9070E+02
     16.111  0.5962E+01  0.9131E+02
     16.214  0.5557E+01  0.9189E+02
     16.318  0.5998E+01  0.9251E+02
     16.421  0.6210E+01  0.9315E+02
     16.525  0.4714E+01  0.9364E+02
     16.628  0.3667E+01  0.9402E+02
     16.731  0.4031E+01  0.9444E+02
     16.835  0.3312E+01  0.9478E+02
     16.938  0.2237E+01  0.9501E+02
     17.042  0.1636E+01  0.9518E+02
     17.145  0.1664E+01  0.9535E+02
     17.248  0.1685E+01  0.9552E+02
     17.352  0.1102E+01  0.9564E+02
     17.455  0.7085E+00  0.9571E+02
     17.559  0.8092E+00  0.9580E+02
     17.662  0.4646E+00  0.9584E+02
     17.766  0.4259E+00  0.9589E+02
     17.869  0.5753E+00  0.9595E+02
     17.972  0.3620E+00  0.9598E+02
     18.076  0.1505E+00  0.9600E+02
     18.179  0.2513E-02  0.9600E+02
     18.283  0.4389E-07  0.9600E+02
     18.386  0.2510E-15  0.9600E+02
     18.489  0.0000E+00  0.9600E+02
     18.593  0.0000E+00  0.9600E+02
     18.696  0.0000E+00  0.9600E+02
     18.800  0.0000E+00  0.9600E+02
     18.903  0.0000E+00  0.9600E+02
     19.006  0.0000E+00  0.9600E+02
     19.110  0.0000E+00  0.9600E+02
     19.213  0.0000E+00  0.9600E+02
     19.317  0.0000E+00  0.9600E+02
     19.420  0.0000E+00  0.9600E+02
