 DBCSR| CPU Multiplication driver                                           BLAS (U)
 DBCSR| Multrec recursion limit                                              512 (U)
 DBCSR| Multiplication stack size                                           1000 (D)
 DBCSR| Maximum elements for images                                    UNLIMITED (U)
 DBCSR| Multiplicative factor virtual images                                   1 (U)
 DBCSR| Use multiplication densification                                       T (D)
 DBCSR| Multiplication size stacks                                             3 (U)
 DBCSR| Use memory pool for CPU allocation                                     F (U)
 DBCSR| Number of 3D layers                                               SINGLE (U)
 DBCSR| Use MPI memory allocation                                              F (U)
 DBCSR| Use RMA algorithm                                                      F (U)
 DBCSR| Use Communication thread                                               T (U)
 DBCSR| Communication thread load                                             45 (D)
 DBCSR| MPI: My process id                                                     0
 DBCSR| MPI: Number of processes                                               8
 DBCSR| OMP: Current number of threads                                        12
 DBCSR| OMP: Max number of threads                                            12
 DBCSR| Split modifier for TAS multiplication algorithm                  1.0E+00 (U)


  **** **** ******  **  PROGRAM STARTED AT               2025-08-04 17:59:47.762
 ***** ** ***  *** **   PROGRAM STARTED ON                          i04r07c05s02
 **    ****   ******    PROGRAM STARTED BY                               di38fab
 ***** **    ** ** **   PROGRAM PROCESS ID                               3637308
  **** **  *******  **  PROGRAM STARTED IN /hppfs/scratch/04/di38fab/09_GTH/Delt
                                           a_Set/Ga/aug-SZV-MOLOPT-GTH-tier-1/8x
                                           8x8

 CP2K| version string:                 CP2K version 2025.1 (Development Version)
 CP2K| source code revision number:                                  git:3130539
 CP2K| cp2kflags: omp libint fftw3 libxc parallel scalapack max_contr=4         
 CP2K| is freely available from                            https://www.cp2k.org/
 CP2K| Program compiled at                         Tue Jun  3 16:14:32 CEST 2025
 CP2K| Program compiled on                                               login01
 CP2K| Program compiled for                                        Supermuc-foss
 CP2K| Data directory path                  /hppfs/work/pn36zo/di38fab/cp2k/data
 CP2K| Input file name                                                    GW.inp

 GLOBAL| Force Environment number                                              1
 GLOBAL| Basis set file name            /hppfs/scratch/04/di38fab/09_GTH/BASIS_A
 GLOBAL| Potential file name            /hppfs/work/pn36zo/di38fab/cp2k/data/GTH
 GLOBAL| MM Potential file name                                     MM_POTENTIAL
 GLOBAL| Coordinate file name                                             Ga.cif
 GLOBAL| Method name                                                        CP2K
 GLOBAL| Project name                                                       WSe2
 GLOBAL| Run type                                                         ENERGY
 GLOBAL| FFT library                                                       FFTW3
 GLOBAL| Diagonalization library                                       ScaLAPACK
 GLOBAL| Cholesky decomposition library                                ScaLAPACK
 GLOBAL| DGEMM library                                                      BLAS
 GLOBAL| Orthonormality check for eigenvectors                          DISABLED
 GLOBAL| Matrix multiplication library                                 ScaLAPACK
 GLOBAL| All-to-all communication in single precision                          F
 GLOBAL| FFTs using library dependent lengths                                  F
 GLOBAL| Grid backend                                                       AUTO
 GLOBAL| Global print level                                               MEDIUM
 GLOBAL| MPI I/O enabled                                                       T
 GLOBAL| Total number of message passing processes                             8
 GLOBAL| Number of threads for this process                                   12
 GLOBAL| This output is from process                                           0
 GLOBAL| OpenMP stack size per thread (OMP_STACKSIZE)                    default
 GLOBAL| CPU model name             Intel(R) Xeon(R) Platinum 8174 CPU @ 3.10GHz

 MEMORY| system memory details [Kb]
 MEMORY|                        rank 0           min           max       average
 MEMORY| MemTotal             98436660      98436660      98436708      98436684
 MEMORY| MemFree              84420600      84420600      84430428      84425514
 MEMORY| Buffers                     0             0             0             0
 MEMORY| Cached                2377076       2361132       2377076       2369104
 MEMORY| Slab                  1288784       1280920       1288784       1284852
 MEMORY| SReclaimable           270652        270652        275028        272840
 MEMORY| MemLikelyFree        87068328      87066588      87068328      87067458


 *** Fundamental physical constants (SI units) ***

 *** Literature: B. J. Mohr and B. N. Taylor,
 ***             CODATA recommended values of the fundamental physical
 ***             constants: 2006, Web Version 5.1
 ***             http://physics.nist.gov/constants

 Speed of light in vacuum [m/s]                             2.99792458000000E+08
 Magnetic constant or permeability of vacuum [N/A**2]       1.25663706143592E-06
 Electric constant or permittivity of vacuum [F/m]          8.85418781762039E-12
 Planck constant (h) [J*s]                                  6.62606896000000E-34
 Planck constant (h-bar) [J*s]                              1.05457162825177E-34
 Elementary charge [C]                                      1.60217648700000E-19
 Electron mass [kg]                                         9.10938215000000E-31
 Electron g factor [ ]                                     -2.00231930436220E+00
 Proton mass [kg]                                           1.67262163700000E-27
 Fine-structure constant                                    7.29735253760000E-03
 Rydberg constant [1/m]                                     1.09737315685270E+07
 Avogadro constant [1/mol]                                  6.02214179000000E+23
 Boltzmann constant [J/K]                                   1.38065040000000E-23
 Atomic mass unit [kg]                                      1.66053878200000E-27
 Bohr radius [m]                                            5.29177208590000E-11

 *** Conversion factors ***

 [u] -> [a.u.]                                              1.82288848426455E+03
 [Angstrom] -> [Bohr] = [a.u.]                              1.88972613288564E+00
 [a.u.] = [Bohr] -> [Angstrom]                              5.29177208590000E-01
 [a.u.] -> [s]                                              2.41888432650478E-17
 [a.u.] -> [fs]                                             2.41888432650478E-02
 [a.u.] -> [J]                                              4.35974393937059E-18
 [a.u.] -> [N]                                              8.23872205491840E-08
 [a.u.] -> [K]                                              3.15774647902944E+05
 [a.u.] -> [kJ/mol]                                         2.62549961709828E+03
 [a.u.] -> [kcal/mol]                                       6.27509468713739E+02
 [a.u.] -> [Pa]                                             2.94210107994716E+13
 [a.u.] -> [bar]                                            2.94210107994716E+08
 [a.u.] -> [atm]                                            2.90362800883016E+08
 [a.u.] -> [eV]                                             2.72113838565563E+01
 [a.u.] -> [Hz]                                             6.57968392072181E+15
 [a.u.] -> [1/cm] (wave numbers)                            2.19474631370540E+05
 [a.u./Bohr**2] -> [1/cm]                                   5.14048714338585E+03
 

 CELL_TOP| Volume [angstrom^3]:                                       162.871164
 CELL_TOP| Vector a [angstrom     4.567     0.000     0.000   |a| =     4.566890
 CELL_TOP| Vector b [angstrom     0.000     7.753     0.000   |b| =     7.753300
 CELL_TOP| Vector c [angstrom     0.000     0.000     4.600   |c| =     4.599780
 CELL_TOP| Angle (b,c), alpha [degree]:                                90.000000
 CELL_TOP| Angle (a,c), beta  [degree]:                                90.000000
 CELL_TOP| Angle (a,b), gamma [degree]:                                90.000000
 CELL_TOP| Numerically orthorhombic:                                         YES
 CELL_TOP| Periodicity                                                       XYZ

 CELL_CIF| Volume [angstrom^3]:                                       162.871164
 CELL_CIF| Vector a [angstrom     4.567     0.000     0.000   |a| =     4.566890
 CELL_CIF| Vector b [angstrom     0.000     7.753     0.000   |b| =     7.753300
 CELL_CIF| Vector c [angstrom     0.000     0.000     4.600   |c| =     4.599780
 CELL_CIF| Angle (b,c), alpha [degree]:                                90.000000
 CELL_CIF| Angle (a,c), beta  [degree]:                                90.000000
 CELL_CIF| Angle (a,b), gamma [degree]:                                90.000000
 CELL_CIF| Numerically orthorhombic:                                         YES
 CELL_CIF| Periodicity                                                       XYZ

 GENERATE|  Preliminary Number of Bonds generated:                             0
 GENERATE|  Achieved consistency in connectivity generation.

 CELL| Volume [angstrom^3]:                                           162.871164
 CELL| Vector a [angstrom]:       4.567     0.000     0.000   |a| =     4.566890
 CELL| Vector b [angstrom]:       0.000     7.753     0.000   |b| =     7.753300
 CELL| Vector c [angstrom]:       0.000     0.000     4.600   |c| =     4.599780
 CELL| Angle (b,c), alpha [degree]:                                    90.000000
 CELL| Angle (a,c), beta  [degree]:                                    90.000000
 CELL| Angle (a,b), gamma [degree]:                                    90.000000
 CELL| Numerically orthorhombic:                                             YES
 CELL| Periodicity                                                           XYZ

 CELL_REF| Volume [angstrom^3]:                                       162.871164
 CELL_REF| Vector a [angstrom     4.567     0.000     0.000   |a| =     4.566890
 CELL_REF| Vector b [angstrom     0.000     7.753     0.000   |b| =     7.753300
 CELL_REF| Vector c [angstrom     0.000     0.000     4.600   |c| =     4.599780
 CELL_REF| Angle (b,c), alpha [degree]:                                90.000000
 CELL_REF| Angle (a,c), beta  [degree]:                                90.000000
 CELL_REF| Angle (a,b), gamma [degree]:                                90.000000
 CELL_REF| Numerically orthorhombic:                                         YES
 CELL_REF| Periodicity                                                       XYZ

 *** WARNING in cryssym.F:180 :: Symmetry library SPGLIB not available ***


 *******************************************************************************
                                    Kpoints
 *******************************************************************************
 BRILLOUIN| K-point scheme                                        Monkhorst-Pack
 BRILLOUIN| K-Point grid                                             8    8    8
 BRILLOUIN| Accuracy in Symmetry determination                      0.100000E-05
 BRILLOUIN| K-Point point group symmetrization                               OFF
 BRILLOUIN| Wavefunction type                                            COMPLEX
 BRILLOUIN| List of Kpoints [2 Pi/Bohr]                                      256
 BRILLOUIN| Number           Weight            X              Y              Z
 BRILLOUIN|     1           0.00391       -0.43750       -0.43750       -0.43750
 BRILLOUIN|     2           0.00391       -0.43750       -0.43750       -0.31250
 BRILLOUIN|     3           0.00391       -0.43750       -0.43750       -0.18750
 BRILLOUIN|     4           0.00391       -0.43750       -0.43750       -0.06250
 BRILLOUIN|     5           0.00391       -0.43750       -0.43750        0.06250
 BRILLOUIN|     6           0.00391       -0.43750       -0.43750        0.18750
 BRILLOUIN|     7           0.00391       -0.43750       -0.43750        0.31250
 BRILLOUIN|     8           0.00391       -0.43750       -0.43750        0.43750
 BRILLOUIN|     9           0.00391       -0.43750       -0.31250       -0.43750
 BRILLOUIN|    10           0.00391       -0.43750       -0.31250       -0.31250
 BRILLOUIN|    11           0.00391       -0.43750       -0.31250       -0.18750
 BRILLOUIN|    12           0.00391       -0.43750       -0.31250       -0.06250
 BRILLOUIN|    13           0.00391       -0.43750       -0.31250        0.06250
 BRILLOUIN|    14           0.00391       -0.43750       -0.31250        0.18750
 BRILLOUIN|    15           0.00391       -0.43750       -0.31250        0.31250
 BRILLOUIN|    16           0.00391       -0.43750       -0.31250        0.43750
 BRILLOUIN|    17           0.00391       -0.43750       -0.18750       -0.43750
 BRILLOUIN|    18           0.00391       -0.43750       -0.18750       -0.31250
 BRILLOUIN|    19           0.00391       -0.43750       -0.18750       -0.18750
 BRILLOUIN|    20           0.00391       -0.43750       -0.18750       -0.06250
 BRILLOUIN|    21           0.00391       -0.43750       -0.18750        0.06250
 BRILLOUIN|    22           0.00391       -0.43750       -0.18750        0.18750
 BRILLOUIN|    23           0.00391       -0.43750       -0.18750        0.31250
 BRILLOUIN|    24           0.00391       -0.43750       -0.18750        0.43750
 BRILLOUIN|    25           0.00391       -0.43750       -0.06250       -0.43750
 BRILLOUIN|    26           0.00391       -0.43750       -0.06250       -0.31250
 BRILLOUIN|    27           0.00391       -0.43750       -0.06250       -0.18750
 BRILLOUIN|    28           0.00391       -0.43750       -0.06250       -0.06250
 BRILLOUIN|    29           0.00391       -0.43750       -0.06250        0.06250
 BRILLOUIN|    30           0.00391       -0.43750       -0.06250        0.18750
 BRILLOUIN|    31           0.00391       -0.43750       -0.06250        0.31250
 BRILLOUIN|    32           0.00391       -0.43750       -0.06250        0.43750
 BRILLOUIN|    33           0.00391       -0.43750        0.06250       -0.43750
 BRILLOUIN|    34           0.00391       -0.43750        0.06250       -0.31250
 BRILLOUIN|    35           0.00391       -0.43750        0.06250       -0.18750
 BRILLOUIN|    36           0.00391       -0.43750        0.06250       -0.06250
 BRILLOUIN|    37           0.00391       -0.43750        0.06250        0.06250
 BRILLOUIN|    38           0.00391       -0.43750        0.06250        0.18750
 BRILLOUIN|    39           0.00391       -0.43750        0.06250        0.31250
 BRILLOUIN|    40           0.00391       -0.43750        0.06250        0.43750
 BRILLOUIN|    41           0.00391       -0.43750        0.18750       -0.43750
 BRILLOUIN|    42           0.00391       -0.43750        0.18750       -0.31250
 BRILLOUIN|    43           0.00391       -0.43750        0.18750       -0.18750
 BRILLOUIN|    44           0.00391       -0.43750        0.18750       -0.06250
 BRILLOUIN|    45           0.00391       -0.43750        0.18750        0.06250
 BRILLOUIN|    46           0.00391       -0.43750        0.18750        0.18750
 BRILLOUIN|    47           0.00391       -0.43750        0.18750        0.31250
 BRILLOUIN|    48           0.00391       -0.43750        0.18750        0.43750
 BRILLOUIN|    49           0.00391       -0.43750        0.31250       -0.43750
 BRILLOUIN|    50           0.00391       -0.43750        0.31250       -0.31250
 BRILLOUIN|    51           0.00391       -0.43750        0.31250       -0.18750
 BRILLOUIN|    52           0.00391       -0.43750        0.31250       -0.06250
 BRILLOUIN|    53           0.00391       -0.43750        0.31250        0.06250
 BRILLOUIN|    54           0.00391       -0.43750        0.31250        0.18750
 BRILLOUIN|    55           0.00391       -0.43750        0.31250        0.31250
 BRILLOUIN|    56           0.00391       -0.43750        0.31250        0.43750
 BRILLOUIN|    57           0.00391       -0.43750        0.43750       -0.43750
 BRILLOUIN|    58           0.00391       -0.43750        0.43750       -0.31250
 BRILLOUIN|    59           0.00391       -0.43750        0.43750       -0.18750
 BRILLOUIN|    60           0.00391       -0.43750        0.43750       -0.06250
 BRILLOUIN|    61           0.00391       -0.43750        0.43750        0.06250
 BRILLOUIN|    62           0.00391       -0.43750        0.43750        0.18750
 BRILLOUIN|    63           0.00391       -0.43750        0.43750        0.31250
 BRILLOUIN|    64           0.00391       -0.43750        0.43750        0.43750
 BRILLOUIN|    65           0.00391       -0.31250       -0.43750       -0.43750
 BRILLOUIN|    66           0.00391       -0.31250       -0.43750       -0.31250
 BRILLOUIN|    67           0.00391       -0.31250       -0.43750       -0.18750
 BRILLOUIN|    68           0.00391       -0.31250       -0.43750       -0.06250
 BRILLOUIN|    69           0.00391       -0.31250       -0.43750        0.06250
 BRILLOUIN|    70           0.00391       -0.31250       -0.43750        0.18750
 BRILLOUIN|    71           0.00391       -0.31250       -0.43750        0.31250
 BRILLOUIN|    72           0.00391       -0.31250       -0.43750        0.43750
 BRILLOUIN|    73           0.00391       -0.31250       -0.31250       -0.43750
 BRILLOUIN|    74           0.00391       -0.31250       -0.31250       -0.31250
 BRILLOUIN|    75           0.00391       -0.31250       -0.31250       -0.18750
 BRILLOUIN|    76           0.00391       -0.31250       -0.31250       -0.06250
 BRILLOUIN|    77           0.00391       -0.31250       -0.31250        0.06250
 BRILLOUIN|    78           0.00391       -0.31250       -0.31250        0.18750
 BRILLOUIN|    79           0.00391       -0.31250       -0.31250        0.31250
 BRILLOUIN|    80           0.00391       -0.31250       -0.31250        0.43750
 BRILLOUIN|    81           0.00391       -0.31250       -0.18750       -0.43750
 BRILLOUIN|    82           0.00391       -0.31250       -0.18750       -0.31250
 BRILLOUIN|    83           0.00391       -0.31250       -0.18750       -0.18750
 BRILLOUIN|    84           0.00391       -0.31250       -0.18750       -0.06250
 BRILLOUIN|    85           0.00391       -0.31250       -0.18750        0.06250
 BRILLOUIN|    86           0.00391       -0.31250       -0.18750        0.18750
 BRILLOUIN|    87           0.00391       -0.31250       -0.18750        0.31250
 BRILLOUIN|    88           0.00391       -0.31250       -0.18750        0.43750
 BRILLOUIN|    89           0.00391       -0.31250       -0.06250       -0.43750
 BRILLOUIN|    90           0.00391       -0.31250       -0.06250       -0.31250
 BRILLOUIN|    91           0.00391       -0.31250       -0.06250       -0.18750
 BRILLOUIN|    92           0.00391       -0.31250       -0.06250       -0.06250
 BRILLOUIN|    93           0.00391       -0.31250       -0.06250        0.06250
 BRILLOUIN|    94           0.00391       -0.31250       -0.06250        0.18750
 BRILLOUIN|    95           0.00391       -0.31250       -0.06250        0.31250
 BRILLOUIN|    96           0.00391       -0.31250       -0.06250        0.43750
 BRILLOUIN|    97           0.00391       -0.31250        0.06250       -0.43750
 BRILLOUIN|    98           0.00391       -0.31250        0.06250       -0.31250
 BRILLOUIN|    99           0.00391       -0.31250        0.06250       -0.18750
 BRILLOUIN|   100           0.00391       -0.31250        0.06250       -0.06250
 BRILLOUIN|   101           0.00391       -0.31250        0.06250        0.06250
 BRILLOUIN|   102           0.00391       -0.31250        0.06250        0.18750
 BRILLOUIN|   103           0.00391       -0.31250        0.06250        0.31250
 BRILLOUIN|   104           0.00391       -0.31250        0.06250        0.43750
 BRILLOUIN|   105           0.00391       -0.31250        0.18750       -0.43750
 BRILLOUIN|   106           0.00391       -0.31250        0.18750       -0.31250
 BRILLOUIN|   107           0.00391       -0.31250        0.18750       -0.18750
 BRILLOUIN|   108           0.00391       -0.31250        0.18750       -0.06250
 BRILLOUIN|   109           0.00391       -0.31250        0.18750        0.06250
 BRILLOUIN|   110           0.00391       -0.31250        0.18750        0.18750
 BRILLOUIN|   111           0.00391       -0.31250        0.18750        0.31250
 BRILLOUIN|   112           0.00391       -0.31250        0.18750        0.43750
 BRILLOUIN|   113           0.00391       -0.31250        0.31250       -0.43750
 BRILLOUIN|   114           0.00391       -0.31250        0.31250       -0.31250
 BRILLOUIN|   115           0.00391       -0.31250        0.31250       -0.18750
 BRILLOUIN|   116           0.00391       -0.31250        0.31250       -0.06250
 BRILLOUIN|   117           0.00391       -0.31250        0.31250        0.06250
 BRILLOUIN|   118           0.00391       -0.31250        0.31250        0.18750
 BRILLOUIN|   119           0.00391       -0.31250        0.31250        0.31250
 BRILLOUIN|   120           0.00391       -0.31250        0.31250        0.43750
 BRILLOUIN|   121           0.00391       -0.31250        0.43750       -0.43750
 BRILLOUIN|   122           0.00391       -0.31250        0.43750       -0.31250
 BRILLOUIN|   123           0.00391       -0.31250        0.43750       -0.18750
 BRILLOUIN|   124           0.00391       -0.31250        0.43750       -0.06250
 BRILLOUIN|   125           0.00391       -0.31250        0.43750        0.06250
 BRILLOUIN|   126           0.00391       -0.31250        0.43750        0.18750
 BRILLOUIN|   127           0.00391       -0.31250        0.43750        0.31250
 BRILLOUIN|   128           0.00391       -0.31250        0.43750        0.43750
 BRILLOUIN|   129           0.00391       -0.18750       -0.43750       -0.43750
 BRILLOUIN|   130           0.00391       -0.18750       -0.43750       -0.31250
 BRILLOUIN|   131           0.00391       -0.18750       -0.43750       -0.18750
 BRILLOUIN|   132           0.00391       -0.18750       -0.43750       -0.06250
 BRILLOUIN|   133           0.00391       -0.18750       -0.43750        0.06250
 BRILLOUIN|   134           0.00391       -0.18750       -0.43750        0.18750
 BRILLOUIN|   135           0.00391       -0.18750       -0.43750        0.31250
 BRILLOUIN|   136           0.00391       -0.18750       -0.43750        0.43750
 BRILLOUIN|   137           0.00391       -0.18750       -0.31250       -0.43750
 BRILLOUIN|   138           0.00391       -0.18750       -0.31250       -0.31250
 BRILLOUIN|   139           0.00391       -0.18750       -0.31250       -0.18750
 BRILLOUIN|   140           0.00391       -0.18750       -0.31250       -0.06250
 BRILLOUIN|   141           0.00391       -0.18750       -0.31250        0.06250
 BRILLOUIN|   142           0.00391       -0.18750       -0.31250        0.18750
 BRILLOUIN|   143           0.00391       -0.18750       -0.31250        0.31250
 BRILLOUIN|   144           0.00391       -0.18750       -0.31250        0.43750
 BRILLOUIN|   145           0.00391       -0.18750       -0.18750       -0.43750
 BRILLOUIN|   146           0.00391       -0.18750       -0.18750       -0.31250
 BRILLOUIN|   147           0.00391       -0.18750       -0.18750       -0.18750
 BRILLOUIN|   148           0.00391       -0.18750       -0.18750       -0.06250
 BRILLOUIN|   149           0.00391       -0.18750       -0.18750        0.06250
 BRILLOUIN|   150           0.00391       -0.18750       -0.18750        0.18750
 BRILLOUIN|   151           0.00391       -0.18750       -0.18750        0.31250
 BRILLOUIN|   152           0.00391       -0.18750       -0.18750        0.43750
 BRILLOUIN|   153           0.00391       -0.18750       -0.06250       -0.43750
 BRILLOUIN|   154           0.00391       -0.18750       -0.06250       -0.31250
 BRILLOUIN|   155           0.00391       -0.18750       -0.06250       -0.18750
 BRILLOUIN|   156           0.00391       -0.18750       -0.06250       -0.06250
 BRILLOUIN|   157           0.00391       -0.18750       -0.06250        0.06250
 BRILLOUIN|   158           0.00391       -0.18750       -0.06250        0.18750
 BRILLOUIN|   159           0.00391       -0.18750       -0.06250        0.31250
 BRILLOUIN|   160           0.00391       -0.18750       -0.06250        0.43750
 BRILLOUIN|   161           0.00391       -0.18750        0.06250       -0.43750
 BRILLOUIN|   162           0.00391       -0.18750        0.06250       -0.31250
 BRILLOUIN|   163           0.00391       -0.18750        0.06250       -0.18750
 BRILLOUIN|   164           0.00391       -0.18750        0.06250       -0.06250
 BRILLOUIN|   165           0.00391       -0.18750        0.06250        0.06250
 BRILLOUIN|   166           0.00391       -0.18750        0.06250        0.18750
 BRILLOUIN|   167           0.00391       -0.18750        0.06250        0.31250
 BRILLOUIN|   168           0.00391       -0.18750        0.06250        0.43750
 BRILLOUIN|   169           0.00391       -0.18750        0.18750       -0.43750
 BRILLOUIN|   170           0.00391       -0.18750        0.18750       -0.31250
 BRILLOUIN|   171           0.00391       -0.18750        0.18750       -0.18750
 BRILLOUIN|   172           0.00391       -0.18750        0.18750       -0.06250
 BRILLOUIN|   173           0.00391       -0.18750        0.18750        0.06250
 BRILLOUIN|   174           0.00391       -0.18750        0.18750        0.18750
 BRILLOUIN|   175           0.00391       -0.18750        0.18750        0.31250
 BRILLOUIN|   176           0.00391       -0.18750        0.18750        0.43750
 BRILLOUIN|   177           0.00391       -0.18750        0.31250       -0.43750
 BRILLOUIN|   178           0.00391       -0.18750        0.31250       -0.31250
 BRILLOUIN|   179           0.00391       -0.18750        0.31250       -0.18750
 BRILLOUIN|   180           0.00391       -0.18750        0.31250       -0.06250
 BRILLOUIN|   181           0.00391       -0.18750        0.31250        0.06250
 BRILLOUIN|   182           0.00391       -0.18750        0.31250        0.18750
 BRILLOUIN|   183           0.00391       -0.18750        0.31250        0.31250
 BRILLOUIN|   184           0.00391       -0.18750        0.31250        0.43750
 BRILLOUIN|   185           0.00391       -0.18750        0.43750       -0.43750
 BRILLOUIN|   186           0.00391       -0.18750        0.43750       -0.31250
 BRILLOUIN|   187           0.00391       -0.18750        0.43750       -0.18750
 BRILLOUIN|   188           0.00391       -0.18750        0.43750       -0.06250
 BRILLOUIN|   189           0.00391       -0.18750        0.43750        0.06250
 BRILLOUIN|   190           0.00391       -0.18750        0.43750        0.18750
 BRILLOUIN|   191           0.00391       -0.18750        0.43750        0.31250
 BRILLOUIN|   192           0.00391       -0.18750        0.43750        0.43750
 BRILLOUIN|   193           0.00391       -0.06250       -0.43750       -0.43750
 BRILLOUIN|   194           0.00391       -0.06250       -0.43750       -0.31250
 BRILLOUIN|   195           0.00391       -0.06250       -0.43750       -0.18750
 BRILLOUIN|   196           0.00391       -0.06250       -0.43750       -0.06250
 BRILLOUIN|   197           0.00391       -0.06250       -0.43750        0.06250
 BRILLOUIN|   198           0.00391       -0.06250       -0.43750        0.18750
 BRILLOUIN|   199           0.00391       -0.06250       -0.43750        0.31250
 BRILLOUIN|   200           0.00391       -0.06250       -0.43750        0.43750
 BRILLOUIN|   201           0.00391       -0.06250       -0.31250       -0.43750
 BRILLOUIN|   202           0.00391       -0.06250       -0.31250       -0.31250
 BRILLOUIN|   203           0.00391       -0.06250       -0.31250       -0.18750
 BRILLOUIN|   204           0.00391       -0.06250       -0.31250       -0.06250
 BRILLOUIN|   205           0.00391       -0.06250       -0.31250        0.06250
 BRILLOUIN|   206           0.00391       -0.06250       -0.31250        0.18750
 BRILLOUIN|   207           0.00391       -0.06250       -0.31250        0.31250
 BRILLOUIN|   208           0.00391       -0.06250       -0.31250        0.43750
 BRILLOUIN|   209           0.00391       -0.06250       -0.18750       -0.43750
 BRILLOUIN|   210           0.00391       -0.06250       -0.18750       -0.31250
 BRILLOUIN|   211           0.00391       -0.06250       -0.18750       -0.18750
 BRILLOUIN|   212           0.00391       -0.06250       -0.18750       -0.06250
 BRILLOUIN|   213           0.00391       -0.06250       -0.18750        0.06250
 BRILLOUIN|   214           0.00391       -0.06250       -0.18750        0.18750
 BRILLOUIN|   215           0.00391       -0.06250       -0.18750        0.31250
 BRILLOUIN|   216           0.00391       -0.06250       -0.18750        0.43750
 BRILLOUIN|   217           0.00391       -0.06250       -0.06250       -0.43750
 BRILLOUIN|   218           0.00391       -0.06250       -0.06250       -0.31250
 BRILLOUIN|   219           0.00391       -0.06250       -0.06250       -0.18750
 BRILLOUIN|   220           0.00391       -0.06250       -0.06250       -0.06250
 BRILLOUIN|   221           0.00391       -0.06250       -0.06250        0.06250
 BRILLOUIN|   222           0.00391       -0.06250       -0.06250        0.18750
 BRILLOUIN|   223           0.00391       -0.06250       -0.06250        0.31250
 BRILLOUIN|   224           0.00391       -0.06250       -0.06250        0.43750
 BRILLOUIN|   225           0.00391       -0.06250        0.06250       -0.43750
 BRILLOUIN|   226           0.00391       -0.06250        0.06250       -0.31250
 BRILLOUIN|   227           0.00391       -0.06250        0.06250       -0.18750
 BRILLOUIN|   228           0.00391       -0.06250        0.06250       -0.06250
 BRILLOUIN|   229           0.00391       -0.06250        0.06250        0.06250
 BRILLOUIN|   230           0.00391       -0.06250        0.06250        0.18750
 BRILLOUIN|   231           0.00391       -0.06250        0.06250        0.31250
 BRILLOUIN|   232           0.00391       -0.06250        0.06250        0.43750
 BRILLOUIN|   233           0.00391       -0.06250        0.18750       -0.43750
 BRILLOUIN|   234           0.00391       -0.06250        0.18750       -0.31250
 BRILLOUIN|   235           0.00391       -0.06250        0.18750       -0.18750
 BRILLOUIN|   236           0.00391       -0.06250        0.18750       -0.06250
 BRILLOUIN|   237           0.00391       -0.06250        0.18750        0.06250
 BRILLOUIN|   238           0.00391       -0.06250        0.18750        0.18750
 BRILLOUIN|   239           0.00391       -0.06250        0.18750        0.31250
 BRILLOUIN|   240           0.00391       -0.06250        0.18750        0.43750
 BRILLOUIN|   241           0.00391       -0.06250        0.31250       -0.43750
 BRILLOUIN|   242           0.00391       -0.06250        0.31250       -0.31250
 BRILLOUIN|   243           0.00391       -0.06250        0.31250       -0.18750
 BRILLOUIN|   244           0.00391       -0.06250        0.31250       -0.06250
 BRILLOUIN|   245           0.00391       -0.06250        0.31250        0.06250
 BRILLOUIN|   246           0.00391       -0.06250        0.31250        0.18750
 BRILLOUIN|   247           0.00391       -0.06250        0.31250        0.31250
 BRILLOUIN|   248           0.00391       -0.06250        0.31250        0.43750
 BRILLOUIN|   249           0.00391       -0.06250        0.43750       -0.43750
 BRILLOUIN|   250           0.00391       -0.06250        0.43750       -0.31250
 BRILLOUIN|   251           0.00391       -0.06250        0.43750       -0.18750
 BRILLOUIN|   252           0.00391       -0.06250        0.43750       -0.06250
 BRILLOUIN|   253           0.00391       -0.06250        0.43750        0.06250
 BRILLOUIN|   254           0.00391       -0.06250        0.43750        0.18750
 BRILLOUIN|   255           0.00391       -0.06250        0.43750        0.31250
 BRILLOUIN|   256           0.00391       -0.06250        0.43750        0.43750
 *******************************************************************************

 *******************************************************************************
 *******************************************************************************
 **                                                                           **
 **     #####                         ##              ##                      **
 **    ##   ##            ##          ##              ##                      **
 **   ##     ##                       ##            ######                    **
 **   ##     ##  ##   ##  ##   #####  ##  ##   ####   ##    #####    #####    **
 **   ##     ##  ##   ##  ##  ##      ## ##   ##      ##   ##   ##  ##   ##   **
 **   ##  ## ##  ##   ##  ##  ##      ####     ###    ##   ######   ######    **
 **    ##  ###   ##   ##  ##  ##      ## ##      ##   ##   ##       ##        **
 **     #######   #####   ##   #####  ##  ##  ####    ##    #####   ##        **
 **           ##                                                    ##        **
 **                                                                           **
 **                                                ... make the atoms dance   **
 **                                                                           **
 **            Copyright (C) by CP2K developers group (2000-2025)             **
 **                      J. Chem. Phys. 152, 194103 (2020)                    **
 **                                                                           **
 *******************************************************************************

 DFT| Spin restricted Kohn-Sham (RKS) calculation                            RKS
 DFT| Multiplicity                                                             1
 DFT| Number of spin states                                                    1
 DFT| Charge                                                                   0
 DFT| Self-interaction correction (SIC)                                       NO
 DFT| Cutoffs: density                                              1.000000E-10
 DFT|          gradient                                             1.000000E-10
 DFT|          tau                                                  1.000000E-10
 DFT|          cutoff_smoothing_range                               0.000000E+00
 DFT| XC density smoothing                                                  NONE
 DFT| XC derivatives                                                          PW

 FUNCTIONAL| PBE:
 FUNCTIONAL| J.P.Perdew, K.Burke, M.Ernzerhof, Phys. Rev. Letter, vol. 77, n 18,
 FUNCTIONAL|  pp. 3865-3868, (1996) {spin unpolarized}                          


 QS| Method:                                                                 GPW
 QS| Density plane wave grid type                        NON-SPHERICAL FULLSPACE
 QS| Number of grid levels:                                                    4
 QS| Density cutoff [a.u.]:                                                500.0
 QS| Multi grid cutoff [a.u.]: 1) grid level                               500.0
 QS|                           2) grid level                               166.7
 QS|                           3) grid level                                55.6
 QS|                           4) grid level                                18.5
 QS| Grid level progression factor:                                          3.0
 QS| Relative density cutoff [a.u.]:                                        50.0
 QS| Interaction thresholds: eps_pgf_orb:                                1.0E-16
 QS|                         eps_filter_matrix:                          0.0E+00
 QS|                         eps_core_charge:                            1.0E-18
 QS|                         eps_rho_gspace:                             1.0E-16
 QS|                         eps_rho_rspace:                             1.0E-16
 QS|                         eps_gvg_rspace:                             1.0E-08
 QS|                         eps_ppl:                                    1.0E-02
 QS|                         eps_ppnl:                                   1.0E-10


 ATOMIC KIND INFORMATION

  1. Atomic kind: Ga                                    Number of atoms:       8

     Orbital Basis Set                                 aug-SZV-MOLOPT-GTH-tier-1

       Number of orbital shell sets:                                           1
       Number of orbital shells:                                               6
       Number of primitive Cartesian functions:                                7
       Number of Cartesian basis functions:                                   20
       Number of spherical basis functions:                                   18
       Norm type:                                                              2

       Normalised Cartesian orbitals:

                        Set   Shell   Orbital            Exponent    Coefficient

                          1       1    2s                0.045000       0.000000
                                                         0.076562      -0.044987
                                                         0.232197      -0.192187
                                                         0.571611       0.056465
                                                         1.430064       0.265436
                                                         3.428369      -0.094392
                                                         7.066654       0.013136

                          1       2    3s                0.045000      -0.150737
                                                         0.076562       0.160704
                                                         0.232197      -0.113326
                                                         0.571611       0.014105
                                                         1.430064       0.120757
                                                         3.428369       0.000000
                                                         7.066654       0.000000

                          1       3    3px               0.045000       0.000000
                                                         0.076562      -0.020696
                                                         0.232197      -0.159451
                                                         0.571611      -0.058486
                                                         1.430064       0.250131
                                                         3.428369       0.019224
                                                         7.066654       0.002358
                          1       3    3py               0.045000       0.000000
                                                         0.076562      -0.020696
                                                         0.232197      -0.159451
                                                         0.571611      -0.058486
                                                         1.430064       0.250131
                                                         3.428369       0.019224
                                                         7.066654       0.002358
                          1       3    3pz               0.045000       0.000000
                                                         0.076562      -0.020696
                                                         0.232197      -0.159451
                                                         0.571611      -0.058486
                                                         1.430064       0.250131
                                                         3.428369       0.019224
                                                         7.066654       0.002358

                          1       4    4px               0.045000      -0.025468
                                                         0.076562       0.005827
                                                         0.232197      -0.105636
                                                         0.571611       0.070301
                                                         1.430064       0.247988
                                                         3.428369       0.000000
                                                         7.066654       0.000000
                          1       4    4py               0.045000      -0.025468
                                                         0.076562       0.005827
                                                         0.232197      -0.105636
                                                         0.571611       0.070301
                                                         1.430064       0.247988
                                                         3.428369       0.000000
                                                         7.066654       0.000000
                          1       4    4pz               0.045000      -0.025468
                                                         0.076562       0.005827
                                                         0.232197      -0.105636
                                                         0.571611       0.070301
                                                         1.430064       0.247988
                                                         3.428369       0.000000
                                                         7.066654       0.000000

                          1       5    4dx2              0.045000       0.000000
                                                         0.076562      -0.000022
                                                         0.232197      -0.006983
                                                         0.571611      -0.123148
                                                         1.430064      -1.022731
                                                         3.428369      -5.345729
                                                         7.066654     -15.264848
                          1       5    4dxy              0.045000       0.000000
                                                         0.076562      -0.000037
                                                         0.232197      -0.012094
                                                         0.571611      -0.213299
                                                         1.430064      -1.771423
                                                         3.428369      -9.259074
                                                         7.066654     -26.439493
                          1       5    4dxz              0.045000       0.000000
                                                         0.076562      -0.000037
                                                         0.232197      -0.012094
                                                         0.571611      -0.213299
                                                         1.430064      -1.771423
                                                         3.428369      -9.259074
                                                         7.066654     -26.439493
                          1       5    4dy2              0.045000       0.000000
                                                         0.076562      -0.000022
                                                         0.232197      -0.006983
                                                         0.571611      -0.123148
                                                         1.430064      -1.022731
                                                         3.428369      -5.345729
                                                         7.066654     -15.264848
                          1       5    4dyz              0.045000       0.000000
                                                         0.076562      -0.000037
                                                         0.232197      -0.012094
                                                         0.571611      -0.213299
                                                         1.430064      -1.771423
                                                         3.428369      -9.259074
                                                         7.066654     -26.439493
                          1       5    4dz2              0.045000       0.000000
                                                         0.076562      -0.000022
                                                         0.232197      -0.006983
                                                         0.571611      -0.123148
                                                         1.430064      -1.022731
                                                         3.428369      -5.345729
                                                         7.066654     -15.264848

                          1       6    5dx2              0.045000       0.006812
                                                         0.076562      -0.001179
                                                         0.232197       0.034734
                                                         0.571611      -0.015200
                                                         1.430064       0.009091
                                                         3.428369       0.000000
                                                         7.066654       0.000000
                          1       6    5dxy              0.045000       0.011799
                                                         0.076562      -0.002041
                                                         0.232197       0.060161
                                                         0.571611      -0.026328
                                                         1.430064       0.015745
                                                         3.428369       0.000000
                                                         7.066654       0.000000
                          1       6    5dxz              0.045000       0.011799
                                                         0.076562      -0.002041
                                                         0.232197       0.060161
                                                         0.571611      -0.026328
                                                         1.430064       0.015745
                                                         3.428369       0.000000
                                                         7.066654       0.000000
                          1       6    5dy2              0.045000       0.006812
                                                         0.076562      -0.001179
                                                         0.232197       0.034734
                                                         0.571611      -0.015200
                                                         1.430064       0.009091
                                                         3.428369       0.000000
                                                         7.066654       0.000000
                          1       6    5dyz              0.045000       0.011799
                                                         0.076562      -0.002041
                                                         0.232197       0.060161
                                                         0.571611      -0.026328
                                                         1.430064       0.015745
                                                         3.428369       0.000000
                                                         7.066654       0.000000
                          1       6    5dz2              0.045000       0.006812
                                                         0.076562      -0.001179
                                                         0.232197       0.034734
                                                         0.571611      -0.015200
                                                         1.430064       0.009091
                                                         3.428369       0.000000
                                                         7.066654       0.000000

       Atomic covalent radius [Angstrom]:                                  1.260

       Atomic van der Waals radius [Angstrom]:                             1.870

     GTH Potential information for                                       GTH-PBE

       Description:                       Goedecker-Teter-Hutter pseudopotential
                                           Goedecker et al., PRB 54, 1703 (1996)
                                          Hartwigsen et al., PRB 58, 3641 (1998)
                                                      Krack, TCA 114, 145 (2005)

       Gaussian exponent of the core charge distribution:               2.082466
       Electronic configuration (s p d ...):                           2   1  10

       Parameters of the local part of the GTH pseudopotential:

                          rloc        C1          C2          C3          C4
                        0.490000

       Parameters of the non-local part of the GTH (SOC) pseudopotential:

                   l      r(l)      h(i,j,l)
                                    k(i,j,l)
                   0    0.416777   10.475690   -4.921768    0.870706
                                   -4.921768    7.770178   -2.248152
                                    0.870706   -2.248152    1.784415
                   1    0.569627    1.777985    0.195860
                                    0.195860   -0.231744
                                    0.079222   -0.052777
                                   -0.052777    0.062447
                   2    0.238126  -16.248680
                                    0.015457


 MOLECULE KIND INFORMATION


 All atoms are their own molecule, skipping detailed information


 TOTAL NUMBERS AND MAXIMUM NUMBERS

  Total number of            - Atomic kinds:                                   1
                             - Atoms:                                          8
                             - Shell sets:                                     8
                             - Shells:                                        48
                             - Primitive Cartesian functions:                 56
                             - Cartesian basis functions:                    160
                             - Spherical basis functions:                    144

  Maximum angular momentum of the orbital basis functions:                     2


 MODULE QUICKSTEP: ATOMIC COORDINATES IN ANGSTROM

   Atom Kind Element         X             Y             Z       Z(eff)     Mass
      1    1 Ga   31      0.000000      1.212771      0.373502  13.0000  69.7230
      2    1 Ga   31      0.000000      6.540529      4.226278  13.0000  69.7230
      3    1 Ga   31      0.000000      2.663879      2.673392  13.0000  69.7230
      4    1 Ga   31      0.000000      5.089421      1.926388  13.0000  69.7230
      5    1 Ga   31      2.283445      5.089421      0.373502  13.0000  69.7230
      6    1 Ga   31      2.283445      2.663879      4.226278  13.0000  69.7230
      7    1 Ga   31      2.283445      6.540529      2.673392  13.0000  69.7230
      8    1 Ga   31      2.283445      1.212771      1.926388  13.0000  69.7230



 SCF PARAMETERS         Density guess:                                    ATOMIC
                        --------------------------------------------------------
                        max_scf:                                             500
                        max_scf_history:                                       0
                        max_diis:                                              4
                        --------------------------------------------------------
                        eps_scf:                                        1.00E-09
                        eps_scf_history:                                0.00E+00
                        eps_diis:                                       1.00E-01
                        eps_eigval:                                     1.00E-05
                        --------------------------------------------------------
                        level_shift [a.u.]:                             0.000000
                        added MOs                                        92    0
                        --------------------------------------------------------
                        Mixing method:                            BROYDEN_MIXING
                                                charge density mixing in g-space
                        --------------------------------------------------------
                        Smear method:                                FERMI_DIRAC
                        Electronic temperature [K]:                        300.0
                        Electronic temperature [a.u.]:                  9.50E-04
                        Accuracy threshold:                             1.00E-10
                        --------------------------------------------------------
                        No outer SCF

 PW_GRID| Information for grid number                                          1
 PW_GRID| Grid distributed over                                     8 processors
 PW_GRID| Real space group dimensions                                     8    1
 PW_GRID| the grid is blocked:                                                NO
 PW_GRID| Cutoff [a.u.]                                                    500.0
 PW_GRID| spherical cutoff:                                                   NO
 PW_GRID|   Bounds   1            -45      44                Points:          90
 PW_GRID|   Bounds   2            -75      74                Points:         150
 PW_GRID|   Bounds   3            -45      44                Points:          90
 PW_GRID| Volume element (a.u.^3)  0.9046E-03     Volume (a.u.^3)      1099.1091
 PW_GRID| Grid span                                                    FULLSPACE
 PW_GRID|   Distribution                         Average         Max         Min
 PW_GRID|   G-Vectors                           151875.0      151920      151830
 PW_GRID|   G-Rays                                1687.5        1688        1687
 PW_GRID|   Real Space Points                   151875.0      162000      148500

 PW_GRID| Information for grid number                                          2
 PW_GRID| Number of the reference grid                                         1
 PW_GRID| Grid distributed over                                     8 processors
 PW_GRID| Real space group dimensions                                     8    1
 PW_GRID| the grid is blocked:                                                NO
 PW_GRID| Cutoff [a.u.]                                                    166.7
 PW_GRID| spherical cutoff:                                                   NO
 PW_GRID|   Bounds   1            -27      26                Points:          54
 PW_GRID|   Bounds   2            -45      44                Points:          90
 PW_GRID|   Bounds   3            -27      26                Points:          54
 PW_GRID| Volume element (a.u.^3)  0.4188E-02     Volume (a.u.^3)      1099.1091
 PW_GRID| Grid span                                                    FULLSPACE
 PW_GRID|   Distribution                         Average         Max         Min
 PW_GRID|   G-Vectors                            32805.0       32940       32670
 PW_GRID|   G-Rays                                 607.5         610         605
 PW_GRID|   Real Space Points                    32805.0       34020       29160

 PW_GRID| Information for grid number                                          3
 PW_GRID| Number of the reference grid                                         1
 PW_GRID| Grid distributed over                                     8 processors
 PW_GRID| Real space group dimensions                                     8    1
 PW_GRID| the grid is blocked:                                                NO
 PW_GRID| Cutoff [a.u.]                                                     55.6
 PW_GRID| spherical cutoff:                                                   NO
 PW_GRID|   Bounds   1            -15      14                Points:          30
 PW_GRID|   Bounds   2            -27      26                Points:          54
 PW_GRID|   Bounds   3            -15      14                Points:          30
 PW_GRID| Volume element (a.u.^3)  0.2262E-01     Volume (a.u.^3)      1099.1091
 PW_GRID| Grid span                                                    FULLSPACE
 PW_GRID|   Distribution                         Average         Max         Min
 PW_GRID|   G-Vectors                             6075.0        6150        6000
 PW_GRID|   G-Rays                                 202.5         205         200
 PW_GRID|   Real Space Points                     6075.0        6480        4860

 PW_GRID| Information for grid number                                          4
 PW_GRID| Number of the reference grid                                         1
 PW_GRID| Grid distributed over                                     8 processors
 PW_GRID| Real space group dimensions                                     8    1
 PW_GRID| the grid is blocked:                                                NO
 PW_GRID| Cutoff [a.u.]                                                     18.5
 PW_GRID| spherical cutoff:                                                   NO
 PW_GRID|   Bounds   1             -9       8                Points:          18
 PW_GRID|   Bounds   2            -15      14                Points:          30
 PW_GRID|   Bounds   3             -9       8                Points:          18
 PW_GRID| Volume element (a.u.^3)  0.1131         Volume (a.u.^3)      1099.1091
 PW_GRID| Grid span                                                    FULLSPACE
 PW_GRID|   Distribution                         Average         Max         Min
 PW_GRID|   G-Vectors                             1215.0        1278        1188
 PW_GRID|   G-Rays                                  67.5          71          66
 PW_GRID|   Real Space Points                     1215.0        1620        1080

 POISSON| Solver                                                        PERIODIC
 POISSON| Periodicity                                                        XYZ

 RS_GRID| Information for grid number                                          1
 RS_GRID|   Bounds   1            -45      44                Points:          90
 RS_GRID|   Bounds   2            -75      74                Points:         150
 RS_GRID|   Bounds   3            -45      44                Points:          90
 RS_GRID| Real space fully replicated
 RS_GRID| Group size                                                           1

 RS_GRID| Information for grid number                                          2
 RS_GRID|   Bounds   1            -27      26                Points:          54
 RS_GRID|   Bounds   2            -45      44                Points:          90
 RS_GRID|   Bounds   3            -27      26                Points:          54
 RS_GRID| Real space fully replicated
 RS_GRID| Group size                                                           1

 RS_GRID| Information for grid number                                          3
 RS_GRID|   Bounds   1            -15      14                Points:          30
 RS_GRID|   Bounds   2            -27      26                Points:          54
 RS_GRID|   Bounds   3            -15      14                Points:          30
 RS_GRID| Real space fully replicated
 RS_GRID| Group size                                                           1

 RS_GRID| Information for grid number                                          4
 RS_GRID|   Bounds   1             -9       8                Points:          18
 RS_GRID|   Bounds   2            -15      14                Points:          30
 RS_GRID|   Bounds   3             -9       8                Points:          18
 RS_GRID| Real space fully replicated
 RS_GRID| Group size                                                           1

 Number of electrons:                                                        104
 Number of occupied orbitals:                                                 52
 Number of molecular orbitals:                                               144

 Number of orbital functions:                                                144
 Number of independent orbital functions:                                    144

 Extrapolation method: initial_guess

 Atomic guess: The first density matrix is obtained in terms of atomic orbitals
               and electronic configurations assigned to each atomic kind

 Guess for atomic kind: Ga

 Electronic structure
    Total number of core electrons                                         18.00
    Total number of valence electrons                                      13.00
    Total number of electrons                                              31.00
    Multiplicity                                                   not specified
    S   [  2.00  2.00  2.00] 2.00
    P   [  6.00  6.00] 1.00
    D     10.00


 *******************************************************************************
                  Iteration          Convergence                     Energy [au]
 *******************************************************************************
                          1         14.6267                     -30.278590780619
                          2        0.584311                     -73.926303346161
                          3        0.114056                     -74.131533965677
                          4        0.795886E-02                 -74.135235267635
                          5        0.586484E-02                 -74.135238808760
                          6        0.521376E-02                 -74.135239877291
                          7        0.743475E-05                 -74.135243884417
                          8        0.878785E-06                 -74.135243884518

 Energy components [Hartree]           Total Energy ::          -74.135243884518
                                        Band Energy ::           -6.976093420237
                                     Kinetic Energy ::           99.957079189531
                                   Potential Energy ::         -174.092323074049
                                      Virial (-V/T) ::            1.741670769951
                                        Core Energy ::         -134.569749534154
                                          XC Energy ::           -9.820493113088
                                     Coulomb Energy ::           70.254998762724
                       Total Pseudopotential Energy ::         -234.591217066289
                       Local Pseudopotential Energy ::         -163.857179108626
                    Nonlocal Pseudopotential Energy ::          -70.734037957663
                                        Confinement ::            0.643883426040

 Orbital energies  State     L     Occupation   Energy[a.u.]          Energy[eV]

                       1     0          2.000      -0.293772           -7.993948

                       1     1          1.000      -0.041206           -1.121268

                       1     2         10.000      -0.634734          -17.271999


 Total Electron Density at R=0:                                         0.000031
 Re-scaling the density matrix to get the right number of electrons
                  # Electrons              Trace(P)               Scaling factor
                          104               104.000                        1.000


 SCF WAVEFUNCTION OPTIMIZATION

  Step     Update method      Time    Convergence         Total energy    Change
  ------------------------------------------------------------------------------
     1 NoMix/Diag. 0.10E+00    7.8     0.86132415      -597.0401809318 -5.97E+02
     2 Broy./Diag. 0.10E+00    8.1     0.00429090      -598.5069662598 -1.47E+00
     3 Broy./Diag. 0.10E+00    8.1     0.04694051      -597.3898900329  1.12E+00
     4 Broy./Diag. 0.10E+00    8.1     0.00087824      -596.6665272896  7.23E-01
     5 Broy./Diag. 0.10E+00    8.1     0.00187695      -596.6783952258 -1.19E-02
     6 Broy./Diag. 0.10E+00    8.1     0.00012160      -596.6957486180 -1.74E-02
     7 Broy./Diag. 0.10E+00    8.1     0.00092142      -596.6933780348  2.37E-03
     8 Broy./Diag. 0.10E+00    8.1     0.00006556      -596.6876536247  5.72E-03
     9 Broy./Diag. 0.10E+00    8.1     0.00031530      -596.6809266227  6.73E-03
    10 Broy./Diag. 0.10E+00    8.2     0.00001345      -596.6770363327  3.89E-03
    11 Broy./Diag. 0.10E+00    8.1     0.00010727      -596.6772809315 -2.45E-04
    12 Broy./Diag. 0.10E+00    8.1     0.00000153      -596.6773484727 -6.75E-05
    13 Broy./Diag. 0.10E+00    8.1     0.00001683      -596.6773598372 -1.14E-05
    14 Broy./Diag. 0.10E+00    8.2     0.00000059      -596.6773652855 -5.45E-06
    15 Broy./Diag. 0.10E+00    8.1     0.00000265      -596.6774365414 -7.13E-05
    16 Broy./Diag. 0.10E+00    8.1     0.00000115      -596.6774522356 -1.57E-05
    17 Broy./Diag. 0.10E+00    8.1     0.00000101      -596.6774122226  4.00E-05
    18 Broy./Diag. 0.10E+00    8.2     0.00000014      -596.6773990791  1.31E-05
    19 Broy./Diag. 0.10E+00    8.1     0.00000041      -596.6774039787 -4.90E-06
    20 Broy./Diag. 0.10E+00    8.1     0.00000014      -596.6774030467  9.32E-07
    21 Broy./Diag. 0.10E+00    8.1     0.00000009      -596.6773989054  4.14E-06
    22 Broy./Diag. 0.10E+00    8.1     0.00000005      -596.6773980643  8.41E-07
    23 Broy./Diag. 0.10E+00    8.1     0.00000003      -596.6773982608 -1.97E-07
    24 Broy./Diag. 0.10E+00    8.1     0.00000002      -596.6773976934  5.67E-07
    25 Broy./Diag. 0.10E+00    8.1     9.6315E-09      -596.6773971776  5.16E-07
    26 Broy./Diag. 0.10E+00    8.1     0.00000001      -596.6773973213 -1.44E-07
    27 Broy./Diag. 0.10E+00    8.2     0.00000002      -596.6773979514 -6.30E-07
    28 Broy./Diag. 0.10E+00    8.1     5.4381E-09      -596.6773981411 -1.90E-07
    29 Broy./Diag. 0.10E+00    8.1     6.0474E-09      -596.6773979493  1.92E-07
    30 Broy./Diag. 0.10E+00    8.1     2.1544E-09      -596.6773979148  3.45E-08
    31 Broy./Diag. 0.10E+00    8.1     1.9640E-09      -596.6773979695 -5.47E-08
    32 Broy./Diag. 0.10E+00    8.1     8.5193E-10      -596.6773979699 -3.87E-10

  *** SCF run converged in    32 steps ***


  Electronic density on regular grids:       -104.0000000000        0.0000000000
  Core density on regular grids:              104.0000000000        0.0000000000
  Total charge density on r-space grids:        0.0000000000
  Total charge density g-space grids:           0.0000000000

  Overlap energy of the core charge distribution:               0.00000000068162
  Self energy of the core charge distribution:               -778.35134383323123
  Core Hamiltonian energy:                                    233.67039095146583
  Hartree energy:                                              29.48070153898905
  Exchange-correlation energy:                                -81.47703040257898
  Electronic entropic energy:                                  -0.00011622521009
  Fermi energy:                                                 0.17933552598434

  Total energy:                                              -596.67739796988405

 !-----------------------------------------------------------------------------!
                     Mulliken Population Analysis

 #  Atom  Element  Kind  Atomic population                           Net charge
       1     Ga       1         13.000000                              0.000000
       2     Ga       1         13.000000                              0.000000
       3     Ga       1         13.000000                              0.000000
       4     Ga       1         13.000000                              0.000000
       5     Ga       1         13.000000                             -0.000000
       6     Ga       1         13.000000                             -0.000000
       7     Ga       1         13.000000                             -0.000000
       8     Ga       1         13.000000                             -0.000000
 # Total charge                            104.000000                 -0.000000

 !-----------------------------------------------------------------------------!

 !-----------------------------------------------------------------------------!
                           Hirshfeld Charges

  #Atom  Element  Kind  Ref Charge     Population                    Net charge
      1       Ga     1      13.000         13.000                        -0.000
      2       Ga     1      13.000         13.000                        -0.000
      3       Ga     1      13.000         13.000                        -0.000
      4       Ga     1      13.000         13.000                         0.000
      5       Ga     1      13.000         13.000                        -0.000
      6       Ga     1      13.000         13.000                        -0.000
      7       Ga     1      13.000         13.000                        -0.000
      8       Ga     1      13.000         13.000                        -0.000

  Total Charge                                                           -0.000
 !-----------------------------------------------------------------------------!

 KPOINTS| Band Structure Calculation
 KPOINTS| Number of k-point sets                                               1
 KPOINTS| Number of added MOs/bands                                           -1
 KPOINTS| Number of k-points in set    1                                     148
 KPOINTS| In units of b-vector [2pi/Bohr]
 KPOINTS| Special point     1 not specifi     0.000000     0.000000     0.000000
 KPOINTS| Special point     2 not specifi    -0.500000     0.500000     0.000000
 KPOINTS| Special point     3 not specifi    -0.336738     0.663262     0.000000
 KPOINTS| Special point     4 not specifi     0.000000     0.000000     0.000000
 KPOINTS| Time for k-point line                                            3.525

 ENERGY| Total FORCE_EVAL ( QS ) energy [hartree]           -596.677397969884055

 -------------------------------------------------------------------------------
 -                                                                             -
 -                                DBCSR STATISTICS                             -
 -                                                                             -
 -------------------------------------------------------------------------------
 COUNTER                                    TOTAL       BLAS       SMM       ACC
 flops inhomo. stacks                           0       0.0%      0.0%      0.0%
 flops total                         0.000000E+00       0.0%      0.0%      0.0%
 flops max/rank                      0.000000E+00       0.0%      0.0%      0.0%
 matmuls inhomo. stacks                         0       0.0%      0.0%      0.0%
 matmuls total                                  0       0.0%      0.0%      0.0%
 number of processed stacks                     0       0.0%      0.0%      0.0%
 average stack size                                     0.0       0.0       0.0
 marketing flops                     0.000000E+00
 -------------------------------------------------------------------------------
 -                                                                             -
 -                      DBCSR MESSAGE PASSING PERFORMANCE                      -
 -                                                                             -
 -------------------------------------------------------------------------------
 ROUTINE             CALLS      AVE VOLUME [Bytes]
 MP_Bcast                1                     12.
 MP_Allreduce           19                     21.
 MP_Alltoall        709384                  10718.
 -------------------------------------------------------------------------------

 -------------------------------------------------------------------------------
 -                                                                             -
 -                                DBM STATISTICS                               -
 -                                                                             -
 -------------------------------------------------------------------------------
    M  x    N  x    K                                          COUNT     PERCENT
 -------------------------------------------------------------------------------

 -------------------------------------------------------------------------------
 -                                                                             -
 -                                GRID STATISTICS                              -
 -                                                                             -
 -------------------------------------------------------------------------------
 LP    KERNEL             BACKEND                              COUNT     PERCENT
 4     collocate ortho    CPU                                3867468      50.77%
 4     integrate ortho    CPU                                3750272      49.23%
 0     collocate general  CPU                                     16       0.00%
 0     integrate general  CPU                                      8       0.00%
 -------------------------------------------------------------------------------

 MEMORY| Estimated peak process memory [MiB]                                 667

 -------------------------------------------------------------------------------
 ----                             MULTIGRID INFO                            ----
 -------------------------------------------------------------------------------
 count for grid        1:          58992          cutoff [a.u.]          500.00
 count for grid        2:          31824          cutoff [a.u.]          166.67
 count for grid        3:          35364          cutoff [a.u.]           55.56
 count for grid        4:         118936          cutoff [a.u.]           18.52
 total gridlevel count  :         245116

 -------------------------------------------------------------------------------
 -                                                                             -
 -                         MESSAGE PASSING PERFORMANCE                         -
 -                                                                             -
 -------------------------------------------------------------------------------

 ROUTINE             CALLS      AVE VOLUME [Bytes]
 MP_Group                6
 MP_Bcast           298657                   1233.
 MP_Allreduce       111437                     98.
 MP_Sync                 4
 MP_Alltoall           581                6678039.
 MP_SendRecv           938                 421490.
 MP_ISendRecv          903                 415122.
 MP_Wait            206171
 MP_comm_split           4
 MP_ISend           218444                   4734.
 MP_IRecv           348800                   2971.
 -------------------------------------------------------------------------------


 -------------------------------------------------------------------------------
 -                                                                             -
 -                           R E F E R E N C E S                               -
 -                                                                             -
 -------------------------------------------------------------------------------
 
 CP2K version 2025.1 (Development Version), the CP2K developers group (2025).
 CP2K is freely available from https://www.cp2k.org/ .
 
 T. D. Kuehne, M. Iannuzzi, M. Del Ben, V. V. Rybkin, P. Seewald, F. Stein, T. 
 Laino, R. Z. Khaliullin, O. Schuett, F. Schiffmann, D. Golze, J. Wilhelm, S. 
 Chulkov, M. H. Bani-Hashemian, V. Weber, U. Borstnik, M. Taillefumier, A. S. 
 Jakobovits, A. Lazzaro, H. Pabst, T. Mueller, R. Schade, M. Guidon, S. 
 Andermatt, N. Holmberg, G. K. Schenter, A. Hehn, A. Bussy, F. Belleflamme, G. 
 Tabacchi, A. Gloess, M. Lass, I. Bethune, C. J. Mundy, C. Plessl, M. Watkins, 
 J. VandeVondele, M. Krack, J. Hutter.
 J. Chem. Phys. 152, 194103 (2020).
 CP2K: An electronic structure and molecular dynamics software package - 
 Quickstep: Efficient and accurate electronic structure calculations.
 https://doi.org/10.1063/5.0007045

 O. Schuett, P. Messmer, J. Hutter, J. VandeVondele.
 Electronic Structure Calculations on Graphics Processing Units, 173-190 (2016).
 GPU-Accelerated Sparse Matrix-Matrix Multiplication for Linear Scaling Density 
 Functional Theory.
 https://doi.org/10.1002/9781118670712.ch8

 J. Hutter, M. Iannuzzi, F. Schiffmann, J. VandeVondele.
 WIREs Comput Mol Sci. 4, 15-25 (2014).
 CP2K: atomistic simulations of condensed matter systems.
 https://doi.org/10.1002/wcms.1159

 U. Borstnik, J. VandeVondele, V. Weber, J. Hutter.
 Parallel Comput. 40, 47-58 (2014).
 Sparse matrix multiplication: The distributed block-compressed sparse row 
 library.
 https://doi.org/10.1016/j.parco.2014.03.012

 J. VandeVondele, J. Hutter.
 J. Chem. Phys. 127, 114105 (2007).
 Gaussian basis sets for accurate calculations on molecular systems in gas and 
 condensed phases.
 https://doi.org/10.1063/1.2770708

 J. VandeVondele, M. Krack, F. Mohamed, M. Parrinello, T. Chassaing, J. Hutter.
 Comput. Phys. Commun. 167, 103-128 (2005).
 QUICKSTEP: Fast and accurate density functional calculations using a mixed 
 Gaussian and plane waves approach.
 https://doi.org/10.1016/j.cpc.2004.12.014

 M. Krack.
 Theor. Chem. Acc. 114, 145-152 (2005).
 Pseudopotentials for H to Kr optimized for gradient-corrected 
 exchange-correlation functionals.
 https://doi.org/10.1007/s00214-005-0655-y

 M. Frigo, S. G. Johnson.
 Proc. IEEE 93, 216-231 (2005).
 The design and implementation of FFTW3.
 https://doi.org/10.1109/JPROC.2004.840301

 C. Hartwigsen, S. Goedecker, J. Hutter.
 Phys. Rev. B 58, 3641-3662 (1998).
 Relativistic separable dual-space Gaussian pseudopotentials from H to Rn.
 https://doi.org/10.1103/PhysRevB.58.3641

 G. Lippert, J. Hutter, M. Parrinello.
 Mol. Phys. 92, 477-487 (1997).
 A hybrid Gaussian and plane wave density functional scheme.
 https://doi.org/10.1080/002689797170220

 S. Goedecker, M. Teter, J. Hutter.
 Phys. Rev. B 54, 1703-1710 (1996).
 Separable dual-space Gaussian pseudopotentials.
 https://doi.org/10.1103/PhysRevB.54.1703

 J. P. Perdew, K. Burke, M. Ernzerhof.
 Phys. Rev. Lett. 77, 3865-3868 (1996).
 Generalized gradient approximation made simple.
 https://doi.org/10.1103/PhysRevLett.77.3865


 -------------------------------------------------------------------------------
 -                                                                             -
 -                                T I M I N G                                  -
 -                                                                             -
 -------------------------------------------------------------------------------
 SUBROUTINE                       CALLS  ASD         SELF TIME        TOTAL TIME
                                MAXIMUM       AVERAGE  MAXIMUM  AVERAGE  MAXIMUM
 CP2K                                 1  1.0    0.015    0.019  268.732  268.732
 qs_energies                          1  2.0    0.021    0.135  268.426  268.490
 scf_env_do_scf                       1  3.0    0.000    0.000  262.195  262.195
 scf_env_do_scf_inner_loop           32  4.0    0.034    0.036  262.195  262.195
 do_general_diag_kp                  33  5.9    0.226    0.253  233.320  238.157
 qs_scf_new_mos_kp                   32  5.0    0.000    0.000  229.967  234.829
 rskp_transform                   16680  6.9  103.950  118.429  103.950  118.429
 mp_alltoall_i22                 121060  8.8   26.096   82.871   26.096   82.871
 dbcsr_desymmetrize_deep          69018  7.4    1.401    1.466   26.029   66.756
 kpoint_density_transform            32  7.0    0.096    0.105   63.930   64.265
 transform_dmat                    8192  8.0   46.485   52.550   46.485   52.550
 dbcsr_complete_redistribute      52042  8.2    2.454    2.616   23.773   40.029
 copy_fm_to_dbcsr                 16384  8.0    0.108    0.115   12.063   28.075
 copy_dbcsr_to_fm                 35658  6.9    0.400    0.419   19.370   19.789
 qs_ks_update_qs_env                 32  5.0    0.000    0.000   17.408   19.677
 rebuild_ks_matrix                   32  6.0    0.000    0.000   16.150   18.418
 qs_ks_build_kohn_sham_matrix        32  7.0    0.063    0.065   16.150   18.418
 sum_up_and_integrate                32  8.0    0.000    0.000   14.656   16.942
 integrate_v_rspace                  32  9.0    0.122    0.190   14.654   16.940
 grid_integrate_task_list            32 10.0   14.039   16.240   14.039   16.240
 cp_cfm_geeig_canon                1061  6.9    0.012    0.014   14.919   15.174
 cp_cfm_heevd                      2122  7.9    0.003    0.004   13.043   13.268
 cp_cfm_heevd_base                 2122  8.9   13.040   13.264   13.040   13.264
 qs_rho_update_rho_low               33  5.0    0.000    0.000   10.964   10.984
 calculate_rho_elec                  33  6.0    0.059    0.066   10.963   10.984
 grid_collocate_task_list            33  7.0    8.745   10.112    8.745   10.112
 cp_fm_start_copy_general         49744  7.3    1.667    2.011    9.751   10.041
 mp_allgather_i                   99488  8.3    6.048    6.394    6.048    6.394
 transfer_rs2pw                     134  8.0    0.002    0.002    2.030    5.305
 transfer_rs2pw_500                  35  8.9    0.163    0.170    1.909    5.198
 mp_sendrecv_dv                     938 10.0    1.826    5.096    1.826    5.096
 density_rs2pw                       33  7.0    0.001    0.002    2.154    5.054
 mp_alltoall_d11v                363180  9.3    4.771    5.031    4.771    5.031
 dbcsr_finalize                  139832  8.4    0.616    0.664    4.554    4.814
 mp_cart_sub                      71318  8.9    3.111    3.121    3.111    3.121
 hybrid_alltoall_any              69018  8.4    0.295    0.313    2.895    3.049
 dbcsr_merge_all                  52042 10.2    1.383    1.573    2.555    2.743
 mp_alltoall_i11v                225144  9.0    2.471    2.603    2.471    2.603
 kpoint_density_matrices             32  7.0    0.035    0.036    2.119    2.351
 parallel_gemm_fm                  4096  8.0    0.004    0.004    2.056    2.287
 parallel_gemm_fm_gemm             4096  9.0    0.004    0.004    2.052    2.283
 cp_fm_gemm                        4096 10.0    2.048    2.279    2.048    2.279
 write_kpoints_restart               32  5.0    0.009    0.013    2.255    2.256
 kpoint_set_mo_occupation            32  7.0    1.528    1.551    1.851    2.024
 mp_cart_create                   35665  8.9    1.852    1.895    1.852    1.895
 cp_cfm_gemm                       3183  7.9    1.782    1.811    1.782    1.811
 qs_energies_init_hamiltonians        1  3.0    0.000    0.000    1.701    1.701
 cp_dbcsr_alloc_block_from_nbl     8237  5.1    1.204    1.341    1.306    1.451
 build_core_hamiltonian_matrix        1  4.0    0.004    0.004    1.264    1.409
 cp_fm_finish_copy_general        20628  7.8    1.337    1.357    1.384    1.408
 mp_bcast_iv                     199000  8.3    1.241    1.391    1.241    1.391
 fft_wrap_pw1pw2                    581 10.0    0.006    0.007    1.350    1.366
 dbcsr_dot                        73537  8.0    0.535    0.573    1.242    1.361
 dbcsr_copy                       91069  6.9    0.468    0.485    1.207    1.303
 dbcsr_create_new                254909  8.0    1.017    1.063    1.229    1.295
 fft_wrap_pw1pw2_500                386 11.3    0.101    0.104    1.250    1.264
 evaluate_core_matrix_traces         32  6.0    0.000    0.000    1.258    1.258
 calculate_ptrace_kp                 64  7.0    0.057    0.066    1.258    1.258
 dbcsr_work_create               121060  8.8    0.763    0.788    1.204    1.244
 fft3d_ps                           581 12.0    0.485    0.493    1.074    1.092
 cp_fm_write_unformatted           2298  6.0    0.547    0.919    0.658    1.034
 dbcsr_iterator_start            440684  8.9    0.814    0.838    0.957    0.982
 qs_vxc_create                       32  8.0    0.000    0.001    0.947    0.949
 xc_vxc_pw_create                    32  9.0    0.038    0.040    0.947    0.949
 dbcsr_work_destroy_all          121060  9.8    0.576    0.584    0.928    0.945
 copy_fm_to_dbcsr_bc              16384  9.0    0.243    0.257    0.833    0.879
 copy_dbcsr_to_fm_bc              35658  7.9    0.436    0.444    0.862    0.871
 gspace_mixing                       31  5.0    0.034    0.036    0.837    0.837
 mp_sum_d                         74211  9.0    0.549    0.827    0.549    0.827
 self_consistency_check              32  5.0    0.053    0.057    0.752    0.815
 dbcsr_data_new                 1308208  9.7    0.777    0.810    0.777    0.810
 tree_to_linear_d                 52042 11.2    0.765    0.797    0.765    0.797
 dbcsr_data_release             1886928 10.1    0.756    0.773    0.756    0.773
 qs_env_update_s_mstruct              1  4.0    0.000    0.000    0.398    0.701
 broyden_mixing                      31  6.0    0.662    0.675    0.685    0.693
 dbcsr_copy_into_existing         17533  9.7    0.508    0.586    0.611    0.691
 build_core_ppnl                      1  5.0    0.594    0.686    0.594    0.686
 cp_sm_mix                        36768  6.0    0.233    0.252    0.600    0.680
 dbcsr_iterator_stop             440684  8.9    0.520    0.529    0.616    0.629
 xc_pw_derive                       192 11.0    0.001    0.001    0.609    0.616
 dbcsr_destroy                   181373  8.1    0.310    0.319    0.571    0.596
 calculate_rho_core                   1  5.0    0.002    0.003    0.168    0.543
 mp_alltoall_z22v                   581 14.0    0.512    0.538    0.512    0.538
 init_scf_run                         1  3.0    0.000    0.000    0.406    0.523
 scf_env_initial_rho_setup            1  4.0    0.000    0.000    0.406    0.523
 xc_rho_set_and_dset_create          32 10.0    0.024    0.028    0.508    0.520
 potential_pw2rs                     32 10.0    0.003    0.003    0.492    0.510
 mp_sum_dm3                          32  8.0    0.324    0.502    0.324    0.502
 mp_waitall_1                    206171  8.3    0.287    0.472    0.287    0.472
 mp_send_dv                        2298  7.0    0.097    0.426    0.097    0.426
 mp_bcast_im                      99488  8.3    0.376    0.425    0.376    0.425
 mixing_allocate                      1  3.0    0.007    0.007    0.381    0.423
 quick_finalize                   69018  9.4    0.232    0.240    0.402    0.412
 mp_max_d                         36770  7.0    0.281    0.408    0.281    0.408
 xc_pw_divergence                    32 10.0    0.000    0.001    0.394    0.401
 dbcsr_set                       165961  7.6    0.161    0.166    0.362    0.389
 x_to_yz                            320 13.2    0.043    0.047    0.328    0.343
 transfer_pw2rs                     129 11.0    0.001    0.001    0.340    0.341
 mp_isend_dv                      50336  8.3    0.268    0.310    0.268    0.310
 mp_comm_free                    107017  8.9    0.277    0.304    0.277    0.304
 yz_to_x                            261 12.8    0.028    0.029    0.256    0.281
 transfer_pw2rs_500                  33 11.9    0.130    0.133    0.249    0.261
 dbcsr_reserve_blocks             24621  9.3    0.205    0.222    0.229    0.247
 build_overlap_matrix_low             1  5.0    0.030    0.037    0.214    0.240
 build_kinetic_matrix_low             1  5.0    0.028    0.035    0.212    0.237
 dbcsr_zero                      165961  8.6    0.201    0.223    0.201    0.223
 dbcsr_sort_indices              145681 10.7    0.205    0.222    0.205    0.222
 qs_env_rebuild_rho                   1  5.0    0.000    0.000    0.189    0.210
 qs_rho_rebuild                       1  6.0    0.003    0.003    0.189    0.210
 mp_sum_dv                          327  3.4    0.085    0.192    0.085    0.192
 xc_functional_eval                  32 11.0    0.000    0.000    0.167    0.176
 pbe_lda_eval                        32 12.0    0.167    0.176    0.167    0.176
 dbcsr_data_copy_aa2              52042 11.2    0.164    0.173    0.164    0.173
 dbcsr_reserve_all_blocks         16384 10.0    0.029    0.032    0.160    0.171
 calculate_first_density_matrix       1  5.0    0.001    0.001    0.049    0.166
 calculate_atomic_block_dm            1  6.0    0.001    0.001    0.045    0.163
 dbcsr_make_index_exist          254909  9.0    0.138    0.150    0.138    0.150
 dbcsr_iterator_seek             440684  9.9    0.143    0.150    0.143    0.150
 restraint_control                    1  2.0    0.000    0.000    0.064    0.128
 mp_sum_i                             4  2.8    0.064    0.128    0.064    0.128
 cp_cfm_scale_and_add_fm           4244  6.9    0.123    0.127    0.123    0.127
 merge_index                      52042 11.2    0.108    0.125    0.108    0.125
 transfer_rs2pw_170                  33  9.0    0.032    0.034    0.097    0.123
 mp_recv_dv                        6894  7.0    0.014    0.116    0.014    0.116
 mp_irecv_iv                     198976  8.3    0.014    0.110    0.014    0.110
 calculate_ecore_overlap              1  4.0    0.000    0.000    0.026    0.098
 pw_scatter_p                       320 12.2    0.089    0.092    0.089    0.092
 parser_read_line                  5839  4.1    0.002    0.002    0.085    0.086
 parser_read_line_low                23  6.2    0.008    0.031    0.083    0.085
 dbcsr_switch_data_area           69018 10.4    0.062    0.063    0.082    0.083
 cp_fm_cleanup_copy_general       35408  7.0    0.054    0.055    0.081    0.083
 broadcast_input_information         23  7.2    0.026    0.030    0.075    0.080
 pw_poisson_solve                    32  8.0    0.000    0.000    0.079    0.079
 mp_sum_iv                           24  5.3    0.021    0.079    0.021    0.079
 qs_scf_ensure_work_matrices          1  3.0    0.000    0.000    0.021    0.078
 mp_isend_iv                     112072  8.3    0.020    0.077    0.020    0.077
 mp_isendrecv_dv                    903 13.0    0.034    0.077    0.034    0.077
 transfer_pw2rs_170                  32 12.0    0.031    0.032    0.068    0.077
 fft_wrap_pw1pw2_170                 65 10.5    0.005    0.005    0.064    0.067
 qs_init_subsys                       1  2.0    0.001    0.002    0.065    0.065
 topology_control                     1  2.0    0.000    0.000    0.064    0.064
 qs_env_setup                         1  3.0    0.000    0.000    0.062    0.062
 qs_env_rebuild_pw_env                2  3.5    0.000    0.000    0.061    0.062
 pw_env_rebuild                       1  5.0    0.000    0.000    0.061    0.061
 dbcsr_distribution_new           52044  8.6    0.050    0.056    0.050    0.056
 create_qs_kind_set                   1  2.0    0.000    0.000    0.055    0.056
 read_qs_kind                         1  3.0    0.029    0.031    0.055    0.056
 dbcsr_get_data_size_used        121060  9.8    0.052    0.054    0.052    0.054
 scf_post_calculation_gpw             1  3.0    0.000    0.000    0.053    0.053
 write_available_results              1  4.0    0.000    0.000    0.053    0.053
 write_mo_free_results                1  5.0    0.002    0.002    0.053    0.053
 pw_integral_ab_c1d_c1d_gs           32  9.0    0.049    0.050    0.051    0.052
 cp_cfm_to_fm                      1061  6.9    0.050    0.051    0.050    0.051
 pw_grid_setup                        4  6.0    0.000    0.000    0.050    0.051
 pw_grid_setup_internal               4  7.0    0.001    0.002    0.050    0.051
 mp_irecv_im2                     99488  8.3    0.006    0.051    0.006    0.051
 qs_create_task_list                  1  5.0    0.000    0.000    0.040    0.046
 generate_qs_task_list                1  6.0    0.028    0.031    0.040    0.046
 pw_gather_p                        261 11.8    0.044    0.045    0.044    0.045
 dbcsr_make_dbcsr_index          145681 10.7    0.043    0.045    0.043    0.045
 read_cell_cif                        2  4.5    0.002    0.004    0.044    0.045
 cp_cfm_column_scale               1061  7.9    0.043    0.043    0.043    0.043
 cp_cfm_zscale                     1061  7.9    0.039    0.039    0.039    0.039
 coordinate_control                   1  3.0    0.000    0.001    0.039    0.039
 coordinate_control_READ_COORDI       1  4.0    0.000    0.000    0.038    0.039
 read_coordinate_cif                  1  5.0    0.002    0.002    0.038    0.038
 mp_bcast_i_src                      92  8.2    0.030    0.035    0.030    0.035
 pw_grid_sort                         4  8.0    0.022    0.023    0.034    0.034
 mp_isend_im2                     56036  8.3    0.009    0.034    0.009    0.034
 mp_irecv_dv                      50336  8.3    0.030    0.033    0.030    0.033
 pw_copy                            480 10.5    0.030    0.032    0.030    0.032
 cp_fm_to_fm_matrix                2048  8.0    0.028    0.029    0.028    0.029
 cp_fm_create                       455  4.0    0.028    0.028    0.028    0.028
 -------------------------------------------------------------------------------

 The number of warnings for this run is : 1
 
 -------------------------------------------------------------------------------
  **** **** ******  **  PROGRAM ENDED AT                 2025-08-04 18:04:16.850
 ***** ** ***  *** **   PROGRAM RAN ON                              i04r07c05s02
 **    ****   ******    PROGRAM RAN BY                                   di38fab
 ***** **    ** ** **   PROGRAM PROCESS ID                               3637308
  **** **  *******  **  PROGRAM STOPPED IN /hppfs/scratch/04/di38fab/09_GTH/Delt
                                           a_Set/Ga/aug-SZV-MOLOPT-GTH-tier-1/8x
                                           8x8
