   3   3   0   0
  0.3706986E+02  0.9418130E-09  0.9418130E-09  0.9418130E-09  0.5000000E-15
  1.000000000000000E-004
  CAR 
 Na                                      
     28.98527853    -27.14350616  301      0.28800049      1.00000000
    -27.144  0.0000E+00  0.0000E+00
    -26.956  0.0000E+00  0.0000E+00
    -26.769  0.0000E+00  0.0000E+00
    -26.582  0.0000E+00  0.0000E+00
    -26.395  0.0000E+00  0.0000E+00
    -26.208  0.0000E+00  0.0000E+00
    -26.021  0.0000E+00  0.0000E+00
    -25.834  0.0000E+00  0.0000E+00
    -25.647  0.0000E+00  0.0000E+00
    -25.460  0.0000E+00  0.0000E+00
    -25.273  0.0000E+00  0.0000E+00
    -25.085  0.0000E+00  0.0000E+00
    -24.898  0.0000E+00  0.0000E+00
    -24.711  0.6195E-02  0.1159E-02
    -24.524  0.8665E+02  0.1621E+02
    -24.337  0.9554E+01  0.1800E+02
    -24.150  0.0000E+00  0.1800E+02
    -23.963  0.0000E+00  0.1800E+02
    -23.776  0.0000E+00  0.1800E+02
    -23.589  0.0000E+00  0.1800E+02
    -23.402  0.0000E+00  0.1800E+02
    -23.214  0.0000E+00  0.1800E+02
    -23.027  0.0000E+00  0.1800E+02
    -22.840  0.0000E+00  0.1800E+02
    -22.653  0.0000E+00  0.1800E+02
    -22.466  0.0000E+00  0.1800E+02
    -22.279  0.0000E+00  0.1800E+02
    -22.092  0.0000E+00  0.1800E+02
    -21.905  0.0000E+00  0.1800E+02
    -21.718  0.0000E+00  0.1800E+02
    -21.531  0.0000E+00  0.1800E+02
    -21.344  0.0000E+00  0.1800E+02
    -21.156  0.0000E+00  0.1800E+02
    -20.969  0.0000E+00  0.1800E+02
    -20.782  0.0000E+00  0.1800E+02
    -20.595  0.0000E+00  0.1800E+02
    -20.408  0.0000E+00  0.1800E+02
    -20.221  0.0000E+00  0.1800E+02
    -20.034  0.0000E+00  0.1800E+02
    -19.847  0.0000E+00  0.1800E+02
    -19.660  0.0000E+00  0.1800E+02
    -19.473  0.0000E+00  0.1800E+02
    -19.285  0.0000E+00  0.1800E+02
    -19.098  0.0000E+00  0.1800E+02
    -18.911  0.0000E+00  0.1800E+02
    -18.724  0.0000E+00  0.1800E+02
    -18.537  0.0000E+00  0.1800E+02
    -18.350  0.0000E+00  0.1800E+02
    -18.163  0.0000E+00  0.1800E+02
    -17.976  0.0000E+00  0.1800E+02
    -17.789  0.0000E+00  0.1800E+02
    -17.602  0.0000E+00  0.1800E+02
    -17.415  0.0000E+00  0.1800E+02
    -17.227  0.0000E+00  0.1800E+02
    -17.040  0.0000E+00  0.1800E+02
    -16.853  0.0000E+00  0.1800E+02
    -16.666  0.0000E+00  0.1800E+02
    -16.479  0.0000E+00  0.1800E+02
    -16.292  0.0000E+00  0.1800E+02
    -16.105  0.0000E+00  0.1800E+02
    -15.918  0.0000E+00  0.1800E+02
    -15.731  0.0000E+00  0.1800E+02
    -15.544  0.0000E+00  0.1800E+02
    -15.356  0.0000E+00  0.1800E+02
    -15.169  0.0000E+00  0.1800E+02
    -14.982  0.0000E+00  0.1800E+02
    -14.795  0.0000E+00  0.1800E+02
    -14.608  0.0000E+00  0.1800E+02
    -14.421  0.0000E+00  0.1800E+02
    -14.234  0.0000E+00  0.1800E+02
    -14.047  0.0000E+00  0.1800E+02
    -13.860  0.0000E+00  0.1800E+02
    -13.673  0.0000E+00  0.1800E+02
    -13.486  0.0000E+00  0.1800E+02
    -13.298  0.0000E+00  0.1800E+02
    -13.111  0.0000E+00  0.1800E+02
    -12.924  0.0000E+00  0.1800E+02
    -12.737  0.0000E+00  0.1800E+02
    -12.550  0.0000E+00  0.1800E+02
    -12.363  0.0000E+00  0.1800E+02
    -12.176  0.0000E+00  0.1800E+02
    -11.989  0.0000E+00  0.1800E+02
    -11.802  0.0000E+00  0.1800E+02
    -11.615  0.0000E+00  0.1800E+02
    -11.427  0.0000E+00  0.1800E+02
    -11.240  0.0000E+00  0.1800E+02
    -11.053  0.0000E+00  0.1800E+02
    -10.866  0.0000E+00  0.1800E+02
    -10.679  0.0000E+00  0.1800E+02
    -10.492  0.0000E+00  0.1800E+02
    -10.305  0.0000E+00  0.1800E+02
    -10.118  0.0000E+00  0.1800E+02
     -9.931  0.0000E+00  0.1800E+02
     -9.744  0.0000E+00  0.1800E+02
     -9.556  0.0000E+00  0.1800E+02
     -9.369  0.0000E+00  0.1800E+02
     -9.182  0.0000E+00  0.1800E+02
     -8.995  0.0000E+00  0.1800E+02
     -8.808  0.0000E+00  0.1800E+02
     -8.621  0.0000E+00  0.1800E+02
     -8.434  0.0000E+00  0.1800E+02
     -8.247  0.0000E+00  0.1800E+02
     -8.060  0.0000E+00  0.1800E+02
     -7.873  0.0000E+00  0.1800E+02
     -7.686  0.0000E+00  0.1800E+02
     -7.498  0.0000E+00  0.1800E+02
     -7.311  0.0000E+00  0.1800E+02
     -7.124  0.0000E+00  0.1800E+02
     -6.937  0.0000E+00  0.1800E+02
     -6.750  0.0000E+00  0.1800E+02
     -6.563  0.0000E+00  0.1800E+02
     -6.376  0.0000E+00  0.1800E+02
     -6.189  0.0000E+00  0.1800E+02
     -6.002  0.0000E+00  0.1800E+02
     -5.815  0.0000E+00  0.1800E+02
     -5.627  0.0000E+00  0.1800E+02
     -5.440  0.0000E+00  0.1800E+02
     -5.253  0.0000E+00  0.1800E+02
     -5.066  0.0000E+00  0.1800E+02
     -4.879  0.0000E+00  0.1800E+02
     -4.692  0.0000E+00  0.1800E+02
     -4.505  0.0000E+00  0.1800E+02
     -4.318  0.0000E+00  0.1800E+02
     -4.131  0.0000E+00  0.1800E+02
     -3.944  0.0000E+00  0.1800E+02
     -3.757  0.0000E+00  0.1800E+02
     -3.569  0.0000E+00  0.1800E+02
     -3.382  0.0000E+00  0.1800E+02
     -3.195  0.4816E-13  0.1800E+02
     -3.008  0.1389E-02  0.1800E+02
     -2.821  0.8869E-01  0.1802E+02
     -2.634  0.4785E+00  0.1811E+02
     -2.447  0.3745E+00  0.1818E+02
     -2.260  0.3731E+00  0.1825E+02
     -2.073  0.7848E+00  0.1839E+02
     -1.886  0.9432E+00  0.1857E+02
     -1.698  0.7086E+00  0.1870E+02
     -1.511  0.5817E+00  0.1881E+02
     -1.324  0.8280E+00  0.1897E+02
     -1.137  0.1514E+01  0.1925E+02
     -0.950  0.8018E+00  0.1940E+02
     -0.763  0.1441E+01  0.1967E+02
     -0.576  0.8084E+00  0.1982E+02
     -0.389  0.1113E+01  0.2003E+02
     -0.202  0.8697E+00  0.2019E+02
     -0.015  0.1470E+01  0.2047E+02
      0.173  0.2068E+01  0.2085E+02
      0.360  0.1187E+01  0.2107E+02
      0.547  0.1505E+01  0.2136E+02
      0.734  0.1345E+01  0.2161E+02
      0.921  0.1386E+01  0.2187E+02
      1.108  0.1452E+01  0.2214E+02
      1.295  0.1634E+01  0.2244E+02
      1.482  0.1668E+01  0.2276E+02
      1.669  0.1785E+01  0.2309E+02
      1.856  0.2651E+01  0.2359E+02
      2.043  0.1096E+01  0.2379E+02
      2.231  0.1610E+01  0.2409E+02
      2.418  0.1434E+01  0.2436E+02
      2.605  0.1749E+01  0.2469E+02
      2.792  0.1921E+01  0.2505E+02
      2.979  0.2038E+01  0.2543E+02
      3.166  0.2258E+01  0.2585E+02
      3.353  0.1649E+01  0.2616E+02
      3.540  0.2887E+01  0.2670E+02
      3.727  0.9310E+00  0.2687E+02
      3.914  0.2521E+01  0.2735E+02
      4.102  0.1932E+01  0.2771E+02
      4.289  0.2375E+01  0.2815E+02
      4.476  0.1823E+01  0.2849E+02
      4.663  0.2459E+01  0.2895E+02
      4.850  0.1818E+01  0.2929E+02
      5.037  0.1952E+01  0.2966E+02
      5.224  0.2020E+01  0.3004E+02
      5.411  0.1958E+01  0.3040E+02
      5.598  0.3020E+01  0.3097E+02
      5.785  0.3077E+01  0.3154E+02
      5.972  0.1103E+01  0.3175E+02
      6.160  0.2801E+01  0.3227E+02
      6.347  0.2032E+01  0.3265E+02
      6.534  0.2327E+01  0.3309E+02
      6.721  0.3652E+01  0.3377E+02
      6.908  0.1877E+01  0.3412E+02
      7.095  0.2280E+01  0.3455E+02
      7.282  0.2637E+01  0.3504E+02
      7.469  0.2044E+01  0.3543E+02
      7.656  0.1745E+01  0.3575E+02
      7.843  0.3437E+01  0.3640E+02
      8.031  0.2621E+01  0.3689E+02
      8.218  0.2622E+01  0.3738E+02
      8.405  0.2826E+01  0.3791E+02
      8.592  0.3097E+01  0.3849E+02
      8.779  0.3483E+01  0.3914E+02
      8.966  0.2030E+01  0.3952E+02
      9.153  0.3159E+01  0.4011E+02
      9.340  0.2611E+01  0.4060E+02
      9.527  0.3180E+01  0.4119E+02
      9.714  0.2098E+01  0.4158E+02
      9.901  0.2838E+01  0.4211E+02
     10.089  0.2338E+01  0.4255E+02
     10.276  0.2362E+01  0.4299E+02
     10.463  0.2772E+01  0.4351E+02
     10.650  0.3989E+01  0.4426E+02
     10.837  0.2466E+01  0.4472E+02
     11.024  0.3978E+01  0.4546E+02
     11.211  0.2766E+01  0.4598E+02
     11.398  0.3414E+01  0.4662E+02
     11.585  0.2823E+01  0.4715E+02
     11.772  0.3293E+01  0.4777E+02
     11.960  0.2531E+01  0.4824E+02
     12.147  0.2553E+01  0.4872E+02
     12.334  0.4392E+01  0.4954E+02
     12.521  0.3334E+01  0.5016E+02
     12.708  0.2337E+01  0.5060E+02
     12.895  0.2613E+01  0.5109E+02
     13.082  0.3147E+01  0.5168E+02
     13.269  0.3061E+01  0.5225E+02
     13.456  0.3344E+01  0.5288E+02
     13.643  0.4150E+01  0.5365E+02
     13.831  0.4117E+01  0.5442E+02
     14.018  0.3071E+01  0.5500E+02
     14.205  0.3247E+01  0.5560E+02
     14.392  0.3878E+01  0.5633E+02
     14.579  0.4032E+01  0.5708E+02
     14.766  0.3602E+01  0.5776E+02
     14.953  0.3470E+01  0.5841E+02
     15.140  0.3659E+01  0.5909E+02
     15.327  0.2606E+01  0.5958E+02
     15.514  0.3865E+01  0.6030E+02
     15.701  0.3515E+01  0.6096E+02
     15.889  0.2932E+01  0.6151E+02
     16.076  0.4299E+01  0.6231E+02
     16.263  0.3498E+01  0.6297E+02
     16.450  0.2568E+01  0.6345E+02
     16.637  0.4574E+01  0.6430E+02
     16.824  0.3525E+01  0.6496E+02
     17.011  0.4597E+01  0.6582E+02
     17.198  0.4534E+01  0.6667E+02
     17.385  0.3666E+01  0.6736E+02
     17.572  0.4060E+01  0.6812E+02
     17.760  0.3872E+01  0.6884E+02
     17.947  0.3635E+01  0.6952E+02
     18.134  0.3914E+01  0.7025E+02
     18.321  0.4593E+01  0.7111E+02
     18.508  0.3561E+01  0.7178E+02
     18.695  0.3083E+01  0.7236E+02
     18.882  0.3245E+01  0.7296E+02
     19.069  0.3266E+01  0.7357E+02
     19.256  0.4052E+01  0.7433E+02
     19.443  0.3073E+01  0.7491E+02
     19.630  0.4003E+01  0.7566E+02
     19.818  0.4686E+01  0.7653E+02
     20.005  0.3068E+01  0.7711E+02
     20.192  0.2928E+01  0.7766E+02
     20.379  0.4826E+01  0.7856E+02
     20.566  0.4175E+01  0.7934E+02
     20.753  0.4461E+01  0.8017E+02
     20.940  0.3191E+01  0.8077E+02
     21.127  0.1796E+01  0.8111E+02
     21.314  0.3434E+01  0.8175E+02
     21.501  0.3970E+01  0.8249E+02
     21.689  0.3179E+01  0.8309E+02
     21.876  0.3177E+01  0.8368E+02
     22.063  0.3580E+01  0.8435E+02
     22.250  0.2836E+01  0.8488E+02
     22.437  0.3191E+01  0.8548E+02
     22.624  0.4316E+01  0.8629E+02
     22.811  0.4452E+01  0.8712E+02
     22.998  0.4904E+01  0.8804E+02
     23.185  0.2118E+01  0.8843E+02
     23.372  0.5358E+01  0.8944E+02
     23.559  0.2581E+01  0.8992E+02
     23.747  0.3191E+01  0.9052E+02
     23.934  0.3466E+01  0.9116E+02
     24.121  0.4855E+01  0.9207E+02
     24.308  0.3096E+01  0.9265E+02
     24.495  0.3236E+01  0.9326E+02
     24.682  0.3467E+01  0.9391E+02
     24.869  0.3615E+01  0.9458E+02
     25.056  0.2448E+01  0.9504E+02
     25.243  0.1663E+01  0.9535E+02
     25.430  0.7867E+00  0.9550E+02
     25.618  0.8680E+00  0.9566E+02
     25.805  0.4069E+00  0.9574E+02
     25.992  0.5254E+00  0.9584E+02
     26.179  0.2570E+00  0.9588E+02
     26.366  0.2723E+00  0.9593E+02
     26.553  0.3479E+00  0.9600E+02
     26.740  0.5549E-04  0.9600E+02
     26.927  0.0000E+00  0.9600E+02
     27.114  0.0000E+00  0.9600E+02
     27.301  0.0000E+00  0.9600E+02
     27.489  0.0000E+00  0.9600E+02
     27.676  0.0000E+00  0.9600E+02
     27.863  0.0000E+00  0.9600E+02
     28.050  0.0000E+00  0.9600E+02
     28.237  0.0000E+00  0.9600E+02
     28.424  0.0000E+00  0.9600E+02
     28.611  0.0000E+00  0.9600E+02
     28.798  0.0000E+00  0.9600E+02
     28.985  0.0000E+00  0.9600E+02
