    3    3    1    1
  0.3706986E+02  0.9418130E-09  0.9418130E-09  0.9418130E-09  0.5000000E-15
  1.000000000000000E-004
  CAR 
 Na                                      
     21     65     48
 
  0.0000000E+00  0.0000000E+00  0.0000000E+00  0.1953125E-02
      1        -24.583435   1.000000
      2        -24.583346   1.000000
      3        -24.559681   1.000000
      4        -24.559681   1.000000
      5        -24.559469   1.000000
      6        -24.559469   1.000000
      7        -24.557061   1.000000
      8        -24.555870   1.000000
      9        -24.555870   1.000000
     10         -2.950650   1.000000
     11         -1.129884   1.000000
     12         -1.129847   1.000000
     13          4.085914   0.000000
     14          4.086992   0.000000
     15         10.502329   0.000000
     16         10.502329   0.000000
     17         10.636165   0.000000
     18         10.636165   0.000000
     19         10.887066   0.000000
     20         10.887066   0.000000
     21         10.984680   0.000000
     22         11.743313   0.000000
     23         11.825696   0.000000
     24         11.825696   0.000000
     25         12.216676   0.000000
     26         12.357605   0.000000
     27         12.859466   0.000000
     28         13.114501   0.000000
     29         13.114501   0.000000
     30         13.737402   0.000000
     31         13.918709   0.000000
     32         13.918709   0.000000
     33         14.627807   0.000000
     34         14.627807   0.000000
     35         14.798001   0.000000
     36         15.455196   0.000000
     37         15.522197   0.000000
     38         15.522197   0.000000
     39         16.993897   0.000000
     40         18.486529   0.000000
     41         18.486529   0.000000
     42         20.210928   0.000000
     43         20.440110   0.000000
     44         20.440110   0.000000
     45         21.094104   0.000000
     46         21.986621   0.000000
     47         21.986621   0.000000
     48         22.693464   0.000000
 
  0.1250000E+00  0.1394157E-17  0.0000000E+00  0.1171875E-01
      1        -24.583902   1.000000
      2        -24.581698   1.000000
      3        -24.563539   1.000000
      4        -24.562239   1.000000
      5        -24.560853   1.000000
      6        -24.560480   1.000000
      7        -24.560028   1.000000
      8        -24.557697   1.000000
      9        -24.556556   1.000000
     10         -2.716347   1.000000
     11         -1.052308   1.000000
     12         -0.755497   1.000000
     13          4.008636   0.000000
     14          4.564512   0.000000
     15          7.836767   0.000000
     16          8.426092   0.000000
     17          9.376513   0.000000
     18          9.573620   0.000000
     19          9.746750   0.000000
     20         10.618875   0.000000
     21         10.757770   0.000000
     22         11.788150   0.000000
     23         11.909548   0.000000
     24         12.591443   0.000000
     25         12.727711   0.000000
     26         12.879303   0.000000
     27         13.170992   0.000000
     28         13.381714   0.000000
     29         13.697853   0.000000
     30         13.743907   0.000000
     31         14.078237   0.000000
     32         14.656297   0.000000
     33         15.163588   0.000000
     34         15.197720   0.000000
     35         15.515539   0.000000
     36         16.427135   0.000000
     37         16.623677   0.000000
     38         16.996379   0.000000
     39         17.945481   0.000000
     40         18.060501   0.000000
     41         18.654825   0.000000
     42         20.031046   0.000000
     43         20.314937   0.000000
     44         20.517255   0.000000
     45         21.183328   0.000000
     46         21.421595   0.000000
     47         22.517405   0.000000
     48         22.678329   0.000000
 
  0.2500000E+00  0.2788314E-17  0.0000000E+00  0.1171875E-01
      1        -24.583373   1.000000
      2        -24.581685   1.000000
      3        -24.572075   1.000000
      4        -24.569450   1.000000
      5        -24.567310   1.000000
      6        -24.563469   1.000000
      7        -24.562990   1.000000
      8        -24.559600   1.000000
      9        -24.558258   1.000000
     10         -2.019851   1.000000
     11         -0.524676   1.000000
     12          0.060614   1.000000
     13          4.237967   0.000000
     14          5.141930   0.000000
     15          5.405927   0.000000
     16          6.052648   0.000000
     17          7.369802   0.000000
     18          8.486895   0.000000
     19          8.741200   0.000000
     20          8.932402   0.000000
     21          9.487935   0.000000
     22         10.670514   0.000000
     23         11.172582   0.000000
     24         11.937138   0.000000
     25         12.268742   0.000000
     26         12.388500   0.000000
     27         13.467521   0.000000
     28         13.923212   0.000000
     29         14.441298   0.000000
     30         14.770355   0.000000
     31         15.478117   0.000000
     32         16.103070   0.000000
     33         16.714821   0.000000
     34         17.008886   0.000000
     35         17.623188   0.000000
     36         17.959878   0.000000
     37         18.254546   0.000000
     38         18.377073   0.000000
     39         18.463994   0.000000
     40         18.726897   0.000000
     41         20.087041   0.000000
     42         20.287202   0.000000
     43         20.664875   0.000000
     44         21.706092   0.000000
     45         22.279285   0.000000
     46         23.075993   0.000000
     47         23.200008   0.000000
     48         24.058476   0.000000
 
  0.3750000E+00 -0.2548868E-16  0.0000000E+00  0.1171875E-01
      1        -24.587153   1.000000
      2        -24.585164   1.000000
      3        -24.581202   1.000000
      4        -24.573243   1.000000
      5        -24.568653   1.000000
      6        -24.565965   1.000000
      7        -24.565582   1.000000
      8        -24.562232   1.000000
      9        -24.560071   1.000000
     10         -0.879386   1.000000
     11          0.437675   0.000012
     12          1.282147   0.000000
     13          2.683535   0.000000
     14          3.654064   0.000000
     15          5.007981   0.000000
     16          5.252332   0.000000
     17          6.679781   0.000000
     18          7.640726   0.000000
     19          7.975938   0.000000
     20          8.102885   0.000000
     21          8.708111   0.000000
     22          9.403157   0.000000
     23         10.642850   0.000000
     24         11.307953   0.000000
     25         11.702791   0.000000
     26         11.710596   0.000000
     27         12.108596   0.000000
     28         13.820611   0.000000
     29         15.757978   0.000000
     30         16.045512   0.000000
     31         16.981139   0.000000
     32         17.407113   0.000000
     33         17.674844   0.000000
     34         18.057004   0.000000
     35         18.314085   0.000000
     36         18.595744   0.000000
     37         19.184593   0.000000
     38         19.396047   0.000000
     39         20.220212   0.000000
     40         20.909187   0.000000
     41         21.225469   0.000000
     42         22.509396   0.000000
     43         22.903782   0.000000
     44         23.307053   0.000000
     45         24.289348   0.000000
     46         24.312074   0.000000
     47         24.911353   0.000000
     48         25.395964   0.000000
 
  0.5000000E+00  0.5576627E-17  0.0000000E+00  0.5859375E-02
      1        -24.590313   1.000000
      2        -24.587563   1.000000
      3        -24.585375   1.000000
      4        -24.571860   1.000000
      5        -24.569017   1.000000
      6        -24.566942   1.000000
      7        -24.566706   1.000000
      8        -24.563745   1.000000
      9        -24.560811   1.000000
     10          0.616361   0.000000
     11          0.730298   0.000000
     12          1.620499   0.000000
     13          2.075035   0.000000
     14          2.935329   0.000000
     15          3.071070   0.000000
     16          6.252631   0.000000
     17          6.377675   0.000000
     18          7.492100   0.000000
     19          7.847554   0.000000
     20          7.847797   0.000000
     21          8.402988   0.000000
     22          9.187926   0.000000
     23         10.029124   0.000000
     24         10.459352   0.000000
     25         11.518564   0.000000
     26         11.534154   0.000000
     27         11.938689   0.000000
     28         14.635499   0.000000
     29         14.689621   0.000000
     30         17.314437   0.000000
     31         17.320376   0.000000
     32         17.372655   0.000000
     33         17.924045   0.000000
     34         18.570237   0.000000
     35         18.578552   0.000000
     36         19.518697   0.000000
     37         20.168442   0.000000
     38         20.340140   0.000000
     39         22.127848   0.000000
     40         22.133201   0.000000
     41         22.473157   0.000000
     42         22.916024   0.000000
     43         22.966174   0.000000
     44         23.155512   0.000000
     45         23.289172   0.000000
     46         24.098031   0.000000
     47         24.476342   0.000000
     48         25.932003   0.000000
 
  0.1250000E+00  0.1250000E+00  0.0000000E+00  0.1171875E-01
      1        -24.585050   1.000000
      2        -24.580411   1.000000
      3        -24.563081   1.000000
      4        -24.562778   1.000000
      5        -24.561377   1.000000
      6        -24.559977   1.000000
      7        -24.559825   1.000000
      8        -24.557846   1.000000
      9        -24.556693   1.000000
     10         -2.706737   1.000000
     11         -1.192076   1.000000
     12         -0.598537   1.000000
     13          3.740229   0.000000
     14          4.845754   0.000000
     15          7.977335   0.000000
     16          8.201068   0.000000
     17          9.259410   0.000000
     18          9.576931   0.000000
     19         10.002872   0.000000
     20         10.885249   0.000000
     21         11.030963   0.000000
     22         11.370115   0.000000
     23         11.410899   0.000000
     24         12.241658   0.000000
     25         12.758541   0.000000
     26         12.967545   0.000000
     27         13.043853   0.000000
     28         13.422993   0.000000
     29         13.815828   0.000000
     30         13.989421   0.000000
     31         14.175358   0.000000
     32         14.617832   0.000000
     33         15.501174   0.000000
     34         15.649867   0.000000
     35         15.710572   0.000000
     36         16.450413   0.000000
     37         16.567623   0.000000
     38         17.199462   0.000000
     39         17.293942   0.000000
     40         17.451526   0.000000
     41         18.687399   0.000000
     42         19.476250   0.000000
     43         19.662590   0.000000
     44         21.370490   0.000000
     45         21.467932   0.000000
     46         22.310610   0.000000
     47         22.615861   0.000000
     48         23.346150   0.000000
 
  0.2500000E+00  0.1250000E+00  0.0000000E+00  0.2343750E-01
      1        -24.584371   1.000000
      2        -24.579982   1.000000
      3        -24.568562   1.000000
      4        -24.567831   1.000000
      5        -24.566145   1.000000
      6        -24.562582   1.000000
      7        -24.561953   1.000000
      8        -24.559263   1.000000
      9        -24.558501   1.000000
     10         -2.231927   1.000000
     11         -0.878986   1.000000
     12          0.003010   1.000000
     13          3.867059   0.000000
     14          5.456281   0.000000
     15          6.433968   0.000000
     16          6.755427   0.000000
     17          7.001450   0.000000
     18          7.905816   0.000000
     19          8.889772   0.000000
     20          9.823669   0.000000
     21         10.442820   0.000000
     22         11.342421   0.000000
     23         11.608998   0.000000
     24         12.058633   0.000000
     25         12.223478   0.000000
     26         12.690332   0.000000
     27         12.860936   0.000000
     28         13.951222   0.000000
     29         14.551647   0.000000
     30         14.798662   0.000000
     31         15.100970   0.000000
     32         15.743072   0.000000
     33         16.529383   0.000000
     34         16.539396   0.000000
     35         16.813811   0.000000
     36         16.975418   0.000000
     37         17.151766   0.000000
     38         17.789926   0.000000
     39         17.972446   0.000000
     40         19.210481   0.000000
     41         19.816275   0.000000
     42         20.251821   0.000000
     43         20.667407   0.000000
     44         21.383084   0.000000
     45         21.875647   0.000000
     46         22.431905   0.000000
     47         23.406203   0.000000
     48         24.153016   0.000000
 
  0.3750000E+00  0.1250000E+00  0.0000000E+00  0.2343750E-01
      1        -24.583924   1.000000
      2        -24.582810   1.000000
      3        -24.577854   1.000000
      4        -24.573659   1.000000
      5        -24.568295   1.000000
      6        -24.566066   1.000000
      7        -24.565015   1.000000
      8        -24.561482   1.000000
      9        -24.561075   1.000000
     10         -1.304525   1.000000
     11         -0.121266   1.000000
     12          1.029835   0.000000
     13          3.782614   0.000000
     14          4.599119   0.000000
     15          4.954702   0.000000
     16          5.679542   0.000000
     17          6.066047   0.000000
     18          6.543551   0.000000
     19          7.230567   0.000000
     20          9.013852   0.000000
     21          9.489751   0.000000
     22         10.068479   0.000000
     23         10.959894   0.000000
     24         11.336379   0.000000
     25         12.430280   0.000000
     26         12.566885   0.000000
     27         14.158527   0.000000
     28         14.262080   0.000000
     29         14.791047   0.000000
     30         15.039584   0.000000
     31         15.678355   0.000000
     32         16.186906   0.000000
     33         16.428147   0.000000
     34         16.836438   0.000000
     35         17.545178   0.000000
     36         19.167270   0.000000
     37         19.442544   0.000000
     38         19.832571   0.000000
     39         20.547168   0.000000
     40         20.663510   0.000000
     41         21.089462   0.000000
     42         21.547179   0.000000
     43         21.924514   0.000000
     44         22.402411   0.000000
     45         22.873952   0.000000
     46         23.973352   0.000000
     47         24.655694   0.000000
     48         24.744967   0.000000
 
  0.5000000E+00  0.1250000E+00  0.0000000E+00  0.2343750E-01
      1        -24.588078   1.000000
      2        -24.585554   1.000000
      3        -24.583529   1.000000
      4        -24.573872   1.000000
      5        -24.570421   1.000000
      6        -24.568065   1.000000
      7        -24.565701   1.000000
      8        -24.563748   1.000000
      9        -24.563128   1.000000
     10          0.050426   1.000000
     11          1.051139   0.000000
     12          1.694953   0.000000
     13          2.546943   0.000000
     14          3.058469   0.000000
     15          3.860285   0.000000
     16          5.173127   0.000000
     17          5.658584   0.000000
     18          6.137388   0.000000
     19          7.823622   0.000000
     20          8.536927   0.000000
     21          8.563009   0.000000
     22          9.342026   0.000000
     23          9.739350   0.000000
     24         10.959555   0.000000
     25         11.376449   0.000000
     26         13.171386   0.000000
     27         13.820576   0.000000
     28         14.638137   0.000000
     29         15.352812   0.000000
     30         15.903636   0.000000
     31         15.962742   0.000000
     32         16.858447   0.000000
     33         17.637417   0.000000
     34         18.198171   0.000000
     35         18.395574   0.000000
     36         18.935213   0.000000
     37         19.946306   0.000000
     38         20.482703   0.000000
     39         21.330780   0.000000
     40         21.603443   0.000000
     41         22.667597   0.000000
     42         22.821770   0.000000
     43         23.286613   0.000000
     44         23.372085   0.000000
     45         23.908266   0.000000
     46         24.727179   0.000000
     47         25.017017   0.000000
     48         25.200434   0.000000
 
 -0.3750000E+00  0.1250000E+00  0.0000000E+00  0.2343750E-01
      1        -24.588153   1.000000
      2        -24.586381   1.000000
      3        -24.582956   1.000000
      4        -24.572671   1.000000
      5        -24.570729   1.000000
      6        -24.567630   1.000000
      7        -24.566398   1.000000
      8        -24.564176   1.000000
      9        -24.562951   1.000000
     10         -0.013016   1.000000
     11          1.400415   0.000000
     12          1.691670   0.000000
     13          2.162292   0.000000
     14          2.733789   0.000000
     15          4.310829   0.000000
     16          5.434381   0.000000
     17          5.603066   0.000000
     18          6.587645   0.000000
     19          7.184217   0.000000
     20          7.772098   0.000000
     21          8.465930   0.000000
     22          9.738679   0.000000
     23         10.143620   0.000000
     24         10.915810   0.000000
     25         11.582269   0.000000
     26         13.458593   0.000000
     27         14.038423   0.000000
     28         14.806590   0.000000
     29         15.013776   0.000000
     30         15.235124   0.000000
     31         16.220581   0.000000
     32         16.310491   0.000000
     33         17.352184   0.000000
     34         17.926217   0.000000
     35         19.131441   0.000000
     36         19.455388   0.000000
     37         19.895867   0.000000
     38         20.339615   0.000000
     39         21.187844   0.000000
     40         22.031952   0.000000
     41         22.480362   0.000000
     42         22.761003   0.000000
     43         22.986086   0.000000
     44         23.218678   0.000000
     45         24.550539   0.000000
     46         24.814740   0.000000
     47         25.113548   0.000000
     48         25.493855   0.000000
 
 -0.2500000E+00  0.1250000E+00  0.0000000E+00  0.2343750E-01
      1        -24.584219   1.000000
      2        -24.583696   1.000000
      3        -24.576912   1.000000
      4        -24.571715   1.000000
      5        -24.569479   1.000000
      6        -24.566193   1.000000
      7        -24.565125   1.000000
      8        -24.561980   1.000000
      9        -24.560792   1.000000
     10         -1.351302   1.000000
     11          0.269636   0.698267
     12          0.557529   0.000000
     13          3.951031   0.000000
     14          4.615030   0.000000
     15          5.267254   0.000000
     16          5.447260   0.000000
     17          6.092544   0.000000
     18          6.767688   0.000000
     19          6.923982   0.000000
     20          8.717383   0.000000
     21          8.977495   0.000000
     22         10.307693   0.000000
     23         11.149104   0.000000
     24         11.386648   0.000000
     25         13.117820   0.000000
     26         13.307419   0.000000
     27         14.000667   0.000000
     28         14.184757   0.000000
     29         14.527625   0.000000
     30         14.800693   0.000000
     31         15.411340   0.000000
     32         15.584806   0.000000
     33         16.665249   0.000000
     34         16.997006   0.000000
     35         17.200590   0.000000
     36         18.975667   0.000000
     37         19.213250   0.000000
     38         19.618391   0.000000
     39         20.300501   0.000000
     40         20.699813   0.000000
     41         21.561208   0.000000
     42         22.093253   0.000000
     43         22.355043   0.000000
     44         22.920933   0.000000
     45         23.346372   0.000000
     46         23.932072   0.000000
     47         24.644866   0.000000
     48         24.681054   0.000000
 
 -0.1250000E+00  0.1250000E+00  0.0000000E+00  0.1171875E-01
      1        -24.582407   1.000000
      2        -24.582294   1.000000
      3        -24.567718   1.000000
      4        -24.567430   1.000000
      5        -24.567151   1.000000
      6        -24.562577   1.000000
      7        -24.561943   1.000000
      8        -24.559267   1.000000
      9        -24.558356   1.000000
     10         -2.260489   1.000000
     11         -0.463508   1.000000
     12         -0.463369   1.000000
     13          4.644316   0.000000
     14          4.657418   0.000000
     15          6.484716   0.000000
     16          6.681161   0.000000
     17          7.023101   0.000000
     18          7.797109   0.000000
     19          9.215503   0.000000
     20          9.538396   0.000000
     21         10.767339   0.000000
     22         11.159249   0.000000
     23         11.714513   0.000000
     24         12.117032   0.000000
     25         12.263331   0.000000
     26         12.509842   0.000000
     27         13.356431   0.000000
     28         13.466285   0.000000
     29         14.603069   0.000000
     30         14.676833   0.000000
     31         15.416147   0.000000
     32         15.960206   0.000000
     33         16.112312   0.000000
     34         16.164766   0.000000
     35         16.848164   0.000000
     36         16.998952   0.000000
     37         17.175297   0.000000
     38         17.829402   0.000000
     39         18.427935   0.000000
     40         18.531415   0.000000
     41         19.921433   0.000000
     42         20.796764   0.000000
     43         20.926378   0.000000
     44         20.964783   0.000000
     45         21.217167   0.000000
     46         22.882577   0.000000
     47         23.738029   0.000000
     48         24.383416   0.000000
 
  0.2500000E+00  0.2500000E+00  0.0000000E+00  0.1171875E-01
      1        -24.584791   1.000000
      2        -24.580425   1.000000
      3        -24.571553   1.000000
      4        -24.569512   1.000000
      5        -24.566947   1.000000
      6        -24.564583   1.000000
      7        -24.561315   1.000000
      8        -24.560252   1.000000
      9        -24.558829   1.000000
     10         -1.981932   1.000000
     11         -0.783329   1.000000
     12          0.386618   0.002641
     13          3.796440   0.000000
     14          5.202859   0.000000
     15          5.455083   0.000000
     16          6.274289   0.000000
     17          8.058282   0.000000
     18          8.266039   0.000000
     19          8.389661   0.000000
     20          9.280781   0.000000
     21          9.885239   0.000000
     22         10.209228   0.000000
     23         10.280315   0.000000
     24         10.828746   0.000000
     25         12.395898   0.000000
     26         13.486354   0.000000
     27         14.199325   0.000000
     28         14.812634   0.000000
     29         15.095115   0.000000
     30         15.135027   0.000000
     31         15.414395   0.000000
     32         15.637789   0.000000
     33         15.882183   0.000000
     34         15.901846   0.000000
     35         17.204056   0.000000
     36         17.695221   0.000000
     37         17.985435   0.000000
     38         18.315646   0.000000
     39         18.336784   0.000000
     40         18.937220   0.000000
     41         19.910089   0.000000
     42         20.428501   0.000000
     43         21.245804   0.000000
     44         21.968553   0.000000
     45         23.363039   0.000000
     46         23.757446   0.000000
     47         24.281590   0.000000
     48         24.664168   0.000000
 
  0.3750000E+00  0.2500000E+00  0.0000000E+00  0.2343750E-01
      1        -24.584248   1.000000
      2        -24.583111   1.000000
      3        -24.577255   1.000000
      4        -24.573347   1.000000
      5        -24.568290   1.000000
      6        -24.566332   1.000000
      7        -24.564201   1.000000
      8        -24.562595   1.000000
      9        -24.560807   1.000000
     10         -1.276453   1.000000
     11         -0.240389   1.000000
     12          1.198079   0.000000
     13          3.908876   0.000000
     14          4.318123   0.000000
     15          4.518010   0.000000
     16          5.712974   0.000000
     17          6.668876   0.000000
     18          7.297140   0.000000
     19          7.416672   0.000000
     20          7.876114   0.000000
     21          8.411566   0.000000
     22         10.926706   0.000000
     23         11.547719   0.000000
     24         11.855978   0.000000
     25         12.232980   0.000000
     26         13.031611   0.000000
     27         13.166037   0.000000
     28         14.238741   0.000000
     29         14.506706   0.000000
     30         14.842326   0.000000
     31         15.233562   0.000000
     32         16.125273   0.000000
     33         16.966715   0.000000
     34         17.498023   0.000000
     35         18.081580   0.000000
     36         18.226977   0.000000
     37         19.292845   0.000000
     38         19.670234   0.000000
     39         19.730619   0.000000
     40         20.525231   0.000000
     41         21.764914   0.000000
     42         22.102541   0.000000
     43         22.706512   0.000000
     44         23.190559   0.000000
     45         23.652095   0.000000
     46         24.019936   0.000000
     47         24.303624   0.000000
     48         24.526409   0.000000
 
  0.5000000E+00  0.2500000E+00  0.0000000E+00  0.2343750E-01
      1        -24.585156   1.000000
      2        -24.582536   1.000000
      3        -24.582212   1.000000
      4        -24.574619   1.000000
      5        -24.572364   1.000000
      6        -24.570001   1.000000
      7        -24.567827   1.000000
      8        -24.564178   1.000000
      9        -24.563170   1.000000
     10         -0.134119   1.000000
     11          0.732652   0.000000
     12          2.360268   0.000000
     13          3.192122   0.000000
     14          3.520370   0.000000
     15          3.759064   0.000000
     16          4.675402   0.000000
     17          5.223291   0.000000
     18          5.610139   0.000000
     19          6.580418   0.000000
     20          7.851369   0.000000
     21          8.639916   0.000000
     22          9.706544   0.000000
     23         10.716948   0.000000
     24         12.496305   0.000000
     25         13.135088   0.000000
     26         13.619987   0.000000
     27         13.911486   0.000000
     28         14.241615   0.000000
     29         14.490406   0.000000
     30         15.385585   0.000000
     31         15.578159   0.000000
     32         16.549678   0.000000
     33         17.331302   0.000000
     34         17.647322   0.000000
     35         18.219329   0.000000
     36         19.167378   0.000000
     37         19.441721   0.000000
     38         20.147987   0.000000
     39         20.948199   0.000000
     40         21.447259   0.000000
     41         22.244584   0.000000
     42         23.206729   0.000000
     43         23.349981   0.000000
     44         23.675250   0.000000
     45         23.885843   0.000000
     46         24.275966   0.000000
     47         24.658829   0.000000
     48         24.997171   0.000000
 
 -0.3750000E+00  0.2500000E+00  0.0000000E+00  0.2343750E-01
      1        -24.585081   1.000000
      2        -24.583905   1.000000
      3        -24.580818   1.000000
      4        -24.577348   1.000000
      5        -24.575258   1.000000
      6        -24.570280   1.000000
      7        -24.568002   1.000000
      8        -24.565809   1.000000
      9        -24.564604   1.000000
     10          1.242677   0.000000
     11          1.434049   0.000000
     12          2.062773   0.000000
     13          2.778281   0.000000
     14          3.039878   0.000000
     15          3.334026   0.000000
     16          3.931787   0.000000
     17          4.304786   0.000000
     18          6.154957   0.000000
     19          6.562446   0.000000
     20          7.744841   0.000000
     21          8.224573   0.000000
     22          8.643956   0.000000
     23         10.384713   0.000000
     24         12.670946   0.000000
     25         13.386328   0.000000
     26         13.801709   0.000000
     27         14.254084   0.000000
     28         14.665787   0.000000
     29         15.882379   0.000000
     30         16.331875   0.000000
     31         16.552200   0.000000
     32         16.567750   0.000000
     33         17.043120   0.000000
     34         17.384123   0.000000
     35         17.945402   0.000000
     36         18.302418   0.000000
     37         18.504148   0.000000
     38         19.792965   0.000000
     39         20.643762   0.000000
     40         21.566629   0.000000
     41         22.535607   0.000000
     42         22.789222   0.000000
     43         23.296214   0.000000
     44         23.952398   0.000000
     45         24.492300   0.000000
     46         24.825407   0.000000
     47         25.237753   0.000000
     48         25.838593   0.000000
 
 -0.2500000E+00  0.2500000E+00  0.0000000E+00  0.1171875E-01
      1        -24.584912   1.000000
      2        -24.584638   1.000000
      3        -24.581379   1.000000
      4        -24.574069   1.000000
      5        -24.571122   1.000000
      6        -24.568261   1.000000
      7        -24.568091   1.000000
      8        -24.565901   1.000000