       N       E                     dE             d eps       ncg     rms          rms(c)
DAV:   1    -0.394020687691E+01   -0.39402E+01   -0.23790E-06  3312   0.671E-03    0.983E-04
DAV:   2    -0.394020679713E+01    0.79779E-07   -0.18876E-07  3120   0.221E-03
   1 F= -.39402068E+01 E0= -.39393333E+01  d E =-.174699E-02
       N       E                     dE             ncg
DAV:   1    -0.279248335631E+05   -0.30864E+05     6240
DAV:   2    -0.291516535011E+05   -0.12268E+04     9024
DAV:   3    -0.291534713529E+05   -0.18179E+01     6240
DAV:   4    -0.291534772193E+05   -0.58664E-02    10224
DAV:   5    -0.291534772197E+05   -0.48209E-06     6240
       N       E                     dE             ncg
DAV:   1    -0.275368185705E+05   -0.59843E+05     6240
DAV:   2    -0.286759244528E+05   -0.11391E+04     9312
DAV:   3    -0.286769741465E+05   -0.10497E+01     6336
DAV:   4    -0.286769769827E+05   -0.28363E-02    12240
DAV:   5    -0.286769769828E+05   -0.59557E-07     6240
       N       E                     dE             ncg
DAV:   1    -0.277329071444E+05   -0.49646E+05     6240
DAV:   2    -0.288850732380E+05   -0.11522E+04     9168
DAV:   3    -0.288864659076E+05   -0.13927E+01     6240
DAV:   4    -0.288864701877E+05   -0.42801E-02    11472
DAV:   5    -0.288864701879E+05   -0.17736E-06     6240
       N       E                     dE             ncg
DAV:   1     0.208605792127E+05   -0.48197E+03       96
DAV:   2     0.208418997698E+05   -0.18679E+02       96
DAV:   3     0.208417798314E+05   -0.11994E+00       96
DAV:   4     0.208417793226E+05   -0.50873E-03      192
DAV:   5     0.208417793226E+05   -0.40527E-08       96
