 vasp.6.4.3 19Mar24 (build Jun 26 2024 13:02:28) complex                        
  
 executed on             LinuxIFC date 2025.08.08  18:34:57
 running   48 mpi-ranks, on    4 nodes
 distrk:  each k-point on   48 cores,    1 groups
 distr:  one band on NCORE=   1 cores,   48 groups


--------------------------------------------------------------------------------------------------------


 INCAR:
   ENCUT = 337.4293
   IBRION = -1
   ISMEAR = 0
   ISYM = 2
   LCHARG = True
   LWAVE = True
   SIGMA = 0.05
   SYSTEM = Na

 POTCAR:  PAW_PBE Na_pv 19Sep2006                 
 -----------------------------------------------------------------------------
|                                                                             |
|           W    W    AA    RRRRR   N    N  II  N    N   GGGG   !!!           |
|           W    W   A  A   R    R  NN   N  II  NN   N  G    G  !!!           |
|           W    W  A    A  R    R  N N  N  II  N N  N  G       !!!           |
|           W WW W  AAAAAA  RRRRR   N  N N  II  N  N N  G  GGG   !            |
|           WW  WW  A    A  R   R   N   NN  II  N   NN  G    G                |
|           W    W  A    A  R    R  N    N  II  N    N   GGGG   !!!           |
|                                                                             |
|     For optimal performance we recommend to set                             |
|       NCORE = 2 up to number-of-cores-per-socket                            |
|     NCORE specifies how many cores store one orbital (NPAR=cpu/NCORE).      |
|     This setting can greatly improve the performance of VASP for DFT.       |
|     The default, NCORE=1 might be grossly inefficient on modern             |
|     multi-core architectures or massively parallel machines. Do your        |
|     own testing! More info at https://www.vasp.at/wiki/index.php/NCORE      |
|     Unfortunately you need to use the default for GW and RPA                |
|     calculations (for HF NCORE is supported but not extensively tested      |
|     yet).                                                                   |
|                                                                             |
 -----------------------------------------------------------------------------

 POTCAR:  PAW_PBE Na_pv 19Sep2006                 
   VRHFIN =Na: p6s1                                                                                 
   LEXCH  = PE                                                                                      
   EATOM  =   766.0439 eV,   56.3026 Ry                                                             
                                                                                                    
   TITEL  = PAW_PBE Na_pv 19Sep2006                                                                 
   LULTRA =        F    use ultrasoft PP ?                                                          
   IUNSCR =        1    unscreen: 0-lin 1-nonlin 2-no                                               
   RPACOR =    1.800    partial core radius                                                         
   POMASS =   22.990; ZVAL   =    7.000    mass and valenz                                          
   RCORE  =    2.200    outmost cutoff radius                                                       
   RWIGS  =    2.200; RWIGS  =    1.164    wigner-seitz radius (au A)                               
   ENMAX  =  259.561; ENMIN  =  194.671 eV                                                          
   ICORE  =        2    local potential                                                             
   LCOR   =        T    correct aug charges                                                         
   LPAW   =        T    paw PP                                                                      
   EAUG   =  368.056                                                                                
   DEXC   =    0.000                                                                                
   RMAX   =    2.245    core radius for proj-oper                                                   
   RAUG   =    1.300    factor for augmentation sphere                                              
   RDEP   =    2.259    radius for radial grids                                                     
   RDEPT  =    1.738    core radius for aug-charge                                                  
                                                                                                    
   Atomic configuration                                                                             
    5 entries                                                                                       
     n  l   j            E        occ.                                                              
     1  0  0.50     -1033.6933   2.0000                                                             
     2  0  0.50       -56.7526   2.0000                                                             
     2  1  1.50       -28.6721   6.0000                                                             
     3  0  0.50        -2.7440   1.0000                                                             
     3  2  1.50        -1.3606   0.0000                                                             
   Description                                                                                      
     l       E           TYP  RCUT    TYP  RCUT                                                     
     1    -28.6720912     23  2.000                                                                 
     1      6.8029130     23  2.000                                                                 
     0     -2.7439560     23  2.200                                                                 
     0     34.0145650     23  2.200                                                                 
     2     -1.3605826     23  2.200                                                                 
  local pseudopotential read in
  partial core-charges read in
  partial kinetic energy density read in
  atomic valenz-charges read in
  non local Contribution for L=           1  read in
    real space projection operators read in
  non local Contribution for L=           1  read in
    real space projection operators read in
  non local Contribution for L=           0  read in
    real space projection operators read in
  non local Contribution for L=           0  read in
    real space projection operators read in
    PAW grid and wavefunctions read in
 
   number of l-projection  operators is LMAX  =           4
   number of lm-projection operators is LMMAX =           8
 
PAW_PBE Na_pv 19Sep2006                 :
 energy of atom  1       EATOM= -766.0439
 kinetic energy error for atom=    0.0192 (will be added to EATOM!!)
 
 
 POSCAR: Na3
  positions in direct lattice
  No initial velocities read in


 exchange-correlation table for PE
   RHO(1)=    0.500       N(1)  =     2000
   RHO(2)=  100.500       N(2)  =     4000
 


--------------------------------------------------------------------------------------------------------


 ion  position               nearest neighbor table
   1  0.000  0.000  0.000-
   2  0.222  0.222  0.222-
   3  0.778  0.778  0.778-
 
  LATTYP: Found a trigonal (rhomboedric) cell.
 ALAT       =     9.4181300000
 COS(alpha) =     0.9210357209
  
  Lattice vectors:
  
 A1 = (   3.6681555051,   0.0000000000,   8.6744341537)
 A2 = (   1.7586878855,   3.2190653506,   8.6744341537)
 A3 = (   0.0000000000,   0.0000000000,   9.4181300000)


Analysis of symmetry for initial positions (statically):
=====================================================================
 Subroutine PRICEL returns:
 Original cell was already a primitive cell.
 

 Routine SETGRP: Setting up the symmetry group for a 
 trigonal (rhombohedral) supercell.


 Subroutine GETGRP returns: Found 12 space group operations
 (whereof 12 operations were pure point group operations)
 out of a pool of 12 trial point group operations.


The static configuration has the point symmetry D_3d.


Analysis of symmetry for dynamics (positions and initial velocities):
=====================================================================
 Subroutine PRICEL returns:
 Original cell was already a primitive cell.
 

 Routine SETGRP: Setting up the symmetry group for a 
 trigonal (rhombohedral) supercell.


 Subroutine GETGRP returns: Found 12 space group operations
 (whereof 12 operations were pure point group operations)
 out of a pool of 12 trial point group operations.


The dynamic configuration has the point symmetry D_3d.


 Subroutine INISYM returns: Found 12 space group operations
 (whereof 12 operations are pure point group operations),
 and found     1 'primitive' translations


----------------------------------------------------------------------------------------

                                     Primitive cell                                     

  volume of cell :     111.2096

  direct lattice vectors                    reciprocal lattice vectors
     3.668155505  0.000000000  8.674434154     0.272616578 -0.148939962  0.000000000
     1.758687886  3.219065351  8.674434154     0.000000000  0.310649176  0.000000000
     0.000000000  0.000000000  9.418130000    -0.251089606 -0.148939962  0.106178190

  length of vectors
     9.418130000  9.418130000  9.418130000     0.310649176  0.310649176  0.310649176

  position of ions in fractional coordinates (direct lattice)
     0.000000000  0.000000000  0.000000000
     0.222220000  0.222220000  0.222220000
     0.777780000  0.777780000  0.777780000

  ion indices of the primitive-cell ions
   primitive index   ion index
                 1           1
                 2           2
                 3           3

----------------------------------------------------------------------------------------

 
 
 KPOINTS: Automatic kpoint scheme                 

Automatic generation of k-mesh.
 Grid dimensions read from file:
 generate k-points for:    8    8    8

 Generating k-lattice:

  Cartesian coordinates                     Fractional coordinates (reciprocal lattice)
     0.034077072 -0.018617495  0.000000000     0.125000000  0.000000000  0.000000000
     0.000000000  0.038831147  0.000000000     0.000000000  0.125000000  0.000000000
    -0.031386201 -0.018617495  0.013272274    -0.000000000 -0.000000000  0.125000000

  Length of vectors
     0.038831147  0.038831147  0.038831147

  Shift w.r.t. Gamma in fractional coordinates (k-lattice)
     0.000000000  0.000000000  0.000000000

 
 Subroutine IBZKPT returns following result:
 ===========================================
 
 Found     65 irreducible k-points:
 
 Following reciprocal coordinates:
            Coordinates               Weight
  0.000000  0.000000  0.000000      1.000000
  0.125000  0.000000  0.000000      6.000000
  0.250000  0.000000  0.000000      6.000000
  0.375000 -0.000000  0.000000      6.000000
  0.500000  0.000000  0.000000      3.000000
  0.125000  0.125000  0.000000      6.000000
  0.250000  0.125000  0.000000     12.000000
  0.375000  0.125000  0.000000     12.000000
  0.500000  0.125000  0.000000     12.000000
 -0.375000  0.125000  0.000000     12.000000
 -0.250000  0.125000  0.000000     12.000000
 -0.125000  0.125000  0.000000      6.000000
  0.250000  0.250000  0.000000      6.000000
  0.375000  0.250000  0.000000     12.000000
  0.500000  0.250000  0.000000     12.000000
 -0.375000  0.250000  0.000000     12.000000
 -0.250000  0.250000  0.000000      6.000000
  0.375000  0.375000  0.000000      6.000000
  0.500000  0.375000  0.000000     12.000000
 -0.375000  0.375000  0.000000      6.000000
  0.500000  0.500000  0.000000      3.000000
  0.125000  0.125000  0.125000      2.000000
  0.250000  0.125000  0.125000      6.000000
  0.375000  0.125000  0.125000      6.000000
  0.500000  0.125000  0.125000      6.000000
 -0.375000  0.125000  0.125000      6.000000
 -0.250000  0.125000  0.125000      6.000000
 -0.125000  0.125000  0.125000      6.000000
  0.250000  0.250000  0.125000      6.000000
  0.375000  0.250000  0.125000     12.000000
  0.500000  0.250000  0.125000     12.000000
 -0.375000  0.250000  0.125000     12.000000
 -0.250000  0.250000  0.125000     12.000000
 -0.125000  0.250000  0.125000     12.000000
  0.375000  0.375000  0.125000      6.000000
  0.500000  0.375000  0.125000     12.000000
 -0.375000  0.375000  0.125000     12.000000
 -0.250000  0.375000  0.125000     12.000000
 -0.125000  0.375000  0.125000     12.000000
  0.500000  0.500000  0.125000      6.000000
 -0.375000  0.500000  0.125000     12.000000
 -0.250000  0.500000  0.125000     12.000000
 -0.125000  0.500000  0.125000      6.000000
 -0.375000 -0.375000  0.125000      6.000000
 -0.250000 -0.375000  0.125000     12.000000
 -0.250000 -0.250000  0.125000      6.000000
  0.250000  0.250000  0.250000      2.000000
  0.375000  0.250000  0.250000      6.000000
  0.500000  0.250000  0.250000      6.000000
 -0.375000  0.250000  0.250000      6.000000
 -0.250000  0.250000  0.250000      6.000000
  0.375000  0.375000  0.250000      6.000000
  0.500000  0.375000  0.250000     12.000000
 -0.375000  0.375000  0.250000     12.000000
 -0.250000  0.375000  0.250000     12.000000
  0.500000  0.500000  0.250000      6.000000
 -0.375000  0.500000  0.250000     12.000000
 -0.250000  0.500000  0.250000      6.000000
 -0.375000 -0.375000  0.250000      6.000000
  0.375000  0.375000  0.375000      2.000000
  0.500000  0.375000  0.375000      6.000000
 -0.375000  0.375000  0.375000      6.000000
  0.500000  0.500000  0.375000      6.000000
 -0.375000  0.500000  0.375000      6.000000
  0.500000  0.500000  0.500000      1.000000
 
 Following cartesian coordinates:
            Coordinates               Weight
  0.000000  0.000000  0.000000      1.000000
  0.034077 -0.018617  0.000000      6.000000
  0.068154 -0.037235  0.000000      6.000000
  0.102231 -0.055852  0.000000      6.000000
  0.136308 -0.074470  0.000000      3.000000
  0.034077  0.020214  0.000000      6.000000
  0.068154  0.001596  0.000000     12.000000
  0.102231 -0.017021  0.000000     12.000000
  0.136308 -0.035639  0.000000     12.000000
 -0.102231  0.094684  0.000000     12.000000
 -0.068154  0.076066  0.000000     12.000000
 -0.034077  0.057449  0.000000      6.000000
  0.068154  0.040427  0.000000      6.000000
  0.102231  0.021810  0.000000     12.000000
  0.136308  0.003192  0.000000     12.000000
 -0.102231  0.133515  0.000000     12.000000
 -0.068154  0.114897  0.000000      6.000000
  0.102231  0.060641  0.000000      6.000000
  0.136308  0.042023  0.000000     12.000000
 -0.102231  0.172346  0.000000      6.000000
  0.136308  0.080855  0.000000      3.000000
  0.002691  0.001596  0.013272      2.000000
  0.036768 -0.017021  0.013272      6.000000
  0.070845 -0.035639  0.013272      6.000000
  0.104922 -0.054256  0.013272      6.000000
 -0.133617  0.076066  0.013272      6.000000
 -0.099540  0.057449  0.013272      6.000000
 -0.065463  0.038831  0.013272      6.000000
  0.036768  0.021810  0.013272      6.000000
  0.070845  0.003192  0.013272     12.000000
  0.104922 -0.015425  0.013272     12.000000
 -0.133617  0.114897  0.013272     12.000000
 -0.099540  0.096280  0.013272     12.000000
 -0.065463  0.077662  0.013272     12.000000
  0.070845  0.042023  0.013272      6.000000
  0.104922  0.023406  0.013272     12.000000
 -0.133617  0.153728  0.013272     12.000000
 -0.099540  0.135111  0.013272     12.000000
 -0.065463  0.116493  0.013272     12.000000
  0.104922  0.062237  0.013272      6.000000
 -0.133617  0.192560  0.013272     12.000000
 -0.099540  0.173942  0.013272     12.000000
 -0.065463  0.155325  0.013272      6.000000
 -0.133617 -0.079258  0.013272      6.000000
 -0.099540 -0.097876  0.013272     12.000000
 -0.099540 -0.059045  0.013272      6.000000
  0.005382  0.003192  0.026545      2.000000
  0.039459 -0.015425  0.026545      6.000000
  0.073536 -0.034043  0.026545      6.000000
 -0.165004  0.096280  0.026545      6.000000
 -0.130927  0.077662  0.026545      6.000000
  0.039459  0.023406  0.026545      6.000000
  0.073536  0.004788  0.026545     12.000000
 -0.165004  0.135111  0.026545     12.000000
 -0.130927  0.116493  0.026545     12.000000
  0.073536  0.043620  0.026545      6.000000
 -0.165004  0.173942  0.026545     12.000000
 -0.130927  0.155325  0.026545      6.000000
 -0.165004 -0.097876  0.026545      6.000000
  0.008073  0.004788  0.039817      2.000000
  0.042150 -0.013829  0.039817      6.000000
 -0.196390  0.116493  0.039817      6.000000
  0.042150  0.025002  0.039817      6.000000
 -0.196390  0.155325  0.039817      6.000000
  0.010763  0.006385  0.053089      1.000000
 
 
 Subroutine IBZKPT_HF returns following result:
 ==============================================
 
 Found    512 k-points in 1st BZ
 the following    512 k-points will be used (e.g. in the exchange kernel)
 Following reciprocal coordinates:   # in IRBZ
  0.000000  0.000000  0.000000    0.00195312   1 t-inv F
  0.125000  0.000000  0.000000    0.00195312   2 t-inv F
  0.250000  0.000000  0.000000    0.00195312   3 t-inv F
  0.375000 -0.000000  0.000000    0.00195312   4 t-inv F
  0.500000  0.000000  0.000000    0.00195312   5 t-inv F
  0.125000  0.125000  0.000000    0.00195312   6 t-inv F
  0.250000  0.125000  0.000000    0.00195312   7 t-inv F
  0.375000  0.125000  0.000000    0.00195312   8 t-inv F
  0.500000  0.125000  0.000000    0.00195312   9 t-inv F
 -0.375000  0.125000  0.000000    0.00195312  10 t-inv F
 -0.250000  0.125000  0.000000    0.00195312  11 t-inv F
 -0.125000  0.125000  0.000000    0.00195312  12 t-inv F
  0.250000  0.250000  0.000000    0.00195312  13 t-inv F
  0.375000  0.250000  0.000000    0.00195312  14 t-inv F
  0.500000  0.250000  0.000000    0.00195312  15 t-inv F
 -0.375000  0.250000  0.000000    0.00195312  16 t-inv F
 -0.250000  0.250000  0.000000    0.00195312  17 t-inv F
  0.375000  0.375000  0.000000    0.00195312  18 t-inv F
  0.500000  0.375000  0.000000    0.00195312  19 t-inv F
 -0.375000  0.375000  0.000000    0.00195312  20 t-inv F
  0.500000  0.500000  0.000000    0.00195312  21 t-inv F
  0.125000  0.125000  0.125000    0.00195312  22 t-inv F
  0.250000  0.125000  0.125000    0.00195312  23 t-inv F
  0.375000  0.125000  0.125000    0.00195312  24 t-inv F
  0.500000  0.125000  0.125000    0.00195312  25 t-inv F
 -0.375000  0.125000  0.125000    0.00195312  26 t-inv F
 -0.250000  0.125000  0.125000    0.00195312  27 t-inv F
 -0.125000  0.125000  0.125000    0.00195312  28 t-inv F
  0.250000  0.250000  0.125000    0.00195312  29 t-inv F
  0.375000  0.250000  0.125000    0.00195312  30 t-inv F
  0.500000  0.250000  0.125000    0.00195312  31 t-inv F
 -0.375000  0.250000  0.125000    0.00195312  32 t-inv F
 -0.250000  0.250000  0.125000    0.00195312  33 t-inv F
 -0.125000  0.250000  0.125000    0.00195312  34 t-inv F
  0.375000  0.375000  0.125000    0.00195312  35 t-inv F
  0.500000  0.375000  0.125000    0.00195312  36 t-inv F
 -0.375000  0.375000  0.125000    0.00195312  37 t-inv F
 -0.250000  0.375000  0.125000    0.00195312  38 t-inv F
 -0.125000  0.375000  0.125000    0.00195312  39 t-inv F
  0.500000  0.500000  0.125000    0.00195312  40 t-inv F
 -0.375000  0.500000  0.125000    0.00195312  41 t-inv F
 -0.250000  0.500000  0.125000    0.00195312  42 t-inv F
 -0.125000  0.500000  0.125000    0.00195312  43 t-inv F
 -0.375000 -0.375000  0.125000    0.00195312  44 t-inv F
 -0.250000 -0.375000  0.125000    0.00195312  45 t-inv F
 -0.250000 -0.250000  0.125000    0.00195312  46 t-inv F
  0.250000  0.250000  0.250000    0.00195312  47 t-inv F
  0.375000  0.250000  0.250000    0.00195312  48 t-inv F
  0.500000  0.250000  0.250000    0.00195312  49 t-inv F
 -0.375000  0.250000  0.250000    0.00195312  50 t-inv F
 -0.250000  0.250000  0.250000    0.00195312  51 t-inv F
  0.375000  0.375000  0.250000    0.00195312  52 t-inv F
  0.500000  0.375000  0.250000    0.00195312  53 t-inv F
 -0.375000  0.375000  0.250000    0.00195312  54 t-inv F
 -0.250000  0.375000  0.250000    0.00195312  55 t-inv F
  0.500000  0.500000  0.250000    0.00195312  56 t-inv F
 -0.375000  0.500000  0.250000    0.00195312  57 t-inv F
 -0.250000  0.500000  0.250000    0.00195312  58 t-inv F
 -0.375000 -0.375000  0.250000    0.00195312  59 t-inv F
  0.375000  0.375000  0.375000    0.00195312  60 t-inv F
  0.500000  0.375000  0.375000    0.00195312  61 t-inv F
 -0.375000  0.375000  0.375000    0.00195312  62 t-inv F
  0.500000  0.500000  0.375000    0.00195312  63 t-inv F
 -0.375000  0.500000  0.375000    0.00195312  64 t-inv F
  0.500000  0.500000  0.500000    0.00195312  65 t-inv F
 -0.125000 -0.000000  0.000000    0.00195312   2 t-inv F
  0.000000  0.125000  0.000000    0.00195312   2 t-inv F
  0.000000 -0.125000 -0.000000    0.00195312   2 t-inv F
  0.000000  0.000000  0.125000    0.00195312   2 t-inv F
 -0.000000  0.000000 -0.125000    0.00195312   2 t-inv F
 -0.250000 -0.000000  0.000000    0.00195312   3 t-inv F
  0.000000  0.250000  0.000000    0.00195312   3 t-inv F
  0.000000 -0.250000 -0.000000    0.00195312   3 t-inv F
  0.000000  0.000000  0.250000    0.00195312   3 t-inv F
 -0.000000  0.000000 -0.250000    0.00195312   3 t-inv F
 -0.375000  0.000000  0.000000    0.00195312   4 t-inv F
  0.000000  0.375000 -0.000000    0.00195312   4 t-inv F
  0.000000 -0.375000  0.000000    0.00195312   4 t-inv F
 -0.000000  0.000000  0.375000    0.00195312   4 t-inv F
  0.000000  0.000000 -0.375000    0.00195312   4 t-inv F
  0.000000  0.500000  0.000000    0.00195312   5 t-inv F
  0.000000  0.000000  0.500000    0.00195312   5 t-inv F
 -0.125000 -0.125000  0.000000    0.00195312   6 t-inv F
 -0.125000  0.000000 -0.125000    0.00195312   6 t-inv F
  0.125000  0.000000  0.125000    0.00195312   6 t-inv F
  0.000000  0.125000  0.125000    0.00195312   6 t-inv F
  0.000000 -0.125000 -0.125000    0.00195312   6 t-inv F
 -0.250000 -0.125000  0.000000    0.00195312   7 t-inv F
 -0.250000  0.000000 -0.125000    0.00195312   7 t-inv F
  0.250000  0.000000  0.125000    0.00195312   7 t-inv F
  0.000000  0.250000  0.125000    0.00195312   7 t-inv F
  0.000000 -0.250000 -0.125000    0.00195312   7 t-inv F
 -0.125000 -0.250000  0.000000    0.00195312   7 t-inv F
  0.125000  0.250000  0.000000    0.00195312   7 t-inv F
  0.125000  0.000000  0.250000    0.00195312   7 t-inv F
 -0.125000  0.000000 -0.250000    0.00195312   7 t-inv F
  0.000000 -0.125000 -0.250000    0.00195312   7 t-inv F
  0.000000  0.125000  0.250000    0.00195312   7 t-inv F
 -0.375000 -0.125000  0.000000    0.00195312   8 t-inv F
 -0.375000  0.000000 -0.125000    0.00195312   8 t-inv F
  0.375000  0.000000  0.125000    0.00195312   8 t-inv F
  0.000000  0.375000  0.125000    0.00195312   8 t-inv F
  0.000000 -0.375000 -0.125000    0.00195312   8 t-inv F
 -0.125000 -0.375000  0.000000    0.00195312   8 t-inv F
  0.125000  0.375000  0.000000    0.00195312   8 t-inv F
  0.125000  0.000000  0.375000    0.00195312   8 t-inv F
 -0.125000  0.000000 -0.375000    0.00195312   8 t-inv F
  0.000000 -0.125000 -0.375000    0.00195312   8 t-inv F
  0.000000  0.125000  0.375000    0.00195312   8 t-inv F
 -0.500000 -0.125000  0.000000    0.00195312   9 t-inv F
 -0.500000  0.000000 -0.125000    0.00195312   9 t-inv F
  0.500000  0.000000  0.125000    0.00195312   9 t-inv F
  0.000000  0.500000  0.125000    0.00195312   9 t-inv F
  0.000000 -0.500000 -0.125000    0.00195312   9 t-inv F
 -0.125000 -0.500000  0.000000    0.00195312   9 t-inv F
  0.125000  0.500000  0.000000    0.00195312   9 t-inv F
  0.125000  0.000000  0.500000    0.00195312   9 t-inv F
 -0.125000  0.000000 -0.500000    0.00195312   9 t-inv F
  0.000000 -0.125000 -0.500000    0.00195312   9 t-inv F
  0.000000  0.125000  0.500000    0.00195312   9 t-inv F
  0.375000 -0.125000  0.000000    0.00195312  10 t-inv F
  0.375000  0.000000 -0.125000    0.00195312  10 t-inv F
 -0.375000  0.000000  0.125000    0.00195312  10 t-inv F
  0.000000 -0.375000  0.125000    0.00195312  10 t-inv F
  0.000000  0.375000 -0.125000    0.00195312  10 t-inv F
 -0.125000  0.375000  0.000000    0.00195312  10 t-inv F
  0.125000 -0.375000  0.000000    0.00195312  10 t-inv F
  0.125000  0.000000 -0.375000    0.00195312  10 t-inv F
 -0.125000  0.000000  0.375000    0.00195312  10 t-inv F
  0.000000 -0.125000  0.375000    0.00195312  10 t-inv F
  0.000000  0.125000 -0.375000    0.00195312  10 t-inv F
  0.250000 -0.125000  0.000000    0.00195312  11 t-inv F
  0.250000  0.000000 -0.125000    0.00195312  11 t-inv F
 -0.250000  0.000000  0.125000    0.00195312  11 t-inv F
  0.000000 -0.250000  0.125000    0.00195312  11 t-inv F
  0.000000  0.250000 -0.125000    0.00195312  11 t-inv F
 -0.125000  0.250000  0.000000    0.00195312  11 t-inv F
  0.125000 -0.250000  0.000000    0.00195312  11 t-inv F
  0.125000  0.000000 -0.250000    0.00195312  11 t-inv F
 -0.125000  0.000000  0.250000    0.00195312  11 t-inv F
  0.000000 -0.125000  0.250000    0.00195312  11 t-inv F
  0.000000  0.125000 -0.250000    0.00195312  11 t-inv F
  0.125000 -0.125000  0.000000    0.00195312  12 t-inv F
  0.125000  0.000000 -0.125000    0.00195312  12 t-inv F
 -0.125000  0.000000  0.125000    0.00195312  12 t-inv F
  0.000000 -0.125000  0.125000    0.00195312  12 t-inv F
  0.000000  0.125000 -0.125000    0.00195312  12 t-inv F
 -0.250000 -0.250000  0.000000    0.00195312  13 t-inv F
 -0.250000  0.000000 -0.250000    0.00195312  13 t-inv F
  0.250000  0.000000  0.250000    0.00195312  13 t-inv F
  0.000000  0.250000  0.250000    0.00195312  13 t-inv F
  0.000000 -0.250000 -0.250000    0.00195312  13 t-inv F
 -0.375000 -0.250000  0.000000    0.00195312  14 t-inv F
 -0.375000  0.000000 -0.250000    0.00195312  14 t-inv F
  0.375000  0.000000  0.250000    0.00195312  14 t-inv F
  0.000000  0.375000  0.250000    0.00195312  14 t-inv F
  0.000000 -0.375000 -0.250000    0.00195312  14 t-inv F
 -0.250000 -0.375000  0.000000    0.00195312  14 t-inv F
  0.250000  0.375000  0.000000    0.00195312  14 t-inv F
  0.250000  0.000000  0.375000    0.00195312  14 t-inv F
 -0.250000  0.000000 -0.375000    0.00195312  14 t-inv F
  0.000000 -0.250000 -0.375000    0.00195312  14 t-inv F
  0.000000  0.250000  0.375000    0.00195312  14 t-inv F
 -0.500000 -0.250000  0.000000    0.00195312  15 t-inv F
 -0.500000  0.000000 -0.250000    0.00195312  15 t-inv F
  0.500000  0.000000  0.250000    0.00195312  15 t-inv F
  0.000000  0.500000  0.250000    0.00195312  15 t-inv F
  0.000000 -0.500000 -0.250000    0.00195312  15 t-inv F
 -0.250000 -0.500000  0.000000    0.00195312  15 t-inv F
  0.250000  0.500000  0.000000    0.00195312  15 t-inv F
  0.250000  0.000000  0.500000    0.00195312  15 t-inv F
 -0.250000  0.000000 -0.500000    0.00195312  15 t-inv F
  0.000000 -0.250000 -0.500000    0.00195312  15 t-inv F
  0.000000  0.250000  0.500000    0.00195312  15 t-inv F
  0.375000 -0.250000  0.000000    0.00195312  16 t-inv F
  0.375000  0.000000 -0.250000    0.00195312  16 t-inv F
 -0.375000  0.000000  0.250000    0.00195312  16 t-inv F
  0.000000 -0.375000  0.250000    0.00195312  16 t-inv F
  0.000000  0.375000 -0.250000    0.00195312  16 t-inv F
 -0.250000  0.375000  0.000000    0.00195312  16 t-inv F
  0.250000 -0.375000  0.000000    0.00195312  16 t-inv F
  0.250000  0.000000 -0.375000    0.00195312  16 t-inv F
 -0.250000  0.000000  0.375000    0.00195312  16 t-inv F
  0.000000 -0.250000  0.375000    0.00195312  16 t-inv F
  0.000000  0.250000 -0.375000    0.00195312  16 t-inv F
  0.250000 -0.250000  0.000000    0.00195312  17 t-inv F
  0.250000  0.000000 -0.250000    0.00195312  17 t-inv F
 -0.250000  0.000000  0.250000    0.00195312  17 t-inv F
  0.000000 -0.250000  0.250000    0.00195312  17 t-inv F
  0.000000  0.250000 -0.250000    0.00195312  17 t-inv F
 -0.375000 -0.375000  0.000000    0.00195312  18 t-inv F
 -0.375000  0.000000 -0.375000    0.00195312  18 t-inv F
  0.375000  0.000000  0.375000    0.00195312  18 t-inv F
  0.000000  0.375000  0.375000    0.00195312  18 t-inv F
  0.000000 -0.375000 -0.375000    0.00195312  18 t-inv F
 -0.500000 -0.375000  0.000000    0.00195312  19 t-inv F
 -0.500000  0.000000 -0.375000    0.00195312  19 t-inv F
  0.500000  0.000000  0.375000    0.00195312  19 t-inv F
  0.000000  0.500000  0.375000    0.00195312  19 t-inv F
  0.000000 -0.500000 -0.375000    0.00195312  19 t-inv F
 -0.375000 -0.500000  0.000000    0.00195312  19 t-inv F
  0.375000  0.500000  0.000000    0.00195312  19 t-inv F
  0.375000  0.000000  0.500000    0.00195312  19 t-inv F
 -0.375000  0.000000 -0.500000    0.00195312  19 t-inv F
  0.000000 -0.375000 -0.500000    0.00195312  19 t-inv F
  0.000000  0.375000  0.500000    0.00195312  19 t-inv F
  0.375000 -0.375000  0.000000    0.00195312  20 t-inv F
  0.375000  0.000000 -0.375000    0.00195312  20 t-inv F
 -0.375000  0.000000  0.375000    0.00195312  20 t-inv F
  0.000000 -0.375000  0.375000    0.00195312  20 t-inv F
  0.000000  0.375000 -0.375000    0.00195312  20 t-inv F
 -0.500000  0.000000 -0.500000    0.00195312  21 t-inv F
  0.000000  0.500000  0.500000    0.00195312  21 t-inv F
 -0.125000 -0.125000 -0.125000    0.00195312  22 t-inv F
 -0.250000 -0.125000 -0.125000    0.00195312  23 t-inv F
  0.125000  0.250000  0.125000    0.00195312  23 t-inv F
 -0.125000 -0.250000 -0.125000    0.00195312  23 t-inv F
  0.125000  0.125000  0.250000    0.00195312  23 t-inv F
 -0.125000 -0.125000 -0.250000    0.00195312  23 t-inv F
 -0.375000 -0.125000 -0.125000    0.00195312  24 t-inv F
  0.125000  0.375000  0.125000    0.00195312  24 t-inv F
 -0.125000 -0.375000 -0.125000    0.00195312  24 t-inv F
  0.125000  0.125000  0.375000    0.00195312  24 t-inv F
 -0.125000 -0.125000 -0.375000    0.00195312  24 t-inv F
 -0.500000 -0.125000 -0.125000    0.00195312  25 t-inv F
  0.125000  0.500000  0.125000    0.00195312  25 t-inv F
 -0.125000 -0.500000 -0.125000    0.00195312  25 t-inv F
  0.125000  0.125000  0.500000    0.00195312  25 t-inv F
 -0.125000 -0.125000 -0.500000    0.00195312  25 t-inv F
  0.375000 -0.125000 -0.125000    0.00195312  26 t-inv F
  0.125000 -0.375000  0.125000    0.00195312  26 t-inv F
 -0.125000  0.375000 -0.125000    0.00195312  26 t-inv F
  0.125000  0.125000 -0.375000    0.00195312  26 t-inv F
 -0.125000 -0.125000  0.375000    0.00195312  26 t-inv F
  0.250000 -0.125000 -0.125000    0.00195312  27 t-inv F
  0.125000 -0.250000  0.125000    0.00195312  27 t-inv F
 -0.125000  0.250000 -0.125000    0.00195312  27 t-inv F
  0.125000  0.125000 -0.250000    0.00195312  27 t-inv F
 -0.125000 -0.125000  0.250000    0.00195312  27 t-inv F
  0.125000 -0.125000 -0.125000    0.00195312  28 t-inv F
  0.125000 -0.125000  0.125000    0.00195312  28 t-inv F
 -0.125000  0.125000 -0.125000    0.00195312  28 t-inv F
  0.125000  0.125000 -0.125000    0.00195312  28 t-inv F
 -0.125000 -0.125000  0.125000    0.00195312  28 t-inv F
 -0.250000 -0.250000 -0.125000    0.00195312  29 t-inv F
 -0.250000 -0.125000 -0.250000    0.00195312  29 t-inv F
  0.250000  0.125000  0.250000    0.00195312  29 t-inv F
  0.125000  0.250000  0.250000    0.00195312  29 t-inv F
 -0.125000 -0.250000 -0.250000    0.00195312  29 t-inv F
 -0.375000 -0.250000 -0.125000    0.00195312  30 t-inv F
 -0.375000 -0.125000 -0.250000    0.00195312  30 t-inv F
  0.375000  0.125000  0.250000    0.00195312  30 t-inv F
  0.125000  0.375000  0.250000    0.00195312  30 t-inv F
 -0.125000 -0.375000 -0.250000    0.00195312  30 t-inv F
 -0.250000 -0.375000 -0.125000    0.00195312  30 t-inv F
  0.250000  0.375000  0.125000    0.00195312  30 t-inv F
  0.250000  0.125000  0.375000    0.00195312  30 t-inv F
 -0.250000 -0.125000 -0.375000    0.00195312  30 t-inv F
 -0.125000 -0.250000 -0.375000    0.00195312  30 t-inv F
  0.125000  0.250000  0.375000    0.00195312  30 t-inv F
 -0.500000 -0.250000 -0.125000    0.00195312  31 t-inv F
 -0.500000 -0.125000 -0.250000    0.00195312  31 t-inv F
  0.500000  0.125000  0.250000    0.00195312  31 t-inv F
  0.125000  0.500000  0.250000    0.00195312  31 t-inv F
 -0.125000 -0.500000 -0.250000    0.00195312  31 t-inv F
 -0.250000 -0.500000 -0.125000    0.00195312  31 t-inv F
  0.250000  0.500000  0.125000    0.00195312  31 t-inv F
  0.250000  0.125000  0.500000    0.00195312  31 t-inv F
 -0.250000 -0.125000 -0.500000    0.00195312  31 t-inv F
 -0.125000 -0.250000 -0.500000    0.00195312  31 t-inv F
  0.125000  0.250000  0.500000    0.00195312  31 t-inv F
  0.375000 -0.250000 -0.125000    0.00195312  32 t-inv F
  0.375000 -0.125000 -0.250000    0.00195312  32 t-inv F
 -0.375000  0.125000  0.250000    0.00195312  32 t-inv F
  0.125000 -0.375000  0.250000    0.00195312  32 t-inv F
 -0.125000  0.375000 -0.250000    0.00195312  32 t-inv F
 -0.250000  0.375000 -0.125000    0.00195312  32 t-inv F
  0.250000 -0.375000  0.125000    0.00195312  32 t-inv F
  0.250000  0.125000 -0.375000    0.00195312  32 t-inv F
 -0.250000 -0.125000  0.375000    0.00195312  32 t-inv F
 -0.125000 -0.250000  0.375000    0.00195312  32 t-inv F
  0.125000  0.250000 -0.375000    0.00195312  32 t-inv F
  0.250000 -0.250000 -0.125000    0.00195312  33 t-inv F
  0.250000 -0.125000 -0.250000    0.00195312  33 t-inv F
 -0.250000  0.125000  0.250000    0.00195312  33 t-inv F
  0.125000 -0.250000  0.250000    0.00195312  33 t-inv F
 -0.125000  0.250000 -0.250000    0.00195312  33 t-inv F
 -0.250000  0.250000 -0.125000    0.00195312  33 t-inv F
  0.250000 -0.250000  0.125000    0.00195312  33 t-inv F
  0.250000  0.125000 -0.250000    0.00195312  33 t-inv F
 -0.250000 -0.125000  0.250000    0.00195312  33 t-inv F
 -0.125000 -0.250000  0.250000    0.00195312  33 t-inv F
  0.125000  0.250000 -0.250000    0.00195312  33 t-inv F
  0.125000 -0.250000 -0.125000    0.00195312  34 t-inv F
  0.125000 -0.125000 -0.250000    0.00195312  34 t-inv F
 -0.125000  0.125000  0.250000    0.00195312  34 t-inv F
  0.125000 -0.125000  0.250000    0.00195312  34 t-inv F
 -0.125000  0.125000 -0.250000    0.00195312  34 t-inv F
 -0.250000  0.125000 -0.125000    0.00195312  34 t-inv F
  0.250000 -0.125000  0.125000    0.00195312  34 t-inv F
  0.250000  0.125000 -0.125000    0.00195312  34 t-inv F
 -0.250000 -0.125000  0.125000    0.00195312  34 t-inv F
 -0.125000 -0.250000  0.125000    0.00195312  34 t-inv F
  0.125000  0.250000 -0.125000    0.00195312  34 t-inv F
 -0.375000 -0.375000 -0.125000    0.00195312  35 t-inv F
 -0.375000 -0.125000 -0.375000    0.00195312  35 t-inv F
  0.375000  0.125000  0.375000    0.00195312  35 t-inv F
  0.125000  0.375000  0.375000    0.00195312  35 t-inv F
 -0.125000 -0.375000 -0.375000    0.00195312  35 t-inv F
 -0.500000 -0.375000 -0.125000    0.00195312  36 t-inv F
 -0.500000 -0.125000 -0.375000    0.00195312  36 t-inv F
  0.500000  0.125000  0.375000    0.00195312  36 t-inv F
  0.125000  0.500000  0.375000    0.00195312  36 t-inv F
 -0.125000 -0.500000 -0.375000    0.00195312  36 t-inv F
 -0.375000 -0.500000 -0.125000    0.00195312  36 t-inv F
  0.375000  0.500000  0.125000    0.00195312  36 t-inv F
  0.375000  0.125000  0.500000    0.00195312  36 t-inv F
 -0.375000 -0.125000 -0.500000    0.00195312  36 t-inv F
 -0.125000 -0.375000 -0.500000    0.00195312  36 t-inv F
  0.125000  0.375000  0.500000    0.00195312  36 t-inv F
  0.375000 -0.375000 -0.125000    0.00195312  37 t-inv F
  0.375000 -0.125000 -0.375000    0.00195312  37 t-inv F
 -0.375000  0.125000  0.375000    0.00195312  37 t-inv F
  0.125000 -0.375000  0.375000    0.00195312  37 t-inv F
 -0.125000  0.375000 -0.375000    0.00195312  37 t-inv F
 -0.375000  0.375000 -0.125000    0.00195312  37 t-inv F
  0.375000 -0.375000  0.125000    0.00195312  37 t-inv F
  0.375000  0.125000 -0.375000    0.00195312  37 t-inv F
 -0.375000 -0.125000  0.375000    0.00195312  37 t-inv F
 -0.125000 -0.375000  0.375000    0.00195312  37 t-inv F
  0.125000  0.375000 -0.375000    0.00195312  37 t-inv F
  0.250000 -0.375000 -0.125000    0.00195312  38 t-inv F
  0.250000 -0.125000 -0.375000    0.00195312  38 t-inv F
 -0.250000  0.125000  0.375000    0.00195312  38 t-inv F
  0.125000 -0.250000  0.375000    0.00195312  38 t-inv F
 -0.125000  0.250000 -0.375000    0.00195312  38 t-inv F
 -0.375000  0.250000 -0.125000    0.00195312  38 t-inv F
  0.375000 -0.250000  0.125000    0.00195312  38 t-inv F
  0.375000  0.125000 -0.250000    0.00195312  38 t-inv F
 -0.375000 -0.125000  0.250000    0.00195312  38 t-inv F
 -0.125000 -0.375000  0.250000    0.00195312  38 t-inv F
  0.125000  0.375000 -0.250000    0.00195312  38 t-inv F
  0.125000 -0.375000 -0.125000    0.00195312  39 t-inv F
  0.125000 -0.125000 -0.375000    0.00195312  39 t-inv F
 -0.125000  0.125000  0.375000    0.00195312  39 t-inv F
  0.125000 -0.125000  0.375000    0.00195312  39 t-inv F
 -0.125000  0.125000 -0.375000    0.00195312  39 t-inv F
 -0.375000  0.125000 -0.125000    0.00195312  39 t-inv F
  0.375000 -0.125000  0.125000    0.00195312  39 t-inv F
  0.375000  0.125000 -0.125000    0.00195312  39 t-inv F
 -0.375000 -0.125000  0.125000    0.00195312  39 t-inv F
 -0.125000 -0.375000  0.125000    0.00195312  39 t-inv F
  0.125000  0.375000 -0.125000    0.00195312  39 t-inv F
 -0.500000 -0.500000 -0.125000    0.00195312  40 t-inv F
 -0.500000 -0.125000 -0.500000    0.00195312  40 t-inv F
  0.500000  0.125000  0.500000    0.00195312  40 t-inv F
  0.125000  0.500000  0.500000    0.00195312  40 t-inv F
 -0.125000 -0.500000 -0.500000    0.00195312  40 t-inv F
  0.375000 -0.500000 -0.125000    0.00195312  41 t-inv F
  0.375000 -0.125000 -0.500000    0.00195312  41 t-inv F
 -0.375000  0.125000  0.500000    0.00195312  41 t-inv F
  0.125000 -0.375000  0.500000    0.00195312  41 t-inv F
 -0.125000  0.375000 -0.500000    0.00195312  41 t-inv F
 -0.500000  0.375000 -0.125000    0.00195312  41 t-inv F
  0.500000 -0.375000  0.125000    0.00195312  41 t-inv F
  0.500000  0.125000 -0.375000    0.00195312  41 t-inv F
 -0.500000 -0.125000  0.375000    0.00195312  41 t-inv F
 -0.125000 -0.500000  0.375000    0.00195312  41 t-inv F
  0.125000  0.500000 -0.375000    0.00195312  41 t-inv F
  0.250000 -0.500000 -0.125000    0.00195312  42 t-inv F
  0.250000 -0.125000 -0.500000    0.00195312  42 t-inv F
 -0.250000  0.125000  0.500000    0.00195312  42 t-inv F
  0.125000 -0.250000  0.500000    0.00195312  42 t-inv F
 -0.125000  0.250000 -0.500000    0.00195312  42 t-inv F
 -0.500000  0.250000 -0.125000    0.00195312  42 t-inv F
  0.500000 -0.250000  0.125000    0.00195312  42 t-inv F
  0.500000  0.125000 -0.250000    0.00195312  42 t-inv F
 -0.500000 -0.125000  0.250000    0.00195312  42 t-inv F
 -0.125000 -0.500000  0.250000    0.00195312  42 t-inv F
  0.125000  0.500000 -0.250000    0.00195312  42 t-inv F
  0.125000 -0.500000 -0.125000    0.00195312  43 t-inv F
  0.125000 -0.125000 -0.500000    0.00195312  43 t-inv F
 -0.125000  0.125000  0.500000    0.00195312  43 t-inv F
 -0.500000  0.125000 -0.125000    0.00195312  43 t-inv F
  0.500000 -0.125000  0.125000    0.00195312  43 t-inv F
  0.375000  0.375000 -0.125000    0.00195312  44 t-inv F
  0.375000 -0.125000  0.375000    0.00195312  44 t-inv F
 -0.375000  0.125000 -0.375000    0.00195312  44 t-inv F
  0.125000 -0.375000 -0.375000    0.00195312  44 t-inv F
 -0.125000  0.375000  0.375000    0.00195312  44 t-inv F
  0.250000  0.375000 -0.125000    0.00195312  45 t-inv F
  0.250000 -0.125000  0.375000    0.00195312  45 t-inv F
 -0.250000  0.125000 -0.375000    0.00195312  45 t-inv F
  0.125000 -0.250000 -0.375000    0.00195312  45 t-inv F
 -0.125000  0.250000  0.375000    0.00195312  45 t-inv F
  0.375000  0.250000 -0.125000    0.00195312  45 t-inv F
 -0.375000 -0.250000  0.125000    0.00195312  45 t-inv F
 -0.375000  0.125000 -0.250000    0.00195312  45 t-inv F
  0.375000 -0.125000  0.250000    0.00195312  45 t-inv F
 -0.125000  0.375000  0.250000    0.00195312  45 t-inv F
  0.125000 -0.375000 -0.250000    0.00195312  45 t-inv F
  0.250000  0.250000 -0.125000    0.00195312  46 t-inv F
  0.250000 -0.125000  0.250000    0.00195312  46 t-inv F
 -0.250000  0.125000 -0.250000    0.00195312  46 t-inv F
  0.125000 -0.250000 -0.250000    0.00195312  46 t-inv F
 -0.125000  0.250000  0.250000    0.00195312  46 t-inv F
 -0.250000 -0.250000 -0.250000    0.00195312  47 t-inv F
 -0.375000 -0.250000 -0.250000    0.00195312  48 t-inv F
  0.250000  0.375000  0.250000    0.00195312  48 t-inv F
 -0.250000 -0.375000 -0.250000    0.00195312  48 t-inv F
  0.250000  0.250000  0.375000    0.00195312  48 t-inv F
 -0.250000 -0.250000 -0.375000    0.00195312  48 t-inv F
 -0.500000 -0.250000 -0.250000    0.00195312  49 t-inv F
  0.250000  0.500000  0.250000    0.00195312  49 t-inv F
 -0.250000 -0.500000 -0.250000    0.00195312  49 t-inv F
  0.250000  0.250000  0.500000    0.00195312  49 t-inv F
 -0.250000 -0.250000 -0.500000    0.00195312  49 t-inv F
  0.375000 -0.250000 -0.250000    0.00195312  50 t-inv F
  0.250000 -0.375000  0.250000    0.00195312  50 t-inv F
 -0.250000  0.375000 -0.250000    0.00195312  50 t-inv F
  0.250000  0.250000 -0.375000    0.00195312  50 t-inv F
 -0.250000 -0.250000  0.375000    0.00195312  50 t-inv F
  0.250000 -0.250000 -0.250000    0.00195312  51 t-inv F
  0.250000 -0.250000  0.250000    0.00195312  51 t-inv F
 -0.250000  0.250000 -0.250000    0.00195312  51 t-inv F
  0.250000  0.250000 -0.250000    0.00195312  51 t-inv F
 -0.250000 -0.250000  0.250000    0.00195312  51 t-inv F
 -0.375000 -0.375000 -0.250000    0.00195312  52 t-inv F
 -0.375000 -0.250000 -0.375000    0.00195312  52 t-inv F
  0.375000  0.250000  0.375000    0.00195312  52 t-inv F
  0.250000  0.375000  0.375000    0.00195312  52 t-inv F
 -0.250000 -0.375000 -0.375000    0.00195312  52 t-inv F
 -0.500000 -0.375000 -0.250000    0.00195312  53 t-inv F
 -0.500000 -0.250000 -0.375000    0.00195312  53 t-inv F
  0.500000  0.250000  0.375000    0.00195312  53 t-inv F
  0.250000  0.500000  0.375000    0.00195312  53 t-inv F
 -0.250000 -0.500000 -0.375000    0.00195312  53 t-inv F
 -0.375000 -0.500000 -0.250000    0.00195312  53 t-inv F
  0.375000  0.500000  0.250000    0.00195312  53 t-inv F
  0.375000  0.250000  0.500000    0.00195312  53 t-inv F
 -0.375000 -0.250000 -0.500000    0.00195312  53 t-inv F
 -0.250000 -0.375000 -0.500000    0.00195312  53 t-inv F
  0.250000  0.375000  0.500000    0.00195312  53 t-inv F
  0.375000 -0.375000 -0.250000    0.00195312  54 t-inv F
  0.375000 -0.250000 -0.375000    0.00195312  54 t-inv F
 -0.375000  0.250000  0.375000    0.00195312  54 t-inv F
  0.250000 -0.375000  0.375000    0.00195312  54 t-inv F
 -0.250000  0.375000 -0.375000    0.00195312  54 t-inv F
 -0.375000  0.375000 -0.250000    0.00195312  54 t-inv F
  0.375000 -0.375000  0.250000    0.00195312  54 t-inv F
  0.375000  0.250000 -0.375000    0.00195312  54 t-inv F
 -0.375000 -0.250000  0.375000    0.00195312  54 t-inv F
 -0.250000 -0.375000  0.375000    0.00195312  54 t-inv F
  0.250000  0.375000 -0.375000    0.00195312  54 t-inv F
  0.250000 -0.375000 -0.250000    0.00195312  55 t-inv F
  0.250000 -0.250000 -0.375000    0.00195312  55 t-inv F
 -0.250000  0.250000  0.375000    0.00195312  55 t-inv F
  0.250000 -0.250000  0.375000    0.00195312  55 t-inv F
 -0.250000  0.250000 -0.375000    0.00195312  55 t-inv F
 -0.375000  0.250000 -0.250000    0.00195312  55 t-inv F
  0.375000 -0.250000  0.250000    0.00195312  55 t-inv F
  0.375000  0.250000 -0.250000    0.00195312  55 t-inv F
 -0.375000 -0.250000  0.250000    0.00195312  55 t-inv F
 -0.250000 -0.375000  0.250000    0.00195312  55 t-inv F
  0.250000  0.375000 -0.250000    0.00195312  55 t-inv F
 -0.500000 -0.500000 -0.250000    0.00195312  56 t-inv F
 -0.500000 -0.250000 -0.500000    0.00195312  56 t-inv F
  0.500000  0.250000  0.500000    0.00195312  56 t-inv F
  0.250000  0.500000  0.500000    0.00195312  56 t-inv F
 -0.250000 -0.500000 -0.500000    0.00195312  56 t-inv F
  0.375000 -0.500000 -0.250000    0.00195312  57 t-inv F
  0.375000 -0.250000 -0.500000    0.00195312  57 t-inv F
 -0.375000  0.250000  0.500000    0.00195312  57 t-inv F
  0.250000 -0.375000  0.500000    0.00195312  57 t-inv F
 -0.250000  0.375000 -0.500000    0.00195312  57 t-inv F
 -0.500000  0.375000 -0.250000    0.00195312  57 t-inv F
  0.500000 -0.375000  0.250000    0.00195312  57 t-inv F
  0.500000  0.250000 -0.375000    0.00195312  57 t-inv F
 -0.500000 -0.250000  0.375000    0.00195312  57 t-inv F
 -0.250000 -0.500000  0.375000    0.00195312  57 t-inv F
  0.250000  0.500000 -0.375000    0.00195312  57 t-inv F
  0.250000 -0.500000 -0.250000    0.00195312  58 t-inv F
  0.250000 -0.250000 -0.500000    0.00195312  58 t-inv F
 -0.250000  0.250000  0.500000    0.00195312  58 t-inv F
 -0.500000  0.250000 -0.250000    0.00195312  58 t-inv F
  0.500000 -0.250000  0.250000    0.00195312  58 t-inv F
  0.375000  0.375000 -0.250000    0.00195312  59 t-inv F
  0.375000 -0.250000  0.375000    0.00195312  59 t-inv F
 -0.375000  0.250000 -0.375000    0.00195312  59 t-inv F
  0.250000 -0.375000 -0.375000    0.00195312  59 t-inv F
 -0.250000  0.375000  0.375000    0.00195312  59 t-inv F
 -0.375000 -0.375000 -0.375000    0.00195312  60 t-inv F
 -0.500000 -0.375000 -0.375000    0.00195312  61 t-inv F
  0.375000  0.500000  0.375000    0.00195312  61 t-inv F
 -0.375000 -0.500000 -0.375000    0.00195312  61 t-inv F
  0.375000  0.375000  0.500000    0.00195312  61 t-inv F
 -0.375000 -0.375000 -0.500000    0.00195312  61 t-inv F
  0.375000 -0.375000 -0.375000    0.00195312  62 t-inv F
  0.375000 -0.375000  0.375000    0.00195312  62 t-inv F
 -0.375000  0.375000 -0.375000    0.00195312  62 t-inv F
  0.375000  0.375000 -0.375000    0.00195312  62 t-inv F
 -0.375000 -0.375000  0.375000    0.00195312  62 t-inv F
 -0.500000 -0.500000 -0.375000    0.00195312  63 t-inv F
 -0.500000 -0.375000 -0.500000    0.00195312  63 t-inv F
  0.500000  0.375000  0.500000    0.00195312  63 t-inv F
  0.375000  0.500000  0.500000    0.00195312  63 t-inv F
 -0.375000 -0.500000 -0.500000    0.00195312  63 t-inv F
  0.375000 -0.500000 -0.375000    0.00195312  64 t-inv F
  0.375000 -0.375000 -0.500000    0.00195312  64 t-inv F
 -0.375000  0.375000  0.500000    0.00195312  64 t-inv F
 -0.500000  0.375000 -0.375000    0.00195312  64 t-inv F
  0.500000 -0.375000  0.375000    0.00195312  64 t-inv F


--------------------------------------------------------------------------------------------------------




 Dimension of arrays:
   k-points           NKPTS =     65   k-points in BZ     NKDIM =     65   number of bands    NBANDS=     48
   number of dos      NEDOS =    301   number of ions     NIONS =      3
   non local maximal  LDIM  =      4   non local SUM 2l+1 LMDIM =      8
   total plane-waves  NPLWV =  74088
   max r-space proj   IRMAX =      1   max aug-charges    IRDMAX=  18430
   dimension x,y,z NGX =    42 NGY =   42 NGZ =   42
   dimension x,y,z NGXF=    84 NGYF=   84 NGZF=   84
   support grid    NGXF=    84 NGYF=   84 NGZF=   84
   ions per type =               3
   NGX,Y,Z   is equivalent  to a cutoff of   7.41,  7.41,  7.41 a.u.
   NGXF,Y,Z  is equivalent  to a cutoff of  14.83, 14.83, 14.83 a.u.

 SYSTEM =  Na                                      
 POSCAR =  Na3                                     

 Startparameter for this run:
   NWRITE =      2    write-flag & timer
   PREC   = normal    normal or accurate (medium, high low for compatibility)
   ISTART =      1    job   : 0-new  1-cont  2-samecut
   ICHARG =      0    charge: 1-file 2-atom 10-const
   ISPIN  =      1    spin polarized calculation?
   LNONCOLLINEAR =      F non collinear calculations
   LSORBIT =      F    spin-orbit coupling
   INIWAV =      1    electr: 0-lowe 1-rand  2-diag
   LASPH  =      F    aspherical Exc in radial PAW
 Electronic Relaxation 1
   ENCUT  =  337.4 eV  24.80 Ry    4.98 a.u.  14.11 14.11 14.11*2*pi/ulx,y,z
   ENINI  =  337.4     initial cutoff
   ENAUG  =  368.1 eV  augmentation charge cutoff
   NELM   =     60;   NELMIN=  2; NELMDL=  0     # of ELM steps 
   EDIFF  = 0.1E-03   stopping-criterion for ELM
   LREAL  =      F    real-space projection
   NLSPLINE    = F    spline interpolate recip. space projectors
   LCOMPAT=      F    compatible to vasp.4.4
   GGA_COMPAT  = T    GGA compatible to vasp.4.4-vasp.4.6
   LMAXPAW     = -100 max onsite density
   LMAXMIX     =    2 max onsite mixed and CHGCAR
   VOSKOWN=      0    Vosko Wilk Nusair interpolation
   ROPT   =    0.00000
 Ionic relaxation
   EDIFFG = 0.1E-02   stopping-criterion for IOM
   NSW    =      0    number of steps for IOM
   NBLOCK =      1;   KBLOCK =      1    inner block; outer block 
   IBRION =     -1    ionic relax: 0-MD 1-quasi-New 2-CG
   NFREE  =      0    steps in history (QN), initial steepest desc. (CG)
   ISIF   =      2    stress and relaxation
   IWAVPR =     10    prediction:  0-non 1-charg 2-wave 3-comb
   ISYM   =      2    0-nonsym 1-usesym 2-fastsym
   LCORR  =      T    Harris-Foulkes like correction to forces

   POTIM  = 0.5000    time-step for ionic-motion
   TEIN   =    0.0    initial temperature
   TEBEG  =    0.0;   TEEND  =   0.0 temperature during run
   SMASS  =  -3.00    Nose mass-parameter (am)
   estimated Nose-frequenzy (Omega)   =  0.10E-29 period in steps = 0.13E+47 mass=  -0.203E-26a.u.
   SCALEE = 1.0000    scale energy and forces
   NPACO  =    256;   APACO  = 10.0  distance and # of slots for P.C.
   PSTRESS=    0.0 pullay stress

  Mass of Ions in am
   POMASS =  22.99
  Ionic Valenz
   ZVAL   =   7.00
  Atomic Wigner-Seitz radii
   RWIGS  =  -1.00
  virtual crystal weights 
   VCA    =   1.00
   NELECT =      21.0000    total number of electrons
   NUPDOWN=      -1.0000    fix difference up-down

 DOS related values:
   EMIN   =  10.00;   EMAX   =-10.00  energy-range for DOS
   EFERMI =   0.00;   METHOD = LEGACY      
   ISMEAR =     0;   SIGMA  =   0.05  broadening in eV -4-tet -1-fermi 0-gaus

 Electronic relaxation 2 (details)
   IALGO  =     38    algorithm
   LDIAG  =      T    sub-space diagonalisation (order eigenvalues)
   LSUBROT=      F    optimize rotation matrix (better conditioning)
   TURBO    =      0    0=normal 1=particle mesh
   IRESTART =      0    0=no restart 2=restart with 2 vectors
   NREBOOT  =      0    no. of reboots
   NMIN     =      0    reboot dimension
   EREF     =   0.00    reference energy to select bands
   IMIX   =      4    mixing-type and parameters
     AMIX     =   0.40;   BMIX     =  1.00
     AMIX_MAG =   1.60;   BMIX_MAG =  1.00
     AMIN     =   0.10
     WC   =   100.;   INIMIX=   1;  MIXPRE=   1;  MAXMIX= -45

 Intra band minimization:
   WEIMIN = 0.0000     energy-eigenvalue tresh-hold
   EBREAK =  0.52E-06  absolut break condition
   DEPER  =   0.30     relativ break condition  

   TIME   =   0.40     timestep for ELM

  volume/ion in A,a.u.               =      37.07       250.16
  Fermi-wavevector in a.u.,A,eV,Ry     =   0.939220  1.774868 12.002157  0.882134
  Thomas-Fermi vector in A             =   2.066510
 
 Write flags
   LWAVE        =      T    write WAVECAR
   LDOWNSAMPLE  =      F    k-point downsampling of WAVECAR
   LCHARG       =      T    write CHGCAR
   LVTOT        =      F    write LOCPOT, total local potential
   LVHAR        =      F    write LOCPOT, Hartree potential only
   WRT_POTENTIAL= false  ! write potential to hdf5 file
   LELF         =      F    write electronic localiz. function (ELF)
   LORBIT       =      0    0 simple, 1 ext, 2 COOP (PROOUT), +10 PAW based schemes


 Dipole corrections
   LMONO      =      F    monopole corrections only (constant potential shift)
   LDIPOL     =      F    correct potential (dipole corrections)
   IDIPOL     =      0    1-x, 2-y, 3-z, 4-all directions 
   EPSILON    =  1.0000000 bulk dielectric constant
   LVACPOTAV  =      F  vacuum potentials using an averaging scheme for the charge density
   VACPOTFLAT =  0.1000000 required flatness to determine vacuum potential
 Exchange correlation treatment:
   GGA     = PE    functional components
   XC_C    = 1    coefficients multiplying the functional components
   LIBXC   =     F    Libxc                    
   VOSKOWN =     0    Vosko Wilk Nusair interpolation
   LHFCALC =     F    Hartree Fock is set to
   LHFONE  =     F    Hartree Fock one center treatment
   AEXX    =    0.0000 exact exchange contribution

 Parameters of functionals:
   PE:
     No parameter
 
 Van der Waals corrections
   IVDW    =     0    specifies the selected vdW correction

 Linear response parameters
   LEPSILON=     F    determine dielectric tensor
   LRPA    =     F    only Hartree local field effects (RPA)
   LNABLA  =     F    use nabla operator in PAW spheres
   LVEL    =     F    velocity operator in full k-point grid
   CSHIFT  =0.1000    complex shift for real part using Kramers Kronig
   OMEGAMAX=  -1.0    maximum frequency
   DEG_THRESHOLD= 0.2000000E-02 threshold for treating states as degnerate
   RTIME   =   -0.100 relaxation time in fs
  (WPLASMAI=    0.000 imaginary part of plasma frequency in eV, 0.658/RTIME)
   DFIELD  = 0.0000000 0.0000000 0.0000000 field for delta impulse in time
 
  Optional k-point grid parameters
   LKPOINTS_OPT  =     T    use optional k-point grid
   KPOINTS_OPT_MODE=     1    mode for optional k-point grid
 
 Orbital magnetization related:
   ORBITALMAG=     F  switch on orbital magnetization
   LCHIMAG   =     F  perturbation theory with respect to B field
   DQ        =  0.001000  dq finite difference perturbation B field
   LLRAUG    =     F  two centre corrections for induced B field
   LBONE     =     F  B-component reconstruction in AE one-centre
   LVGVCALC  =     T  calculate vGv susceptibility
   LVGVAPPL  =     F  apply vGv susceptibility instead of pGv for G=0

 Random number generation:
   RANDOM_GENERATOR = DEFAULT
   PCG_SEED         = not used


--------------------------------------------------------------------------------------------------------


 Static calculation
 charge density and potential will be updated during run
 non-spin polarized calculation
 Variant of blocked Davidson
 Davidson routine will perform the subspace rotation
 perform sub-space diagonalisation
    after iterative eigenvector-optimisation
 modified Broyden-mixing scheme, WC =      100.0
 initial mixing is a Kerker type mixing with AMIX =  0.4000 and BMIX =      1.0000
 Hartree-type preconditioning will be used
 using additional bands           37
 reciprocal scheme for non local part
 use partial core corrections
 calculate Harris-corrections to forces 
   (improved forces if not selfconsistent)
 use gradient corrections 
 use of overlap-Matrix (Vanderbilt PP)
 Gauss-broadening in eV      SIGMA  =   0.05


--------------------------------------------------------------------------------------------------------


  energy-cutoff  :      337.43
  volume of cell :      111.21
      direct lattice vectors                 reciprocal lattice vectors
     3.668155505  0.000000000  8.674434154     0.272616578 -0.148939962  0.000000000
     1.758687886  3.219065351  8.674434154     0.000000000  0.310649176  0.000000000
     0.000000000  0.000000000  9.418130000    -0.251089606 -0.148939962  0.106178190

  length of vectors
     9.418130000  9.418130000  9.418130000     0.310649176  0.310649176  0.310649176


 
 old parameters found on file WAVECAR:
  energy-cutoff  :      337.43
  volume of cell :      111.21
      direct lattice vectors                 reciprocal lattice vectors
     3.668155505  0.000000000  8.674434154     0.272616578 -0.148939962  0.000000000
     1.758687886  3.219065351  8.674434154     0.000000000  0.310649176  0.000000000
     0.000000000  0.000000000  9.418130000    -0.251089606 -0.148939962  0.106178190

  length of vectors

 
 k-points in units of 2pi/SCALE and weight: Automatic kpoint scheme                 
   0.00000000  0.00000000  0.00000000       0.002
   0.03407707 -0.01861750  0.00000000       0.012
   0.06815414 -0.03723499  0.00000000       0.012
   0.10223122 -0.05585249  0.00000000       0.012
   0.13630829 -0.07446998  0.00000000       0.006
   0.03407707  0.02021365  0.00000000       0.012
   0.06815414  0.00159616  0.00000000       0.023
   0.10223122 -0.01702134  0.00000000       0.023
   0.13630829 -0.03563883  0.00000000       0.023
  -0.10223122  0.09468363  0.00000000       0.023
  -0.06815414  0.07606614  0.00000000       0.023
  -0.03407707  0.05744864  0.00000000       0.012
   0.06815414  0.04042730  0.00000000       0.012
   0.10223122  0.02180981  0.00000000       0.023
   0.13630829  0.00319231  0.00000000       0.023
  -0.10223122  0.13351478  0.00000000       0.023
  -0.06815414  0.11489728  0.00000000       0.012
   0.10223122  0.06064096  0.00000000       0.012
   0.13630829  0.04202346  0.00000000       0.023
  -0.10223122  0.17234593  0.00000000       0.012
   0.13630829  0.08085461  0.00000000       0.006
   0.00269087  0.00159616  0.01327227       0.004
   0.03676794 -0.01702134  0.01327227       0.012
   0.07084502 -0.03563883  0.01327227       0.012
   0.10492209 -0.05425633  0.01327227       0.012
  -0.13361742  0.07606614  0.01327227       0.012
  -0.09954035  0.05744864  0.01327227       0.012
  -0.06546327  0.03883115  0.01327227       0.012
   0.03676794  0.02180981  0.01327227       0.012
   0.07084502  0.00319231  0.01327227       0.023
   0.10492209 -0.01542518  0.01327227       0.023
  -0.13361742  0.11489728  0.01327227       0.023
  -0.09954035  0.09627979  0.01327227       0.023
  -0.06546327  0.07766229  0.01327227       0.023
   0.07084502  0.04202346  0.01327227       0.012
   0.10492209  0.02340596  0.01327227       0.023
  -0.13361742  0.15372843  0.01327227       0.023
  -0.09954035  0.13511094  0.01327227       0.023
  -0.06546327  0.11649344  0.01327227       0.023
   0.10492209  0.06223711  0.01327227       0.012
  -0.13361742  0.19255958  0.01327227       0.023
  -0.09954035  0.17394208  0.01327227       0.023
  -0.06546327  0.15532459  0.01327227       0.012
  -0.13361742 -0.07925845  0.01327227       0.012
  -0.09954035 -0.09787595  0.01327227       0.023
  -0.09954035 -0.05904480  0.01327227       0.012
   0.00538174  0.00319231  0.02654455       0.004
   0.03945882 -0.01542518  0.02654455       0.012
   0.07353589 -0.03404268  0.02654455       0.012
  -0.16500362  0.09627979  0.02654455       0.012
  -0.13092655  0.07766229  0.02654455       0.012
   0.03945882  0.02340596  0.02654455       0.012
   0.07353589  0.00478847  0.02654455       0.023
  -0.16500362  0.13511094  0.02654455       0.023
  -0.13092655  0.11649344  0.02654455       0.023
   0.07353589  0.04361962  0.02654455       0.012
  -0.16500362  0.17394208  0.02654455       0.023
  -0.13092655  0.15532459  0.02654455       0.012
  -0.16500362 -0.09787595  0.02654455       0.012
   0.00807261  0.00478847  0.03981682       0.004
   0.04214969 -0.01382903  0.03981682       0.012
  -0.19638982  0.11649344  0.03981682       0.012
   0.04214969  0.02500212  0.03981682       0.012
  -0.19638982  0.15532459  0.03981682       0.012
   0.01076349  0.00638463  0.05308910       0.002
 
 k-points in reciprocal lattice and weights: Automatic kpoint scheme                 
   0.00000000  0.00000000  0.00000000       0.002
   0.12500000  0.00000000  0.00000000       0.012
   0.25000000  0.00000000  0.00000000       0.012
   0.37500000 -0.00000000  0.00000000       0.012
   0.50000000  0.00000000  0.00000000       0.006
   0.12500000  0.12500000  0.00000000       0.012
   0.25000000  0.12500000  0.00000000       0.023
   0.37500000  0.12500000  0.00000000       0.023
   0.50000000  0.12500000  0.00000000       0.023
  -0.37500000  0.12500000  0.00000000       0.023
  -0.25000000  0.12500000  0.00000000       0.023
  -0.12500000  0.12500000  0.00000000       0.012
   0.25000000  0.25000000  0.00000000       0.012
   0.37500000  0.25000000  0.00000000       0.023
   0.50000000  0.25000000  0.00000000       0.023
  -0.37500000  0.25000000  0.00000000       0.023
  -0.25000000  0.25000000  0.00000000       0.012
   0.37500000  0.37500000  0.00000000       0.012
   0.50000000  0.37500000  0.00000000       0.023
  -0.37500000  0.37500000  0.00000000       0.012
   0.50000000  0.50000000  0.00000000       0.006
   0.12500000  0.12500000  0.12500000       0.004
   0.25000000  0.12500000  0.12500000       0.012
   0.37500000  0.12500000  0.12500000       0.012
   0.50000000  0.12500000  0.12500000       0.012
  -0.37500000  0.12500000  0.12500000       0.012
  -0.25000000  0.12500000  0.12500000       0.012
  -0.12500000  0.12500000  0.12500000       0.012
   0.25000000  0.25000000  0.12500000       0.012
   0.37500000  0.25000000  0.12500000       0.023
   0.50000000  0.25000000  0.12500000       0.023
  -0.37500000  0.25000000  0.12500000       0.023
  -0.25000000  0.25000000  0.12500000       0.023
  -0.12500000  0.25000000  0.12500000       0.023
   0.37500000  0.37500000  0.12500000       0.012
   0.50000000  0.37500000  0.12500000       0.023
  -0.37500000  0.37500000  0.12500000       0.023
  -0.25000000  0.37500000  0.12500000       0.023
  -0.12500000  0.37500000  0.12500000       0.023
   0.50000000  0.50000000  0.12500000       0.012
  -0.37500000  0.50000000  0.12500000       0.023
  -0.25000000  0.50000000  0.12500000       0.023
  -0.12500000  0.50000000  0.12500000       0.012
  -0.37500000 -0.37500000  0.12500000       0.012
  -0.25000000 -0.37500000  0.12500000       0.023
  -0.25000000 -0.25000000  0.12500000       0.012
   0.25000000  0.25000000  0.25000000       0.004
   0.37500000  0.25000000  0.25000000       0.012
   0.50000000  0.25000000  0.25000000       0.012
  -0.37500000  0.25000000  0.25000000       0.012
  -0.25000000  0.25000000  0.25000000       0.012
   0.37500000  0.37500000  0.25000000       0.012
   0.50000000  0.37500000  0.25000000       0.023
  -0.37500000  0.37500000  0.25000000       0.023
  -0.25000000  0.37500000  0.25000000       0.023
   0.50000000  0.50000000  0.25000000       0.012
  -0.37500000  0.50000000  0.25000000       0.023
  -0.25000000  0.50000000  0.25000000       0.012
  -0.37500000 -0.37500000  0.25000000       0.012
   0.37500000  0.37500000  0.37500000       0.004
   0.50000000  0.37500000  0.37500000       0.012
  -0.37500000  0.37500000  0.37500000       0.012
   0.50000000  0.50000000  0.37500000       0.012
  -0.37500000  0.50000000  0.37500000       0.012
   0.50000000  0.50000000  0.50000000       0.002
 
 position of ions in fractional coordinates (direct lattice) 
   0.00000000  0.00000000  0.00000000
   0.22222000  0.22222000  0.22222000
   0.77778000  0.77778000  0.77778000
 
 position of ions in cartesian coordinates  (Angst):
   0.00000000  0.00000000  0.00000000
   1.20595314  0.71534070  5.94816236
   4.22089025  2.50372465 20.81883594
 


--------------------------------------------------------------------------------------------------------


 k-point     1 :   0.0000 0.0000 0.0000  plane waves:    1569
 k-point     2 :   0.1250 0.0000 0.0000  plane waves:    1573
 k-point     3 :   0.2500 0.0000 0.0000  plane waves:    1569
 k-point     4 :   0.3750-0.0000 0.0000  plane waves:    1560
 k-point     5 :   0.5000 0.0000 0.0000  plane waves:    1574
 k-point     6 :   0.1250 0.1250 0.0000  plane waves:    1577
 k-point     7 :   0.2500 0.1250 0.0000  plane waves:    1579
 k-point     8 :   0.3750 0.1250 0.0000  plane waves:    1566
 k-point     9 :   0.5000 0.1250 0.0000  plane waves:    1557
 k-point    10 :  -0.3750 0.1250 0.0000  plane waves:    1553
 k-point    11 :  -0.2500 0.1250 0.0000  plane waves:    1561
 k-point    12 :  -0.1250 0.1250 0.0000  plane waves:    1575
 k-point    13 :   0.2500 0.2500 0.0000  plane waves:    1570
 k-point    14 :   0.3750 0.2500 0.0000  plane waves:    1567
 k-point    15 :   0.5000 0.2500 0.0000  plane waves:    1559
 k-point    16 :  -0.3750 0.2500 0.0000  plane waves:    1557
 k-point    17 :  -0.2500 0.2500 0.0000  plane waves:    1564
 k-point    18 :   0.3750 0.3750 0.0000  plane waves:    1568
 k-point    19 :   0.5000 0.3750 0.0000  plane waves:    1558
 k-point    20 :  -0.3750 0.3750 0.0000  plane waves:    1562
 k-point    21 :   0.5000 0.5000 0.0000  plane waves:    1562
 k-point    22 :   0.1250 0.1250 0.1250  plane waves:    1563
 k-point    23 :   0.2500 0.1250 0.1250  plane waves:    1577
 k-point    24 :   0.3750 0.1250 0.1250  plane waves:    1573
 k-point    25 :   0.5000 0.1250 0.1250  plane waves:    1556
 k-point    26 :  -0.3750 0.1250 0.1250  plane waves:    1563
 k-point    27 :  -0.2500 0.1250 0.1250  plane waves:    1566
 k-point    28 :  -0.1250 0.1250 0.1250  plane waves:    1571
 k-point    29 :   0.2500 0.2500 0.1250  plane waves:    1576
 k-point    30 :   0.3750 0.2500 0.1250  plane waves:    1581
 k-point    31 :   0.5000 0.2500 0.1250  plane waves:    1562
 k-point    32 :  -0.3750 0.2500 0.1250  plane waves:    1562
 k-point    33 :  -0.2500 0.2500 0.1250  plane waves:    1559
 k-point    34 :  -0.1250 0.2500 0.1250  plane waves:    1564
 k-point    35 :   0.3750 0.3750 0.1250  plane waves:    1572
 k-point    36 :   0.5000 0.3750 0.1250  plane waves:    1559
 k-point    37 :  -0.3750 0.3750 0.1250  plane waves:    1561
 k-point    38 :  -0.2500 0.3750 0.1250  plane waves:    1563
 k-point    39 :  -0.1250 0.3750 0.1250  plane waves:    1556
 k-point    40 :   0.5000 0.5000 0.1250  plane waves:    1558
 k-point    41 :  -0.3750 0.5000 0.1250  plane waves:    1559
 k-point    42 :  -0.2500 0.5000 0.1250  plane waves:    1562
 k-point    43 :  -0.1250 0.5000 0.1250  plane waves:    1550
 k-point    44 :  -0.3750-0.3750 0.1250  plane waves:    1564
 k-point    45 :  -0.2500-0.3750 0.1250  plane waves:    1557
 k-point    46 :  -0.2500-0.2500 0.1250  plane waves:    1569
 k-point    47 :   0.2500 0.2500 0.2500  plane waves:    1584
 k-point    48 :   0.3750 0.2500 0.2500  plane waves:    1576
 k-point    49 :   0.5000 0.2500 0.2500  plane waves:    1568
 k-point    50 :  -0.3750 0.2500 0.2500  plane waves:    1549
 k-point    51 :  -0.2500 0.2500 0.2500  plane waves:    1560
 k-point    52 :   0.3750 0.3750 0.2500  plane waves:    1584
 k-point    53 :   0.5000 0.3750 0.2500  plane waves:    1578
 k-point    54 :  -0.3750 0.3750 0.2500  plane waves:    1561
 k-point    55 :  -0.2500 0.3750 0.2500  plane waves:    1558
 k-point    56 :   0.5000 0.5000 0.2500  plane waves:    1570
 k-point    57 :  -0.3750 0.5000 0.2500  plane waves:    1558
 k-point    58 :  -0.2500 0.5000 0.2500  plane waves:    1568
 k-point    59 :  -0.3750-0.3750 0.2500  plane waves:    1561
 k-point    60 :   0.3750 0.3750 0.3750  plane waves:    1591
 k-point    61 :   0.5000 0.3750 0.3750  plane waves:    1582
 k-point    62 :  -0.3750 0.3750 0.3750  plane waves:    1579
 k-point    63 :   0.5000 0.5000 0.3750  plane waves:    1583
 k-point    64 :  -0.3750 0.5000 0.3750  plane waves:    1576
 k-point    65 :   0.5000 0.5000 0.5000  plane waves:    1606

 maximum and minimum number of plane-waves per node :      1606     1549

 maximum number of plane-waves:      1606
 maximum index in each direction: 
   IXMAX=   14   IYMAX=   14   IZMAX=   14
   IXMIN=  -14   IYMIN=  -14   IZMIN=  -14


 serial   3D FFT for wavefunctions
 parallel 3D FFT for charge:
    minimum data exchange during FFTs selected (reduces bandwidth)


 total amount of memory used by VASP MPI-rank0    43087. kBytes
=======================================================================

   base      :      30000. kBytes
   nonl-proj :       6867. kBytes
   fftplans  :        785. kBytes
   grid      :       3679. kBytes
   one-center:          9. kBytes
   wavefun   :       1747. kBytes
 
     INWAV:  cpu time      0.2626: real time      0.2628
 Broyden mixing: mesh for mixing (old mesh)
   NGX = 29   NGY = 29   NGZ = 29
  (NGX  = 84   NGY  = 84   NGZ  = 84)
  gives a total of  24389 points

 charge density for first step will be calculated from the start-wavefunctions


--------------------------------------------------------------------------------------------------------


 Maximum index for augmentation-charges          557 (set IRDMAX)


--------------------------------------------------------------------------------------------------------


 initial charge from wavefunction
 First call to EWALD:  gamma=   0.369
 Maximum number of real-space cells 4x 4x 4
 Maximum number of reciprocal cells 5x 5x 5

    FEWALD:  cpu time      0.0014: real time      0.0014


--------------------------------------- Ionic step        1  -------------------------------------------




--------------------------------------- Iteration      1(   1)  ---------------------------------------


    POTLOK:  cpu time      0.0106: real time      0.0124
    SETDIJ:  cpu time      0.0015: real time      0.0016
     EDDAV:  cpu time      0.6589: real time      0.6591
       DOS:  cpu time      0.0020: real time      0.0023
    CHARGE:  cpu time      0.0560: real time      0.0560
    MIXING:  cpu time      0.0011: real time      0.0012
    --------------------------------------------
      LOOP:  cpu time      0.7302: real time      0.7326

 eigenvalue-minimisations  :  3312
 total energy-change (2. order) :-0.3940207E+01  (-0.2379039E-06)
 number of electron      21.0000031 magnetization 
 augmentation part       13.4031295 magnetization 

 Broyden mixing:
  rms(total) = 0.98335E-04    rms(broyden)= 0.98312E-04
  rms(prec ) = 0.12307E-03
  weight for this iteration     100.00

 Free energy of the ion-electron system (eV)
  ---------------------------------------------------
  alpha Z        PSCENC =        24.67506247
  Ewald energy   TEWEN  =      -916.77881813
  -Hartree energ DENC   =      -771.79194521
  -exchange      EXHF   =         0.00000000
  -V(xc)+E(xc)   XCENC  =        73.29174069
  PAW double counting   =      1498.02647535    -1764.28573198
  entropy T*S    EENTRO =        -0.00174699
  eigenvalues    EBANDS =      -445.14929818
  atomic energy  EATOM  =      2298.07405512
  Solvation  Ediel_sol  =         0.00000000
  ---------------------------------------------------
  free energy    TOTEN  =        -3.94020688 eV

  energy without entropy =       -3.93845988  energy(sigma->0) =       -3.93933338


--------------------------------------------------------------------------------------------------------




--------------------------------------- Iteration      1(   2)  ---------------------------------------


    POTLOK:  cpu time      0.0096: real time      0.0113
    SETDIJ:  cpu time      0.0013: real time      0.0013
     EDDAV:  cpu time      0.6134: real time      0.6133
       DOS:  cpu time      0.0006: real time      0.0006
    --------------------------------------------
      LOOP:  cpu time      0.6248: real time      0.6265

 eigenvalue-minimisations  :  3120
 total energy-change (2. order) : 0.7977883E-07  (-0.1887623E-07)
 number of electron      21.0000031 magnetization 
 augmentation part       13.4031295 magnetization 

 Free energy of the ion-electron system (eV)
  ---------------------------------------------------
  alpha Z        PSCENC =        24.67506247
  Ewald energy   TEWEN  =      -916.77881813
  -Hartree energ DENC   =      -771.78787845
  -exchange      EXHF   =         0.00000000
  -V(xc)+E(xc)   XCENC  =        73.29146523
  PAW double counting   =      1498.02154354    -1764.27748091
  entropy T*S    EENTRO =        -0.00174699
  eigenvalues    EBANDS =      -445.15640867
  atomic energy  EATOM  =      2298.07405512
  Solvation  Ediel_sol  =         0.00000000
  ---------------------------------------------------
  free energy    TOTEN  =        -3.94020680 eV

  energy without entropy =       -3.93845980  energy(sigma->0) =       -3.93933330


--------------------------------------------------------------------------------------------------------




 average (electrostatic) potential at core
  the test charge radii are     0.9254
  (the norm of the test charge is              1.0000)
       1 -50.3713       2 -50.3711       3 -50.3711
 
 
 
 E-fermi :   0.2880     XC(G=0):  -6.5018     alpha+bet : -4.7059

 val. band max:        0.2775945510   @ k =  -0.3750   0.5000   0.1250
 cond. band min:       0.3389868377   @ k =  -0.2500   0.3750   0.2500
 fundamental gap:      0.0613922867
 Fermi energy:         0.2880004900

 k-point     1 :       0.0000    0.0000    0.0000
  band No.  band energies     occupation 
      1     -24.5834      2.00000
      2     -24.5833      2.00000
      3     -24.5597      2.00000
      4     -24.5597      2.00000
      5     -24.5595      2.00000
      6     -24.5595      2.00000
      7     -24.5571      2.00000
      8     -24.5559      2.00000
      9     -24.5559      2.00000
     10      -2.9507      2.00000
     11      -1.1299      2.00000
     12      -1.1298      2.00000
     13       4.0859      0.00000
     14       4.0870      0.00000
     15      10.5023      0.00000
     16      10.5023      0.00000
     17      10.6362      0.00000
     18      10.6362      0.00000
     19      10.8871      0.00000
     20      10.8871      0.00000
     21      10.9847      0.00000
     22      11.7433      0.00000
     23      11.8257      0.00000
     24      11.8257      0.00000
     25      12.2167      0.00000
     26      12.3576      0.00000
     27      12.8595      0.00000
     28      13.1145      0.00000
     29      13.1145      0.00000
     30      13.7374      0.00000
     31      13.9187      0.00000
     32      13.9187      0.00000
     33      14.6278      0.00000
     34      14.6278      0.00000
     35      14.7980      0.00000
     36      15.4552      0.00000
     37      15.5222      0.00000
     38      15.5222      0.00000
     39      16.9939      0.00000
     40      18.4865      0.00000
     41      18.4865      0.00000
     42      20.2109      0.00000
     43      20.4401      0.00000
     44      20.4401      0.00000
     45      21.0941      0.00000
     46      21.9866      0.00000
     47      21.9866      0.00000
     48      22.6935      0.00000

 k-point     2 :       0.1250    0.0000    0.0000
  band No.  band energies     occupation 
      1     -24.5839      2.00000
      2     -24.5817      2.00000
      3     -24.5635      2.00000
      4     -24.5622      2.00000
      5     -24.5609      2.00000
      6     -24.5605      2.00000
      7     -24.5600      2.00000
      8     -24.5577      2.00000
      9     -24.5566      2.00000
     10      -2.7163      2.00000
     11      -1.0523      2.00000
     12      -0.7555      2.00000
     13       4.0086      0.00000
     14       4.5645      0.00000
     15       7.8368      0.00000
     16       8.4261      0.00000
     17       9.3765      0.00000
     18       9.5736      0.00000
     19       9.7468      0.00000
     20      10.6189      0.00000
     21      10.7578      0.00000
     22      11.7882      0.00000
     23      11.9095      0.00000
     24      12.5914      0.00000
     25      12.7277      0.00000
     26      12.8793      0.00000
     27      13.1710      0.00000
     28      13.3817      0.00000
     29      13.6979      0.00000
     30      13.7439      0.00000
     31      14.0782      0.00000
     32      14.6563      0.00000
     33      15.1636      0.00000
     34      15.1977      0.00000
     35      15.5155      0.00000
     36      16.4271      0.00000
     37      16.6237      0.00000
     38      16.9964      0.00000
     39      17.9455      0.00000
     40      18.0605      0.00000
     41      18.6548      0.00000
     42      20.0310      0.00000
     43      20.3149      0.00000
     44      20.5173      0.00000
     45      21.1833      0.00000
     46      21.4216      0.00000
     47      22.5174      0.00000
     48      22.6783      0.00000

 k-point     3 :       0.2500    0.0000    0.0000
  band No.  band energies     occupation 
      1     -24.5834      2.00000
      2     -24.5817      2.00000
      3     -24.5721      2.00000
      4     -24.5694      2.00000
      5     -24.5673      2.00000
      6     -24.5635      2.00000
      7     -24.5630      2.00000
      8     -24.5596      2.00000
      9     -24.5583      2.00000
     10      -2.0199      2.00000
     11      -0.5247      2.00000
     12       0.0606      2.00000
     13       4.2380      0.00000
     14       5.1419      0.00000
     15       5.4059      0.00000
     16       6.0526      0.00000
     17       7.3698      0.00000
     18       8.4869      0.00000
     19       8.7412      0.00000
     20       8.9324      0.00000
     21       9.4879      0.00000
     22      10.6705      0.00000
     23      11.1726      0.00000
     24      11.9371      0.00000
     25      12.2687      0.00000
     26      12.3885      0.00000
     27      13.4675      0.00000
     28      13.9232      0.00000
     29      14.4413      0.00000
     30      14.7704      0.00000
     31      15.4781      0.00000
     32      16.1031      0.00000
     33      16.7148      0.00000
     34      17.0089      0.00000
     35      17.6232      0.00000
     36      17.9599      0.00000
     37      18.2545      0.00000
     38      18.3771      0.00000
     39      18.4640      0.00000
     40      18.7269      0.00000
     41      20.0870      0.00000
     42      20.2872      0.00000
     43      20.6649      0.00000
     44      21.7061      0.00000
     45      22.2793      0.00000
     46      23.0760      0.00000
     47      23.2000      0.00000
     48      24.0585      0.00000

 k-point     4 :       0.3750   -0.0000    0.0000
  band No.  band energies     occupation 
      1     -24.5872      2.00000
      2     -24.5852      2.00000
      3     -24.5812      2.00000
      4     -24.5732      2.00000
      5     -24.5687      2.00000
      6     -24.5660      2.00000
      7     -24.5656      2.00000
      8     -24.5622      2.00000
      9     -24.5601      2.00000
     10      -0.8794      2.00000
     11       0.4377      0.00002
     12       1.2821      0.00000
     13       2.6835      0.00000
     14       3.6541      0.00000
     15       5.0080      0.00000
     16       5.2523      0.00000
     17       6.6798      0.00000
     18       7.6407      0.00000
     19       7.9759      0.00000
     20       8.1029      0.00000
     21       8.7081      0.00000
     22       9.4032      0.00000
     23      10.6428      0.00000
     24      11.3080      0.00000
     25      11.7028      0.00000
     26      11.7106      0.00000
     27      12.1086      0.00000
     28      13.8206      0.00000
     29      15.7580      0.00000
     30      16.0455      0.00000
     31      16.9811      0.00000
     32      17.4071      0.00000
     33      17.6748      0.00000
     34      18.0570      0.00000
     35      18.3141      0.00000
     36      18.5957      0.00000
     37      19.1846      0.00000
     38      19.3960      0.00000
     39      20.2202      0.00000
     40      20.9092      0.00000
     41      21.2255      0.00000
     42      22.5094      0.00000
     43      22.9038      0.00000
     44      23.3071      0.00000
     45      24.2893      0.00000
     46      24.3121      0.00000
     47      24.9114      0.00000
     48      25.3960      0.00000

 k-point     5 :       0.5000    0.0000    0.0000
  band No.  band energies     occupation 
      1     -24.5903      2.00000
      2     -24.5876      2.00000
      3     -24.5854      2.00000
      4     -24.5719      2.00000
      5     -24.5690      2.00000
      6     -24.5669      2.00000
      7     -24.5667      2.00000
      8     -24.5637      2.00000
      9     -24.5608      2.00000
     10       0.6164      0.00000
     11       0.7303      0.00000
     12       1.6205      0.00000
     13       2.0750      0.00000
     14       2.9353      0.00000
     15       3.0711      0.00000
     16       6.2526      0.00000
     17       6.3777      0.00000
     18       7.4921      0.00000
     19       7.8476      0.00000
     20       7.8478      0.00000
     21       8.4030      0.00000
     22       9.1879      0.00000
     23      10.0291      0.00000
     24      10.4594      0.00000
[...]
     25      11.6588      0.00000
     26      13.6521      0.00000
     27      13.7128      0.00000
     28      14.6501      0.00000
     29      14.8886      0.00000
     30      15.6802      0.00000
     31      15.7224      0.00000
     32      16.8768      0.00000
     33      16.9230      0.00000
     34      18.9065      0.00000
     35      19.0551      0.00000
     36      19.5291      0.00000
     37      19.7229      0.00000
     38      19.8825      0.00000
     39      20.5630      0.00000
     40      20.5823      0.00000
     41      21.3145      0.00000
     42      22.4564      0.00000
     43      22.5748      0.00000
     44      23.8396      0.00000
     45      23.8869      0.00000
     46      23.9738      0.00000
     47      24.6565      0.00000
     48      24.6600      0.00000

 k-point    59 :      -0.3750   -0.3750    0.2500
  band No.  band energies     occupation 
      1     -24.5859      2.00000
      2     -24.5842      2.00000
      3     -24.5813      2.00000
      4     -24.5783      2.00000
      5     -24.5675      2.00000
      6     -24.5648      2.00000
      7     -24.5632      2.00000
      8     -24.5631      2.00000
      9     -24.5610      2.00000
     10      -0.4639      2.00000
     11      -0.4636      2.00000
     12       2.4695      0.00000
     13       2.7413      0.00000
     14       3.4780      0.00000
     15       3.8163      0.00000
     16       4.8810      0.00000
     17       7.5145      0.00000
     18       7.7008      0.00000
     19       8.6428      0.00000
     20       8.7082      0.00000
     21       9.0675      0.00000
     22       9.6773      0.00000
     23       9.7086      0.00000
     24      10.2643      0.00000
     25      10.9701      0.00000
     26      11.4205      0.00000
     27      12.9964      0.00000
     28      14.0733      0.00000
     29      15.0673      0.00000
     30      16.2688      0.00000
     31      16.3872      0.00000
     32      17.2089      0.00000
     33      18.2346      0.00000
     34      18.3042      0.00000
     35      18.9594      0.00000
     36      19.2091      0.00000
     37      19.3830      0.00000
     38      20.0433      0.00000
     39      20.3007      0.00000
     40      21.1268      0.00000
     41      21.2735      0.00000
     42      21.6736      0.00000
     43      22.8699      0.00000
     44      23.3788      0.00000
     45      23.9779      0.00000
     46      24.0396      0.00000
     47      24.4253      0.00000
     48      24.8328      0.00000

 k-point    60 :       0.3750    0.3750    0.3750
  band No.  band energies     occupation 
      1     -24.5916      2.00000
      2     -24.5701      2.00000
      3     -24.5622      2.00000
      4     -24.5608      2.00000
      5     -24.5608      2.00000
      6     -24.5577      2.00000
      7     -24.5577      2.00000
      8     -24.5566      2.00000
      9     -24.5566      2.00000
     10      -2.6907      2.00000
     11      -2.2317      2.00000
     12       0.4284      0.00007
     13       1.7941      0.00000
     14       6.8001      0.00000
     15       8.7923      0.00000
     16      10.3532      0.00000
     17      10.3532      0.00000
     18      10.6799      0.00000
     19      10.6799      0.00000
     20      11.0409      0.00000
     21      11.0409      0.00000
     22      11.4888      0.00000
     23      11.9287      0.00000
     24      12.2593      0.00000
     25      12.3635      0.00000
     26      12.3635      0.00000
     27      12.4006      0.00000
     28      12.4006      0.00000
     29      13.3190      0.00000
     30      13.3190      0.00000
     31      14.0323      0.00000
     32      14.2324      0.00000
     33      14.9136      0.00000
     34      15.3218      0.00000
     35      15.3218      0.00000
     36      16.3007      0.00000
     37      16.7888      0.00000
     38      16.7888      0.00000
     39      17.0342      0.00000
     40      17.0342      0.00000
     41      18.2130      0.00000
     42      18.6886      0.00000
     43      19.6037      0.00000
     44      19.6037      0.00000
     45      19.8935      0.00000
     46      21.7305      0.00000
     47      22.5164      0.00000
     48      22.5164      0.00000

 k-point    61 :       0.5000    0.3750    0.3750
  band No.  band energies     occupation 
      1     -24.5902      2.00000
      2     -24.5700      2.00000
      3     -24.5657      2.00000
      4     -24.5644      2.00000
      5     -24.5619      2.00000
      6     -24.5597      2.00000
      7     -24.5591      2.00000
      8     -24.5588      2.00000
      9     -24.5572      2.00000
     10      -2.4002      2.00000
     11      -2.0955      2.00000
     12       0.8306      0.00000
     13       1.7944      0.00000
     14       7.2495      0.00000
     15       7.7080      0.00000
     16       8.5488      0.00000
     17       9.0483      0.00000
     18       9.2142      0.00000
     19       9.2571      0.00000
     20      10.0035      0.00000
     21      10.4976      0.00000
     22      11.1271      0.00000
     23      11.4409      0.00000
     24      12.4376      0.00000
     25      12.4552      0.00000
     26      13.4345      0.00000
     27      13.6082      0.00000
     28      14.0224      0.00000
     29      14.2640      0.00000
     30      14.3923      0.00000
     31      14.4929      0.00000
     32      14.5713      0.00000
     33      14.9296      0.00000
     34      15.3897      0.00000
     35      15.6990      0.00000
     36      15.7717      0.00000
     37      17.0368      0.00000
     38      17.1040      0.00000
     39      18.0803      0.00000
     40      18.1864      0.00000
     41      18.7475      0.00000
     42      19.2307      0.00000
     43      19.8910      0.00000
     44      20.1021      0.00000
     45      21.5822      0.00000
     46      21.6443      0.00000
     47      21.8327      0.00000
     48      22.4126      0.00000

 k-point    62 :      -0.3750    0.3750    0.3750
  band No.  band energies     occupation 
      1     -24.5858      2.00000
      2     -24.5757      2.00000
      3     -24.5749      2.00000
      4     -24.5727      2.00000
      5     -24.5647      2.00000
      6     -24.5628      2.00000
      7     -24.5616      2.00000
      8     -24.5610      2.00000
      9     -24.5591      2.00000
     10      -1.6514      2.00000
     11      -1.5010      2.00000
     12       1.6261      0.00000
     13       2.2459      0.00000
     14       5.0441      0.00000
     15       6.1630      0.00000
     16       6.9195      0.00000
     17       8.0283      0.00000
     18       8.2899      0.00000
     19       8.7302      0.00000
     20       9.1737      0.00000
     21       9.2562      0.00000
     22      10.1441      0.00000
     23      10.4390      0.00000
     24      11.2589      0.00000
     25      11.7012      0.00000
     26      12.8973      0.00000
     27      13.2010      0.00000
     28      14.3488      0.00000
     29      14.7279      0.00000
     30      15.7235      0.00000
     31      15.8816      0.00000
     32      15.9704      0.00000
     33      16.5022      0.00000
     34      16.8053      0.00000
     35      17.4948      0.00000
     36      17.7690      0.00000
     37      18.2602      0.00000
     38      18.6331      0.00000
     39      18.9708      0.00000
     40      19.4364      0.00000
     41      19.5974      0.00000
     42      20.6382      0.00000
     43      21.4082      0.00000
     44      21.4399      0.00000
     45      21.7928      0.00000
     46      22.1902      0.00000
     47      22.5502      0.00000
     48      23.6767      0.00000

 k-point    63 :       0.5000    0.5000    0.3750
  band No.  band energies     occupation 
      1     -24.5904      2.00000
      2     -24.5689      2.00000
      3     -24.5664      2.00000
      4     -24.5644      2.00000
      5     -24.5621      2.00000
      6     -24.5600      2.00000
      7     -24.5590      2.00000
      8     -24.5581      2.00000
      9     -24.5577      2.00000
     10      -2.3334      2.00000
     11      -2.1811      2.00000
     12       1.0019      0.00000
     13       1.6070      0.00000
     14       7.4632      0.00000
     15       7.8409      0.00000
     16       8.3043      0.00000
     17       8.7180      0.00000
     18       9.1876      0.00000
     19       9.3983      0.00000
     20      10.3018      0.00000
     21      10.6277      0.00000
     22      11.0316      0.00000
     23      11.3677      0.00000
     24      12.0590      0.00000
     25      12.5159      0.00000
     26      13.4038      0.00000
     27      13.4209      0.00000
     28      13.4974      0.00000
     29      14.2521      0.00000
     30      14.5261      0.00000
     31      14.6657      0.00000
     32      14.9862      0.00000
     33      15.5789      0.00000
     34      15.8955      0.00000
     35      15.9544      0.00000
     36      16.0432      0.00000
     37      16.4323      0.00000
     38      16.9016      0.00000
     39      17.5545      0.00000
     40      17.5936      0.00000
     41      18.3791      0.00000
     42      19.2044      0.00000
     43      20.5341      0.00000
     44      20.6008      0.00000
     45      20.9081      0.00000
     46      21.3237      0.00000
     47      22.4796      0.00000
     48      22.5995      0.00000

 k-point    64 :      -0.3750    0.5000    0.3750
  band No.  band energies     occupation 
      1     -24.5872      2.00000
      2     -24.5724      2.00000
      3     -24.5723      2.00000
      4     -24.5701      2.00000
      5     -24.5645      2.00000
      6     -24.5621      2.00000
      7     -24.5611      2.00000
      8     -24.5599      2.00000
      9     -24.5594      2.00000
     10      -1.8054      2.00000
     11      -1.8053      2.00000
     12       1.5017      0.00000
     13       1.9509      0.00000
     14       6.2777      0.00000
     15       6.6840      0.00000
     16       7.1790      0.00000
     17       7.6836      0.00000
     18       8.2576      0.00000
     19       8.4927      0.00000
     20       9.0983      0.00000
     21       9.2529      0.00000
     22      11.3262      0.00000
     23      11.4307      0.00000
     24      12.3540      0.00000
     25      12.4653      0.00000
     26      12.9386      0.00000
     27      13.1233      0.00000
     28      13.7226      0.00000
     29      13.8084      0.00000
     30      14.3148      0.00000
     31      15.0474      0.00000
     32      16.4262      0.00000
     33      16.5691      0.00000
     34      16.9751      0.00000
     35      17.2921      0.00000
     36      17.4935      0.00000
     37      17.5217      0.00000
     38      18.3113      0.00000
     39      18.5887      0.00000
     40      18.8162      0.00000
     41      19.3520      0.00000
     42      19.8920      0.00000
     43      20.3529      0.00000
     44      21.2106      0.00000
     45      21.2112      0.00000
     46      22.5310      0.00000
     47      22.6702      0.00000
     48      24.0935      0.00000

 k-point    65 :       0.5000    0.5000    0.5000
  band No.  band energies     occupation 
      1     -24.5922      2.00000
      2     -24.5659      2.00000
      3     -24.5659      2.00000
      4     -24.5609      2.00000
      5     -24.5609      2.00000
      6     -24.5572      2.00000
      7     -24.5572      2.00000
      8     -24.5570      2.00000
      9     -24.5570      2.00000
     10      -2.4894      2.00000
     11      -2.4893      2.00000
     12       0.8852      0.00000
     13       1.2883      0.00000
     14       7.7786      0.00000
     15       7.7883      0.00000
     16      10.3402      0.00000
     17      10.3402      0.00000
     18      10.6643      0.00000
     19      10.6643      0.00000
     20      11.0942      0.00000
     21      11.0942      0.00000
     22      11.4620      0.00000
     23      11.9309      0.00000
     24      12.2730      0.00000
     25      12.2730      0.00000
     26      12.2903      0.00000
     27      12.6027      0.00000
     28      12.6027      0.00000
     29      13.0564      0.00000
     30      13.0564      0.00000
     31      14.0001      0.00000
     32      14.3874      0.00000
     33      14.7159      0.00000
     34      15.7422      0.00000
     35      15.7422      0.00000
     36      16.3246      0.00000
     37      16.3246      0.00000
     38      17.3330      0.00000
     39      17.3330      0.00000
     40      17.4718      0.00000
     41      17.5091      0.00000
     42      18.8772      0.00000
     43      19.2264      0.00000
     44      19.2445      0.00000
     45      19.2445      0.00000
     46      21.7712      0.00000
     47      23.0704      0.00000
     48      23.0704      0.00000


--------------------------------------------------------------------------------------------------------


 soft charge-density along one line, spin component           1
         0         1         2         3         4         5         6         7         8         9
 total charge-density along one line
 
 pseudopotential strength for first ion, spin component:           1
-27.816  -0.000  -0.000   3.762   0.000   0.000   0.000   0.000
 -0.000 -27.818  -0.000   0.000   3.763   0.000   0.000   0.000
 -0.000  -0.000 -27.816   0.000   0.000   3.762   0.000   0.000
  3.762   0.000   0.000   6.136  -0.000  -0.000  -0.000   0.000
  0.000   3.763   0.000  -0.000   6.136  -0.000  -0.000   0.000
  0.000   0.000   3.762  -0.000  -0.000   6.136  -0.000   0.000
  0.000   0.000   0.000  -0.000  -0.000  -0.000   1.424   7.058
  0.000   0.000   0.000   0.000   0.000   0.000   7.058  34.592
 total augmentation occupancy for first ion, spin component:           1
  2.000  -0.000  -0.000  -0.000   0.000   0.000   0.000   0.000
 -0.000   2.000  -0.000   0.000  -0.000   0.000   0.000   0.000
 -0.000  -0.000   2.000   0.000   0.000  -0.000   0.000   0.000
 -0.000   0.000   0.000   0.011  -0.000  -0.000   0.000   0.000
  0.000  -0.000   0.000  -0.000   0.011  -0.000   0.000   0.000
  0.000   0.000  -0.000  -0.000  -0.000   0.011   0.000   0.000
  0.000   0.000   0.000   0.000   0.000   0.000   0.879  -0.000
  0.000   0.000   0.000   0.000   0.000   0.000  -0.000   0.000


------------------------ aborting loop because EDIFF is reached ----------------------------------------


    CHARGE:  cpu time      0.0556: real time      0.0556
    FORLOC:  cpu time      0.0004: real time      0.0004
    FORNL :  cpu time      0.0207: real time      0.0208
    STRESS:  cpu time      0.2105: real time      0.2105
    FORCOR:  cpu time      0.0082: real time      0.0084
    FORHAR:  cpu time      0.0017: real time      0.0018
    MIXING:  cpu time      0.0008: real time      0.0009
    OFIELD:  cpu time      0.0000: real time      0.0000

  FORCE on cell =-STRESS in cart. coord.  units (eV):
  Direction    XX          YY          ZZ          XY          YZ          ZX
  --------------------------------------------------------------------------------------
  Alpha Z    24.67506    24.67506    24.67506
  Ewald    -305.72855  -305.74017  -305.31035     0.01063     0.05245     0.08842
  Hartree   257.16005   257.15137   257.47231     0.00794     0.03916     0.06602
  E(xc)    -112.70715  -112.70728  -112.70250     0.00012     0.00058     0.00098
  Local     -67.72117   -67.70078   -68.45503    -0.01866    -0.09204    -0.15516
  n-local   -67.03461   -67.00337   -67.01515     0.00449    -0.00304     0.00567
  augment   125.84373   125.84252   125.88750     0.00111     0.00549     0.00925
  Kinetic   147.53532   143.45480   145.37492    -0.61530     0.34701    -0.53467
  Fock        0.00000     0.00000     0.00000     0.00000     0.00000     0.00000
  -------------------------------------------------------------------------------------
  Total       0.03584     0.04115    -0.15538    -0.00486    -0.02398    -0.04043
  in kB       0.51628     0.59283    -2.23857    -0.07005    -0.34551    -0.58247
  external pressure =       -0.38 kB  Pullay stress =        0.00 kB


 VOLUME and BASIS-vectors are now :
 -----------------------------------------------------------------------------
  energy-cutoff  :      337.43
  volume of cell :      111.21
      direct lattice vectors                 reciprocal lattice vectors
     3.668155505  0.000000000  8.674434154     0.272616578 -0.148939962  0.000000000
     1.758687886  3.219065351  8.674434154     0.000000000  0.310649176  0.000000000
     0.000000000  0.000000000  9.418130000    -0.251089606 -0.148939962  0.106178190

  length of vectors
     9.418130000  9.418130000  9.418130000     0.310649176  0.310649176  0.310649176


 FORCES acting on ions
    electron-ion (+dipol)            ewald-force                    non-local-force                 convergence-correction
 -----------------------------------------------------------------------------------------------
   -.314E-13 -.263E-13 -.115E-12   -.355E-14 -.355E-14 -.426E-13   0.646E-24 0.242E-23 -.183E-24   -.199E-14 -.892E-14 -.273E-13
   -.829E-02 -.492E-02 -.409E-01   0.734E-02 0.435E-02 0.362E-01   0.101E-02 0.602E-03 0.501E-02   -.208E-04 -.123E-04 -.103E-03
   0.829E-02 0.492E-02 0.409E-01   -.734E-02 -.435E-02 -.362E-01   -.101E-02 -.602E-03 -.501E-02   0.208E-04 0.123E-04 0.103E-03
 -----------------------------------------------------------------------------------------------
   0.787E-12 -.392E-13 0.207E-10   0.942E-14 0.235E-15 0.268E-14   0.000E+00 0.000E+00 -.867E-18   0.171E-13 -.197E-13 -.155E-13
 
 
 POSITION                                       TOTAL-FORCE (eV/Angst)
 -----------------------------------------------------------------------------------
      0.00000      0.00000      0.00000        -0.000000      0.000000      0.000000
      1.20595      0.71534      5.94816         0.000039      0.000023      0.000193
      4.22089      2.50372     20.81884        -0.000039     -0.000023     -0.000193
 -----------------------------------------------------------------------------------
    total drift:                                0.000000     -0.000000      0.000000


--------------------------------------------------------------------------------------------------------



  FREE ENERGIE OF THE ION-ELECTRON SYSTEM (eV)
  ---------------------------------------------------
  free  energy   TOTEN  =        -3.94020680 eV

  energy  without entropy=       -3.93845980  energy(sigma->0) =       -3.93933330
 


--------------------------------------------------------------------------------------------------------


    POTLOK:  cpu time      0.0107: real time      0.0107


--------------------------------------------------------------------------------------------------------


 writing wavefunctions
     LOOP+:  cpu time     31.4511: real time     31.4714
    4ORBIT:  cpu time      0.0000: real time      0.0000

 total amount of memory used by VASP MPI-rank0    43087. kBytes
=======================================================================

   base      :      30000. kBytes
   nonl-proj :       6867. kBytes
   fftplans  :        785. kBytes
   grid      :       3679. kBytes
   one-center:          9. kBytes
   wavefun   :       1747. kBytes
 
  
  
 General timing and accounting informations for this job:
 ========================================================
  
                  Total CPU time used (sec):       32.742
                            User time (sec):       32.158
                          System time (sec):        0.584
                         Elapsed time (sec):       33.100
  
                   Maximum memory used (kb):      240532.
                   Average memory used (kb):          N/A
  
                          Minor page faults:        24457
                          Major page faults:            0
                 Voluntary context switches:         4762
