Sn                                      
   1.00000000000000     
     4.075923    0.000000    2.353235
     1.358641    3.842817    2.353235
     0.000000    0.000000    4.706470
   Sn
     2
Direct
  0.000000  0.000000  0.000000
  0.250000  0.250000  0.250000
 
   40   40   40
  913.34      872.13      759.50      603.11      435.50      283.97      165.97      88.312      47.326      30.536    
  22.351      17.004      13.583      11.290      9.6558      8.4535      7.5852      6.9935      6.6138      6.3935    
  6.3188      6.3934      6.6138      6.9935      7.5852      8.4536      9.6558      11.290      13.583      17.004    
  22.351      30.536      47.326      88.312      165.97      283.97      435.50      603.11      759.50      872.13    
  872.13      794.88      660.47      499.77      342.82      211.62      117.75      62.364      36.972      26.583    
  20.150      16.039      13.358      11.492      10.128      9.1300      8.4343      7.9784      7.6957      7.5546    
  7.5562      7.6978      7.9775      8.4322      9.1307      10.131      11.492      13.355      16.037      20.152    
  26.585      36.969      62.361      117.75      211.62      342.82      499.76      660.48      794.89      872.13    
  759.50      660.47      523.06      376.20      244.31      142.94      77.619      44.176      30.568      23.259    
  18.502      15.450      13.385      11.899      10.805      10.031      9.5212      9.2050      9.0234      8.9615    
  9.0234      9.2051      9.5212      10.031      10.805      11.899      13.385      15.450      18.502      23.259    
  30.569      44.176      77.619      142.93      244.31      376.20      523.06      660.47      759.50      795.73    
  603.11      499.77      376.20      256.19      157.46      89.033      50.693      33.960      26.013      20.780    
  17.434      15.218      13.660      12.530      11.730      11.209      10.901      10.730      10.648      10.647    
  10.729      10.902      11.210      11.730      12.529      13.660      15.219      17.435      20.779      26.012    
  33.961      50.694      89.033      157.46      256.19      376.20      499.76      603.10      662.39      662.40    
  435.50      342.82      244.31      157.46      93.263      54.599      36.386      28.078      22.636      19.139    
  16.861      15.298      14.195      13.442      12.982      12.752      12.664      12.637      12.631      12.637    
  12.664      12.752      12.982      13.442      14.195      15.298      16.862      19.140      22.636      28.078    
  36.386      54.600      93.263      157.46      244.31      342.82      435.50      502.26      526.64      502.26    
  283.97      211.62      142.94      89.033      54.599      37.282      29.187      23.855      20.395      18.170    
  16.685      15.682      15.051      14.738      14.682      14.782      14.921      15.010      15.010      14.921    
  14.783      14.683      14.738      15.051      15.682      16.685      18.170      20.395      23.855      29.187    
  37.281      54.598      89.033      142.94      211.62      283.97      345.00      380.07      380.07      344.99    
  165.97      117.75      77.619      50.693      36.386      29.187      24.280      21.062      19.015      17.694    
  16.862      16.425      16.346      16.566      16.974      17.418      17.748      17.869      17.748      17.418    
  16.974      16.566      16.345      16.425      16.862      17.694      19.015      21.062      24.280      29.187    
  36.386      50.692      77.619      117.75      165.97      212.76      246.92      259.46      246.92      212.75    
  88.312      62.364      44.176      33.960      28.078      23.855      21.062      19.307      18.227      17.623    
  17.434      17.648      18.227      19.056      19.944      20.681      21.094      21.095      20.681      19.944    
  19.055      18.227      17.649      17.434      17.623      18.227      19.308      21.063      23.855      28.079    
  33.961      44.176      62.361      88.309      117.68      143.49      158.61      158.61      143.48      117.68    
  47.326      36.972      30.568      26.013      22.636      20.395      19.015      18.227      17.886      17.970    
  18.502      19.477      20.790      22.228      23.518      24.405      24.720      24.405      23.518      22.229    
  20.790      19.477      18.502      17.970      17.887      18.227      19.015      20.395      22.636      26.013    
  30.569      36.972      47.326      61.404      76.293      87.733      92.030      87.733      76.293      61.404    
  30.536      26.583      23.259      20.780      19.139      18.170      17.694      17.623      17.970      18.800    
  20.150      21.946      23.969      25.898      27.410      28.269      28.269      27.410      25.899      23.969    
  21.946      20.149      18.799      17.969      17.623      17.694      18.170      19.139      20.779      23.259    
  26.585      30.539      35.540      41.686      47.574      51.216      51.217      47.576      41.686      35.538    
  22.351      20.150      18.502      17.434      16.861      16.685      16.862      17.434      18.502      20.150    
  22.351      24.911      27.487      29.817      31.590      32.268      31.590      29.817      27.487      24.911    
  22.351      20.150      18.502      17.434      16.862      16.685      16.862      17.434      18.502      20.150    
  22.351      24.911      27.487      29.817      31.590      32.268      31.590      29.816      27.487      24.911    
  17.004      16.039      15.450      15.218      15.298      15.682      16.425      17.648      19.477      21.946    
  24.911      28.049      31.219      34.128      35.927      35.927      34.127      31.220      28.050      24.911    
  21.946      19.477      17.649      16.425      15.681      15.299      15.220      15.452      16.037      17.001    
  18.296      19.772      21.201      22.330      22.953      22.953      22.330      21.200      19.772      18.298    
  13.583      13.358      13.385      13.660      14.195      15.051      16.346      18.227      20.790      23.969    
  27.487      31.219      35.091      38.173      39.359      38.173      35.091      31.219      27.487      23.969    
  20.790      18.227      16.345      15.051      14.195      13.660      13.385      13.358      13.583      14.050    
  14.701      15.430      16.096      16.562      16.728      16.562      16.096      15.430      14.702      14.050    
  11.290      11.492      11.899      12.530      13.442      14.738      16.566      19.056      22.228      25.898    
  29.817      34.128      38.173      40.675      40.675      38.173      34.127      29.816      25.899      22.229    
  19.055      16.565      14.738      13.442      12.529      11.897      11.492      11.293      11.281      11.427    
  11.680      11.968      12.214      12.355      12.355      12.214      11.969      11.681      11.426      11.277    
  9.6558      10.128      10.805      11.730      12.982      14.682      16.974      19.944      23.518      27.410    
  31.590      35.927      39.359      40.675      39.359      35.927      31.590      27.410      23.518      19.944    
  16.974      14.683      12.982      11.730      10.805      10.129      9.6558      9.3593      9.2115      9.1766    
  9.2125      9.2772      9.3338      9.3559      9.3339      9.2773      9.2125      9.1764      9.2114      9.3593    
  8.4535      9.1300      10.031      11.209      12.752      14.782      17.418      20.681      24.405      28.269    
  32.268      35.927      38.173      38.173      35.927      32.268      28.269      24.405      20.681      17.418    
  14.783      12.753      11.210      10.032      9.1307      8.4521      7.9606      7.6253      7.4135      7.2908    
  7.2263      7.1968      7.1865      7.1870      7.1973      7.2257      7.2895      7.4134      7.6274      7.9634    
  7.5852      8.4343      9.5212      10.901      12.664      14.921      17.748      21.094      24.720      28.269    
  31.590      34.127      35.091      34.127      31.590      28.269      24.721      21.095      17.748      14.921    
  12.664      10.901      9.5212      8.4344      7.5852      6.9379      6.4623      6.1260      5.8954      5.7410    
  5.6421      5.5865      5.5685      5.5864      5.6420      5.7411      5.8955      6.1260      6.4623      6.9380    
  6.9935      7.9784      9.2050      10.730      12.637      15.010      17.869      21.095      24.405      27.410    
  29.817      31.220      31.219      29.816      27.410      24.405      21.095      17.869      15.010      12.637    
  10.729      9.2031      7.9774      6.9945      6.2195      5.6263      5.1874      4.8714      4.6478      4.4933    
  4.3947      4.3464      4.3464      4.3947      4.4934      4.6482      4.8719      5.1869      5.6244      6.2172    
  6.6138      7.6957      9.0234      10.648      12.631      15.010      17.748      20.681      23.518      25.899    
  27.487      28.050      27.487      25.899      23.518      20.681      17.748      15.010      12.631      10.648    
  9.0234      7.6956      6.6136      5.7422      5.0555      4.5293      4.1374      3.8523      3.6495      3.5120    
  3.4312      3.4044      3.4313      3.5120      3.6495      3.8523      4.1374      4.5293      5.0555      5.7423    
  6.3935      7.5546      8.9615      10.647      12.637      14.921      17.418      19.944      22.229      23.969    
  24.911      24.911      23.969      22.229      19.944      17.418      14.921      12.637      10.648      8.9635    
  7.5562      6.3930      5.4447      4.6858      4.0914      3.6360      3.2947      3.0455      2.8709      2.7590    
  2.7038      2.7036      2.7585      2.8708      3.0457      3.2946      3.6357      4.0921      4.6879      5.4469    
  6.3188      7.5562      9.0234      10.729      12.664      14.783      16.974      19.055      20.790      21.946    
  22.351      21.946      20.790      19.055      16.974      14.783      12.664      10.729      9.0234      7.5562    
  6.3188      5.2967      4.4709      3.8176      3.3100      2.9217      2.6306      2.4197      2.2770      2.1943    
  2.1673      2.1944      2.2770      2.4196      2.6305      2.9218      3.3101      3.8177      4.4709      5.2967    
  6.3934      7.6978      9.2051      10.902      12.752      14.683      16.566      18.227      19.477      20.149    
  20.150      19.477      18.227      16.565      14.683      12.753      10.901      9.2031      7.6956      6.3930    
  5.2967      4.3984      3.6812      3.1203      2.6879      2.3590      2.1148      1.9424      1.8327      1.7795    
  1.7797      1.8331      1.9426      2.1146      2.3587      2.6879      3.1203      3.6802      4.3964      5.2950    
  6.6138      7.9775      9.5212      11.210      12.982      14.738      16.345      17.649      18.502      18.799    
  18.502      17.649      16.345      14.738      12.982      11.210      9.5212      7.9774      6.6136      5.4447    
  4.4709      3.6812      3.0563      2.5715      2.2011      1.9231      1.7214      1.5854      1.5073      1.4818    
  1.5072      1.5854      1.7215      1.9231      2.2011      2.5714      3.0562      3.6811      4.4708      5.4448    
  6.9935      8.4322      10.031      11.730      13.442      15.051      16.425      17.434      17.970      17.969    
  17.434      16.425      15.051      13.442      11.730      10.032      8.4344      6.9945      5.7422      4.6858    
  3.8176      3.1203      2.5715      2.1482      1.8285      1.5939      1.4300      1.3267      1.2772      1.2772    
  1.3266      1.4296      1.5937      1.8289      2.1486      2.5714      3.1202      3.8188      4.6879      5.7434    
  7.5852      9.1307      10.805      12.529      14.195      15.682      16.862      17.623      17.887      17.623    
  16.862      15.681      14.195      12.529      10.805      9.1307      7.5852      6.2195      5.0555      4.0914    
  3.3100      2.6879      2.2011      1.8285      1.5516      1.3543      1.2235      1.1491      1.1250      1.1491    
  1.2234      1.3543      1.5516      1.8285      2.2011      2.6879      3.3101      4.0914      5.0555      6.2195    
  8.4536      10.131      11.899      13.660      15.298      16.685      17.694      18.227      18.227      17.694    
  16.685      15.299      13.660      11.897      10.129      8.4521      6.9379      5.6263      4.5293      3.6360    
  2.9217      2.3590      1.9231      1.5939      1.3543      1.1896      1.0875      1.0388      1.0387      1.0875    
  1.1899      1.3546      1.5937      1.9226      2.3587      2.9219      3.6357      4.5280      5.6244      6.9372    
  9.6558      11.492      13.385      15.219      16.862      18.170      19.015      19.308      19.015      18.170    
  16.862      15.220      13.385      11.492      9.6558      7.9606      6.4623      5.1874      4.1374      3.2947    
  2.6306      2.1148      1.7214      1.4300      1.2235      1.0875      1.0107     0.98601      1.0108      1.0875    
  1.2234      1.4300      1.7215      2.1148      2.6305      3.2946      4.1374      5.1874      6.4623      7.9607    
  11.290      13.355      15.450      17.435      19.140      20.395      21.062      21.063      20.395      19.139    
  17.434      15.452      13.358      11.293      9.3593      7.6253      6.1260      4.8714      3.8523      3.0455    
  2.4197      1.9424      1.5854      1.3267      1.1491      1.0388     0.98601     0.98598      1.0387      1.1490    
  1.3266      1.5853      1.9426      2.4202      3.0457      3.8521      4.8717      6.1277      7.6273      9.3593    
  13.583      16.037      18.502      20.779      22.636      23.855      24.280      23.855      22.636      20.779    
  18.502      16.037      13.583      11.281      9.2115      7.4135      5.8954      4.6478      3.6495      2.8709    
  2.2770      1.8327      1.5073      1.2772      1.1250      1.0387      1.0108      1.0387      1.1251      1.2772    
  1.5072      1.8326      2.2770      2.8709      3.6495      4.6478      5.8955      7.4135      9.2113      11.280    
  17.004      20.152      23.259      26.012      28.078      29.187      29.187      28.079      26.013      23.259    
  20.150      17.001      14.050      11.427      9.1766      7.2908      5.7410      4.4933      3.5120      2.7590    
  2.1943      1.7795      1.4818      1.2772      1.1491      1.0875      1.0875      1.1490      1.2772      1.4820    
  1.7797      2.1943      2.7586      3.5117      4.4934      5.7410      7.2896      9.1745      11.426      14.051    
  22.351      26.585      30.569      33.961      36.386      37.281      36.386      33.961      30.569      26.585    
  22.351      18.296      14.701      11.680      9.2125      7.2263      5.6421      4.3947      3.4312      2.7038    
  2.1673      1.7797      1.5072      1.3266      1.2234      1.1899      1.2234      1.3266      1.5072      1.7797    
  2.1673      2.7039      3.4312      4.3947      5.6420      7.2262      9.2125      11.680      14.702      18.296    
  30.536      36.969      44.176      50.694      54.600      54.598      50.692      44.176      36.972      30.539    
  24.911      19.772      15.430      11.968      9.2772      7.1968      5.5865      4.3464      3.4044      2.7036    
  2.1944      1.8331      1.5854      1.4296      1.3543      1.3546      1.4300      1.5853      1.8326      2.1943    
  2.7039      3.4046      4.3464      5.5866      7.1973      9.2780      11.969      15.431      19.772      24.910    
  47.326      62.361      77.619      89.033      93.263      89.033      77.619      62.361      47.326      35.540    
  27.487      21.201      16.096      12.214      9.3338      7.1865      5.5685      4.3464      3.4313      2.7585    
  2.2770      1.9426      1.7215      1.5937      1.5516      1.5937      1.7215      1.9426      2.2770      2.7586    
  3.4312      4.3464      5.5685      7.1866      9.3339      12.214      16.096      21.201      27.486      35.540    
  88.312      117.75      142.93      157.46      157.46      142.94      117.75      88.309      61.404      41.686    
  29.817      22.330      16.562      12.355      9.3559      7.1870      5.5864      4.3947      3.5120      2.8708    
  2.4196      2.1146      1.9231      1.8289      1.8285      1.9226      2.1148      2.4202      2.8709      3.5117    
  4.3947      5.5866      7.1866      9.3550      12.355      16.562      22.330      29.815      41.686      61.407    
  165.97      211.62      244.31      256.19      244.31      211.62      165.97      117.68      76.293      47.574    
  31.590      22.953      16.728      12.355      9.3339      7.1973      5.6420      4.4934      3.6495      3.0457    
  2.6305      2.3587      2.2011      2.1486      2.2011      2.3587      2.6305      3.0457      3.6495      4.4934    
  5.6420      7.1973      9.3339      12.355      16.728      22.953      31.590      47.574      76.293      117.68    
  283.97      342.82      376.20      376.20      342.82      283.97      212.76      143.49      87.733      51.216    
  32.268      22.953      16.562      12.214      9.2773      7.2257      5.7411      4.6482      3.8523      3.2946    
  2.9218      2.6879      2.5714      2.5714      2.6879      2.9219      3.2946      3.8521      4.6478      5.7410    
  7.2262      9.2780      12.214      16.562      22.953      32.268      51.217      87.733      143.48      212.75    
  435.50      499.76      523.06      499.76      435.50      345.00      246.92      158.61      92.030      51.217    
  31.590      22.330      16.096      11.969      9.2125      7.2895      5.8955      4.8719      4.1374      3.6357    
  3.3101      3.1203      3.0562      3.1202      3.3101      3.6357      4.1374      4.8717      5.8955      7.2896    
  9.2125      11.969      16.096      22.330      31.590      51.217      92.030      158.61      246.92      345.00    
  603.11      660.48      660.47      603.10      502.26      380.07      259.46      158.61      87.733      47.576    
  29.816      21.200      15.430      11.681      9.1764      7.4134      6.1260      5.1869      4.5293      4.0921    
  3.8177      3.6802      3.6811      3.8188      4.0914      4.5280      5.1874      6.1277      7.4135      9.1745    
  11.680      15.431      21.201      29.815      47.574      87.733      158.61      259.47      380.07      502.26    
  759.50      794.89      759.50      662.39      526.64      380.07      246.92      143.48      76.293      41.686    
  27.487      19.772      14.702      11.426      9.2114      7.6274      6.4623      5.6244      5.0555      4.6879    
  4.4709      4.3964      4.4708      4.6879      5.0555      5.6244      6.4623      7.6273      9.2113      11.426    
  14.702      19.772      27.486      41.686      76.293      143.48      246.92      380.07      526.64      662.39    
  872.13      872.13      795.73      662.40      502.26      344.99      212.75      117.68      61.404      35.538    
  24.911      18.298      14.050      11.277      9.3593      7.9634      6.9380      6.2172      5.7423      5.4469    
  5.2967      5.2950      5.4448      5.7434      6.2195      6.9372      7.9607      9.3593      11.280      14.051    
  18.296      24.910      35.540      61.407      117.68      212.75      345.00      502.26      662.39      795.72    
  872.13      794.88      660.47      499.77      342.82      211.62      117.75      62.364      36.972      26.583    
  20.150      16.039      13.358      11.492      10.129      9.1300      8.4344      7.9785      7.6957      7.5546    
  7.5562      7.6978      7.9774      8.4321      9.1307      10.131      11.492      13.355      16.037      20.152    
  26.585      36.969      62.361      117.75      211.62      342.82      499.76      660.48      794.89      872.13    
  794.88      691.26      547.62      394.20      256.36      150.12      81.251      45.664      31.196      23.686    
  18.800      15.677      13.573      12.063      10.952      10.166      9.6497      9.3301      9.1463      9.0836    
  9.1462      9.3300      9.6499      10.167      10.953      12.063      13.572      15.676      18.799      23.685    
  31.195      45.664      81.252      150.12      256.36      394.20      547.62      691.27      794.89      832.82    
  660.47      547.62      412.82      281.82      173.58      97.803      54.622      35.539      27.017      21.488    
  17.970      15.661      14.051      12.887      12.063      11.527      11.214      11.041      10.959      10.958    
  11.039      11.214      11.529      12.063      12.885      14.050      15.662      17.970      21.486      27.015    
  35.540      54.624      97.803      173.57      281.82      412.82      547.62      660.47      725.30      725.30    
  499.77      394.20      281.82      182.14      107.47      61.451      39.239      29.760      23.845      20.058    
  17.623      15.974      14.821      14.038      13.565      13.336      13.256      13.237      13.235      13.237    
  13.255      13.335      13.565      14.038      14.821      15.974      17.623      20.058      23.845      29.760    
  39.239      61.451      107.47      182.14      281.82      394.20      499.76      575.83      603.64      575.83    
  342.82      256.36      173.58      107.47      64.005      41.426      31.569      25.608      21.742      19.295    
  17.694      16.631      15.974      15.665      15.636      15.776      15.953      16.065      16.065      15.953    
  15.775      15.635      15.665      15.975      16.631      17.694      19.295      21.743      25.608      31.569    
  41.426      64.006      107.47      173.58      256.36      342.82      415.49      457.22      457.22      415.49    
  211.62      150.12      97.803      61.451      41.426      32.200      26.553      22.841      20.519      19.060    
  18.170      17.729      17.691      17.991      18.505      19.051      19.456      19.603      19.456      19.052    
  18.505      17.991      17.690      17.729      18.170      19.061      20.519      22.841      26.553      32.200    
  41.426      61.449      97.802      150.12      211.62      270.55      313.33      329.00      313.33      270.54    
  117.75      81.251      54.622      39.239      31.569      26.553      23.223      21.167      19.943      19.295    
  19.139      19.460      20.208      21.246      22.343      23.246      23.750      23.750      23.246      22.344    
  21.246      20.208      19.459      19.139      19.295      19.943      21.167      23.223      26.553      31.569    
  39.239      54.622      81.251      117.75      157.93      192.65      212.84      212.84      192.65      157.93    
  62.364      45.664      35.539      29.760      25.608      22.841      21.167      20.248      19.890      20.058    
  20.780      22.042      23.707      25.502      27.090      28.194      28.600      28.193      27.090      25.504    
  23.709      22.042      20.779      20.057      19.890      20.248      21.167      22.841      25.608      29.761    
  35.540      45.663      62.361      84.212      106.59      123.44      129.71      123.44      106.59      84.215    
  36.972      31.196      27.017      23.845      21.742      20.519      19.943      19.890      20.377      21.488    
  23.259      25.575      28.134      30.669      32.974      34.406      34.405      32.974      30.671      28.137    
  25.577      23.259      21.486      20.376      19.890      19.943      20.519      21.742      23.845      27.017    
  31.196      36.972      45.659      56.405      66.457      72.559      72.559      66.456      56.405      45.658    
  26.583      23.686      21.488      20.058      19.295      19.060      19.295      20.058      21.488      23.686    
  26.583      29.902      33.718      37.867      41.217      42.511      41.217      37.868      33.721      29.905    
  26.585      23.685      21.486      20.057      19.295      19.061      19.295      20.057      21.486      23.685    
  26.585      29.905      33.721      37.868      41.217      42.511      41.217      37.867      33.718      29.902    
  20.150      18.800      17.970      17.623      17.694      18.170      19.139      20.780      23.259      26.583    
  30.536      35.538      41.686      47.576      51.217      51.216      47.574      41.686      35.540      30.539    
  26.585      23.259      20.779      19.139      18.169      17.694      17.623      17.969      18.799      20.149    
  21.946      23.969      25.899      27.410      28.269      28.269      27.410      25.898      23.969      21.946    
  16.039      15.677      15.661      15.974      16.631      17.729      19.460      22.042      25.575      29.902    
  35.538      43.139      51.455      58.021      60.520      58.018      51.453      43.139      35.540      29.904    
  25.576      22.042      19.459      17.729      16.631      15.975      15.663      15.678      16.037      16.734    
  17.693      18.757      19.722      20.393      20.632      20.392      19.722      18.758      17.695      16.737    
  13.358      13.573      14.051      14.821      15.974      17.691      20.208      23.707      28.134      33.718    
  41.686      51.455      60.599      66.158      66.158      60.597      51.453      41.685      33.720      28.137    
  23.708      20.207      17.690      15.975      14.821      14.050      13.572      13.357      13.394      13.651    
  14.058      14.512      14.896      15.115      15.114      14.896      14.512      14.059      13.651      13.393    
  11.492      12.063      12.887      14.038      15.665      17.991      21.246      25.502      30.669      37.867    
  47.576      58.021      66.158      69.236      66.157      58.019      47.574      37.867      30.670      25.503    
  21.246      17.991      15.665      14.038      12.885      12.061      11.492      11.144      10.989      10.988    
  11.083      11.212      11.315      11.354      11.315      11.212      11.084      10.987      10.987      11.142    
  10.129      10.952      12.063      13.565      15.636      18.505      22.343      27.090      32.974      41.217    
  51.217      60.520      66.158      66.157      60.518      51.216      41.216      32.974      27.090      22.344    
  18.505      15.636      13.565      12.063      10.953      10.129      9.5327      9.1282      8.8813      8.7519    
  8.6979      8.6833      8.6829      8.6833      8.6838      8.6976      8.7511      8.8812      9.1289      9.5332    
  9.1300      10.166      11.527      13.336      15.776      19.051      23.246      28.194      34.406      42.511    
  51.216      58.018      60.597      58.019      51.216      42.510      34.404      28.194      23.246      19.052    
  15.776      13.336      11.529      10.168      9.1306      8.3460      7.7688      7.3615      7.0871      6.9100    
  6.8011      6.7419      6.7232      6.7422      6.8012      6.9097      7.0871      7.3627      7.7711      8.3477    
  8.4344      9.6497      11.214      13.256      15.953      19.456      23.750      28.600      34.405      41.217    
  47.574      51.453      51.453      47.574      41.216      34.404      28.600      23.751      19.456      15.953    
  13.255      11.214      9.6502      8.4345      7.4909      6.7732      6.2436      5.8643      5.5988      5.4183    
  5.3045      5.2487      5.2483      5.3040      5.4184      5.5993      5.8643      6.2432      6.7731      7.4911    
  7.9785      9.3301      11.041      13.237      16.065      19.603      23.750      28.193      32.974      37.868    
  41.686      43.139      41.685      37.867      32.974      28.194      23.751      19.603      16.065      13.237    
  11.039      9.3278      7.9775      6.9085      6.0737      5.4390      4.9708      4.6335      4.3951      4.2338    
  4.1394      4.1082      4.1393      4.2336      4.3949      4.6335      4.9705      5.4376      6.0716      6.9074    
  7.6957      9.1463      10.959      13.235      16.065      19.456      23.246      27.090      30.671      33.721    
  35.540      35.540      33.720      30.670      27.090      23.246      19.456      16.065      13.235      10.959    
  9.1461      7.6955      6.5325      5.6086      4.8891      4.3432      3.9401      3.6492      3.4458      3.3147    
  3.2500      3.2502      3.3150      3.4457      3.6489      3.9400      4.3433      4.8891      5.6085      6.5325    
  7.5546      9.0836      10.958      13.237      15.953      19.052      22.344      25.504      28.137      29.905    
  30.539      29.904      28.137      25.503      22.344      19.052      15.953      13.237      10.959      9.0858    
  7.5563      6.3146      5.3181      4.5320      3.9244      3.4645      3.1243      2.8803      2.7152      2.6186    
  2.5865      2.6183      2.7152      2.8807      3.1246      3.4644      3.9249      4.5336      5.3199      6.3148    
  7.5562      9.1462      11.039      13.255      15.775      18.505      21.246      23.709      25.577      26.585    
  26.585      25.576      23.708      21.246      18.505      15.776      13.255      11.039      9.1461      7.5563    
  6.2415      5.1735      4.3239      3.6617      3.1542      2.7715      2.4895      2.2910      2.1645      2.1028    
  2.1027      2.1644      2.2910      2.4896      2.7715      3.1542      3.6618      4.3241      5.1734      6.2412    
  7.6978      9.3300      11.214      13.335      15.635      17.991      20.208      22.042      23.259      23.685    