Sn                                      
   1.00000000000000     
     4.075923    0.000000    2.353235
     1.358641    3.842817    2.353235
     0.000000    0.000000    4.706470
   Sn
     2
Direct
  0.000000  0.000000  0.000000
  0.250000  0.250000  0.250000
 
   40   40   40
 0.91333849761E+03 0.87212887620E+03 0.75949832046E+03 0.60310720316E+03 0.43550304552E+03
 0.28397145248E+03 0.16597447503E+03 0.88312386958E+02 0.47326443315E+02 0.30536307183E+02
 0.22351328870E+02 0.17004444033E+02 0.13583308942E+02 0.11289837329E+02 0.96557565103E+01
 0.84534997199E+01 0.75851591047E+01 0.69934847882E+01 0.66138084694E+01 0.63934507675E+01
 0.63188335396E+01 0.63934194232E+01 0.66137622188E+01 0.69934532144E+01 0.75851721614E+01
 0.84535627169E+01 0.96558325578E+01 0.11289870219E+02 0.13583280098E+02 0.17004399139E+02
 0.22351328802E+02 0.30536355027E+02 0.47326481247E+02 0.88312369041E+02 0.16597442098E+03
 0.28397141676E+03 0.43550305058E+03 0.60310722379E+03 0.75949832714E+03 0.87212887060E+03
 0.87212887620E+03 0.79488239039E+03 0.66047280402E+03 0.49976545816E+03 0.34282474605E+03
 0.21161586854E+03 0.11774604680E+03 0.62364106839E+02 0.36971779491E+02 0.26583327407E+02
 0.20149800301E+02 0.16038671268E+02 0.13357611625E+02 0.11492448335E+02 0.10128492353E+02
 0.91300204646E+01 0.84343248940E+01 0.79784214160E+01 0.76957412396E+01 0.75546412165E+01
 0.75562404860E+01 0.76977941352E+01 0.79774591599E+01 0.84322041894E+01 0.91307120378E+01
 0.10131042173E+02 0.11492374813E+02 0.13354620938E+02 0.16037421148E+02 0.20152055882E+02
 0.26584824258E+02 0.36969457761E+02 0.62361496487E+02 0.11774727397E+03 0.21161835084E+03
 0.34282365329E+03 0.49976300194E+03 0.66047591659E+03 0.79489098569E+03 0.87213371687E+03
 0.75949832046E+03 0.66047280402E+03 0.52306027670E+03 0.37619671438E+03 0.24431213139E+03
 0.14293509256E+03 0.77619132126E+02 0.44176286470E+02 0.30568437323E+02 0.23259350823E+02
 0.18502240618E+02 0.15450366677E+02 0.13384687049E+02 0.11898572781E+02 0.10805440267E+02
 0.10030681513E+02 0.95211635529E+01 0.92050336017E+01 0.90233765512E+01 0.89615031523E+01
 0.90233846749E+01 0.92050575194E+01 0.95211716098E+01 0.10030652925E+02 0.10805443642E+02
 0.11898680359E+02 0.13384830757E+02 0.15450409455E+02 0.18502182654E+02 0.23259330961E+02
 0.30568522755E+02 0.44176383949E+02 0.77619121451E+02 0.14293495070E+03 0.24431193742E+03
 0.37619663006E+03 0.52306047389E+03 0.66047326336E+03 0.75949872589E+03 0.79572886928E+03
 0.60310720316E+03 0.49976545816E+03 0.37619671438E+03 0.25619002698E+03 0.15745797217E+03
 0.89033259079E+02 0.50692596405E+02 0.33959763500E+02 0.26012663106E+02 0.20780098608E+02
 0.17434108328E+02 0.15217725657E+02 0.13659711890E+02 0.12529934960E+02 0.11730454739E+02
 0.11209323909E+02 0.10901300988E+02 0.10729813736E+02 0.10648081847E+02 0.10647255394E+02
 0.10728660566E+02 0.10901554885E+02 0.11210237309E+02 0.11730228085E+02 0.12529000468E+02
 0.13660111464E+02 0.15219486272E+02 0.17434892050E+02 0.20779027117E+02 0.26011925615E+02
 0.33961061170E+02 0.50694266230E+02 0.89033022785E+02 0.15745669874E+03 0.25618992162E+03
 0.37619689474E+03 0.49976289696E+03 0.60310225310E+03 0.66239360171E+03 0.66239623812E+03
 0.43550304552E+03 0.34282474605E+03 0.24431213139E+03 0.15745797217E+03 0.93263171467E+02
 0.54599453959E+02 0.36386076252E+02 0.28078485507E+02 0.22636233529E+02 0.19139289622E+02
 0.16861479469E+02 0.15298282132E+02 0.14195233276E+02 0.13441696281E+02 0.12981953209E+02
 0.12752317035E+02 0.12663954024E+02 0.12636847448E+02 0.12630816563E+02 0.12636918614E+02
 0.12663926497E+02 0.12752214735E+02 0.12981971705E+02 0.13441824970E+02 0.14195286129E+02
 0.15298284007E+02 0.16861618598E+02 0.19139504055E+02 0.22636262038E+02 0.28078328221E+02
 0.36385996227E+02 0.54599523320E+02 0.93263220481E+02 0.15745797753E+03 0.24431223721E+03
 0.34282490166E+03 0.43550304232E+03 0.50225732093E+03 0.52664407009E+03 0.50225744448E+03
 0.28397145248E+03 0.21161586854E+03 0.14293509256E+03 0.89033259079E+02 0.54599453959E+02
 0.37281591207E+02 0.29187033686E+02 0.23855147353E+02 0.20395044516E+02 0.18169643196E+02
 0.16684662827E+02 0.15681862469E+02 0.15050943907E+02 0.14738408454E+02 0.14682404333E+02
 0.14782290848E+02 0.14920854806E+02 0.15010103933E+02 0.15010201805E+02 0.14921132805E+02
 0.14782631407E+02 0.14682553677E+02 0.14738190596E+02 0.15050504785E+02 0.15681527268E+02
 0.16684527161E+02 0.18169524675E+02 0.20394880804E+02 0.23855084738E+02 0.29186942385E+02
 0.37280985976E+02 0.54598393357E+02 0.89032912491E+02 0.14293661201E+03 0.21161878915E+03
 0.28397402681E+03 0.34499545820E+03 0.38006685862E+03 0.38006663366E+03 0.34499427556E+03
 0.16597447503E+03 0.11774604680E+03 0.77619132126E+02 0.50692596405E+02 0.36386076252E+02
 0.29187033686E+02 0.24279877445E+02 0.21062245538E+02 0.19015171657E+02 0.17694151194E+02
 0.16861564881E+02 0.16425213585E+02 0.16345513365E+02 0.16565666172E+02 0.16974400451E+02
 0.17417603586E+02 0.17747922813E+02 0.17868733540E+02 0.17747994991E+02 0.17417702756E+02
 0.16974418406E+02 0.16565535353E+02 0.16345329316E+02 0.16425134817E+02 0.16861597320E+02
 0.17694164651E+02 0.19015127904E+02 0.21062255391E+02 0.24279996108E+02 0.29187138660E+02
 0.36386014809E+02 0.50692369395E+02 0.77618894293E+02 0.11774599196E+03 0.16597471416E+03
 0.21275542306E+03 0.24692172171E+03 0.25946491058E+03 0.24692135837E+03 0.21275497632E+03
 0.88312386958E+02 0.62364106839E+02 0.44176286470E+02 0.33959763500E+02 0.28078485507E+02
 0.23855147353E+02 0.21062245538E+02 0.19307334820E+02 0.18226885613E+02 0.17623281853E+02
 0.17434151126E+02 0.17648232138E+02 0.18227157122E+02 0.19055792905E+02 0.19944292814E+02
 0.20680663143E+02 0.21094489264E+02 0.21094745183E+02 0.20680917493E+02 0.19943933000E+02
 0.19055272146E+02 0.18227322012E+02 0.17648900466E+02 0.17434405220E+02 0.17623026598E+02
 0.18226952181E+02 0.19307916445E+02 0.21062533541E+02 0.23854997473E+02 0.28078988479E+02
 0.33961089727E+02 0.44176357086E+02 0.62361253104E+02 0.88308509202E+02 0.11768303601E+03
 0.14348503764E+03 0.15861126088E+03 0.15860990169E+03 0.14348325153E+03 0.11768429449E+03
 0.47326443315E+02 0.36971779491E+02 0.30568437323E+02 0.26012663106E+02 0.22636233529E+02
 0.20395044516E+02 0.19015171657E+02 0.18226885613E+02 0.17886458626E+02 0.17969711292E+02
 0.18502245948E+02 0.19476971609E+02 0.20790150898E+02 0.22228332622E+02 0.23517848703E+02
 0.24405161335E+02 0.24720430323E+02 0.24405276036E+02 0.23518076976E+02 0.22228517962E+02
 0.20790093518E+02 0.19476726090E+02 0.18502074689E+02 0.17969720814E+02 0.17886504614E+02
 0.18226846259E+02 0.19015084289E+02 0.20394959222E+02 0.22636159252E+02 0.26012670573E+02
 0.30568588362E+02 0.36971939613E+02 0.47326386467E+02 0.61403859387E+02 0.76293207747E+02
 0.87732888471E+02 0.92030057500E+02 0.87733029045E+02 0.76293494666E+02 0.61404140516E+02
 0.30536307183E+02 0.26583327407E+02 0.23259350823E+02 0.20780098608E+02 0.19139289622E+02
 0.18169643196E+02 0.17694151194E+02 0.17623281853E+02 0.17969711292E+02 0.18799706823E+02
 0.20149897142E+02 0.21945896097E+02 0.23969196147E+02 0.25898389960E+02 0.27409965302E+02
 0.28268776909E+02 0.28268869497E+02 0.27410255521E+02 0.25898753864E+02 0.23969298542E+02
 0.21945554053E+02 0.20149337082E+02 0.18799249229E+02 0.17969421638E+02 0.17623117864E+02
 0.17694115891E+02 0.18169502003E+02 0.19138563858E+02 0.20778899295E+02 0.23258924473E+02
 0.26584945050E+02 0.30539449092E+02 0.35540330355E+02 0.41685697827E+02 0.47574131022E+02
 0.51215561854E+02 0.51216669645E+02 0.47576067619E+02 0.41685900946E+02 0.35537977279E+02
 0.22351328870E+02 0.20149800301E+02 0.18502240618E+02 0.17434108328E+02 0.16861479469E+02
 0.16684662827E+02 0.16861564881E+02 0.17434151126E+02 0.18502245948E+02 0.20149897142E+02
 0.22351498465E+02 0.24911437552E+02 0.27486556982E+02 0.29816512231E+02 0.31590066833E+02
 0.32267585874E+02 0.31590083374E+02 0.29816583407E+02 0.27486634929E+02 0.24911422597E+02
 0.22351382706E+02 0.20149737003E+02 0.18502061221E+02 0.17434004315E+02 0.16861615058E+02
 0.16684927352E+02 0.16861675988E+02 0.17433992946E+02 0.18501978685E+02 0.20149717251E+02
 0.22351424034E+02 0.24911390943E+02 0.27486536006E+02 0.29816561322E+02 0.31590145100E+02
 0.32267594140E+02 0.31590007287E+02 0.29816499298E+02 0.27486575866E+02 0.24911353912E+02
 0.17004444033E+02 0.16038671268E+02 0.15450366677E+02 0.15217725657E+02 0.15298282132E+02
 0.15681862469E+02 0.16425213585E+02 0.17648232138E+02 0.19476971609E+02 0.21945896097E+02
 0.24911437552E+02 0.28049087857E+02 0.31219316122E+02 0.34127637046E+02 0.35927432161E+02
 0.35927096344E+02 0.34127273359E+02 0.31219680148E+02 0.28049658223E+02 0.24911354759E+02
 0.21945541527E+02 0.19477281583E+02 0.17648929582E+02 0.16425234530E+02 0.15681421357E+02
 0.15298869034E+02 0.15219596905E+02 0.15451505412E+02 0.16037236835E+02 0.17001313287E+02
 0.18295597952E+02 0.19771745012E+02 0.21200610163E+02 0.22330380248E+02 0.22953055321E+02
 0.22952912255E+02 0.22329760245E+02 0.21199733972E+02 0.19771937763E+02 0.18297863987E+02
 0.13583308942E+02 0.13357611625E+02 0.13384687049E+02 0.13659711890E+02 0.14195233276E+02
 0.15050943907E+02 0.16345513365E+02 0.18227157122E+02 0.20790150898E+02 0.23969196147E+02
 0.27486556982E+02 0.31219316122E+02 0.35091162496E+02 0.38172750973E+02 0.39359108033E+02
 0.38172720099E+02 0.35091211907E+02 0.31219458149E+02 0.27486675107E+02 0.23969234699E+02
 0.20790159045E+02 0.18227132631E+02 0.16345390408E+02 0.15050772408E+02 0.14195189238E+02
 0.13659864129E+02 0.13384896670E+02 0.13357718898E+02 0.13583294388E+02 0.14049874544E+02
 0.14701459236E+02 0.15430388377E+02 0.16096184441E+02 0.16561566122E+02 0.16728450808E+02
 0.16561571309E+02 0.16096239670E+02 0.15430496136E+02 0.14701571787E+02 0.14049955485E+02
 0.11289837329E+02 0.11492448335E+02 0.11898572781E+02 0.12529934960E+02 0.13441696281E+02
 0.14738408454E+02 0.16565666172E+02 0.19055792905E+02 0.22228332622E+02 0.25898389960E+02
 0.29816512231E+02 0.34127637046E+02 0.38172750973E+02 0.40674981989E+02 0.40675096951E+02
 0.38172737307E+02 0.34127189807E+02 0.29816176408E+02 0.25898692347E+02 0.22228707062E+02
 0.19055412458E+02 0.16564905683E+02 0.14738222849E+02 0.13441762870E+02 0.12528988964E+02
 0.11896900247E+02 0.11492343991E+02 0.11292504304E+02 0.11280648498E+02 0.11426981848E+02
 0.11679595071E+02 0.11967584004E+02 0.12214223745E+02 0.12355093872E+02 0.12354517278E+02
 0.12213738978E+02 0.11968669422E+02 0.11680963095E+02 0.11426008750E+02 0.11277329194E+02
 0.96557565103E+01 0.10128492353E+02 0.10805440267E+02 0.11730454739E+02 0.12981953209E+02
 0.14682404333E+02 0.16974400451E+02 0.19944292814E+02 0.23517848703E+02 0.27409965302E+02
 0.31590066833E+02 0.35927432161E+02 0.39359108033E+02 0.40675096951E+02 0.39358859944E+02
 0.35927188432E+02 0.31590007693E+02 0.27410028161E+02 0.23517907706E+02 0.19944346238E+02
 0.16974496780E+02 0.14682506653E+02 0.12981990479E+02 0.11730439416E+02 0.10805435501E+02
 0.10128506465E+02 0.96557597253E+01 0.93593383388E+01 0.92114796612E+01 0.91765533657E+01
 0.92125388417E+01 0.92772276547E+01 0.93337915969E+01 0.93559487075E+01 0.93338771597E+01
 0.92772815228E+01 0.92124784431E+01 0.91764303725E+01 0.92113990240E+01 0.93593234991E+01
 0.84534997199E+01 0.91300204646E+01 0.10030681513E+02 0.11209323909E+02 0.12752317035E+02
 0.14782290848E+02 0.17417603586E+02 0.20680663143E+02 0.24405161335E+02 0.28268776909E+02
 0.32267585874E+02 0.35927096344E+02 0.38172720099E+02 0.38172737307E+02 0.35927188432E+02
 0.32267741957E+02 0.28268870572E+02 0.24405191985E+02 0.20680814917E+02 0.17417905532E+02
 0.14782568298E+02 0.12752699698E+02 0.11210297753E+02 0.10032130398E+02 0.91306592859E+01
 0.84521102448E+01 0.79606406212E+01 0.76253453819E+01 0.74135131239E+01 0.72908014140E+01
 0.72263174879E+01 0.71967533714E+01 0.71865388203E+01 0.71869981819E+01 0.71972965609E+01
 0.72257303776E+01 0.72895172979E+01 0.74134043968E+01 0.76273637478E+01 0.79634342174E+01
 0.75851591047E+01 0.84343248940E+01 0.95211635529E+01 0.10901300988E+02 0.12663954024E+02
 0.14920854806E+02 0.17747922813E+02 0.21094489264E+02 0.24720430323E+02 0.28268869497E+02
 0.31590083374E+02 0.34127273359E+02 0.35091211907E+02 0.34127189807E+02 0.31590007693E+02
 0.28268870572E+02 0.24720515124E+02 0.21094635150E+02 0.17748053436E+02 0.14920851549E+02
 0.12663812489E+02 0.10901197028E+02 0.95212268358E+01 0.84344428174E+01 0.75851630606E+01
 0.69378869080E+01 0.64622881995E+01 0.61260086491E+01 0.58954160295E+01 0.57410321516E+01
 0.56420769419E+01 0.55865278340E+01 0.55685029542E+01 0.55863529163E+01 0.56419814024E+01
 0.57411148022E+01 0.58955116378E+01 0.61260165168E+01 0.64623076349E+01 0.69379582514E+01
 0.69934847882E+01 0.79784214160E+01 0.92050336017E+01 0.10729813736E+02 0.12636847448E+02
 0.15010103933E+02 0.17868733540E+02 0.21094745183E+02 0.24405276036E+02 0.27410255521E+02
 0.29816583407E+02 0.31219680148E+02 0.31219458149E+02 0.29816176408E+02 0.27410028161E+02
 0.24405191985E+02 0.21094635150E+02 0.17868744362E+02 0.15010334384E+02 0.12636730836E+02
 0.10728614484E+02 0.92031309564E+01 0.79774133830E+01 0.69945148748E+01 0.62195419738E+01
 0.56263150041E+01 0.51873696944E+01 0.48714158143E+01 0.46478083138E+01 0.44932879129E+01
 0.43947155489E+01 0.43464356504E+01 0.43464450600E+01 0.43947244226E+01 0.44933981858E+01
 0.46482190461E+01 0.48718529564E+01 0.51869126509E+01 0.56244322853E+01 0.62171866886E+01
 0.66138084694E+01 0.76957412396E+01 0.90233765512E+01 0.10648081847E+02 0.12630816563E+02
 0.15010201805E+02 0.17747994991E+02 0.20680917493E+02 0.23518076976E+02 0.25898753864E+02
 0.27486634929E+02 0.28049658223E+02 0.27486675107E+02 0.25898692347E+02 0.23517907706E+02
 0.20680814917E+02 0.17748053436E+02 0.15010334384E+02 0.12630933394E+02 0.10648171421E+02
 0.90233970395E+01 0.76956345294E+01 0.66136486188E+01 0.57422281516E+01 0.50555189771E+01
 0.45293443431E+01 0.41374369456E+01 0.38523101955E+01 0.36495042311E+01 0.35119687107E+01
 0.34311641165E+01 0.34044091727E+01 0.34312560256E+01 0.35120244456E+01 0.36494827547E+01
 0.38522858605E+01 0.41374220875E+01 0.45292831336E+01 0.50554572097E+01 0.57422858832E+01
 0.63934507675E+01 0.75546412165E+01 0.89615031523E+01 0.10647255394E+02 0.12636918614E+02
 0.14921132805E+02 0.17417702756E+02 0.19943933000E+02 0.22228517962E+02 0.23969298542E+02
 0.24911422597E+02 0.24911354759E+02 0.23969234699E+02 0.22228707062E+02 0.19944346238E+02
 0.17417905532E+02 0.14920851549E+02 0.12636730836E+02 0.10648171421E+02 0.89635290427E+01
 0.75562383123E+01 0.63930436400E+01 0.54447332910E+01 0.46857964024E+01 0.40913589798E+01
 0.36359552679E+01 0.32947068245E+01 0.30454996954E+01 0.28708539774E+01 0.27590008361E+01
 0.27038471420E+01 0.27035563519E+01 0.27585442879E+01 0.28708122915E+01 0.30456910656E+01
 0.32945562316E+01 0.36356917283E+01 0.40920683716E+01 0.46878850327E+01 0.54468931191E+01
 0.63188335396E+01 0.75562404860E+01 0.90233846749E+01 0.10728660566E+02 0.12663926497E+02
 0.14782631407E+02 0.16974418406E+02 0.19055272146E+02 0.20790093518E+02 0.21945554053E+02
 0.22351382706E+02 0.21945541527E+02 0.20790159045E+02 0.19055412458E+02 0.16974496780E+02
 0.14782568298E+02 0.12663812489E+02 0.10728614484E+02 0.90233970395E+01 0.75562383123E+01
 0.63188185395E+01 0.52966731470E+01 0.44708757181E+01 0.38176468061E+01 0.33100268724E+01
 0.29217218855E+01 0.26305714745E+01 0.24197036623E+01 0.22769868730E+01 0.21943432843E+01
 0.21672813716E+01 0.21943609582E+01 0.22769544023E+01 0.24196143172E+01 0.26305226199E+01
 0.29217859163E+01 0.33101413877E+01 0.38176986627E+01 0.44708533776E+01 0.52966549547E+01
 0.63934194232E+01 0.76977941352E+01 0.92050575194E+01 0.10901554885E+02 0.12752214735E+02
 0.14682553677E+02 0.16565535353E+02 0.18227322012E+02 0.19476726090E+02 0.20149337082E+02
 0.20149737003E+02 0.19477281583E+02 0.18227132631E+02 0.16564905683E+02 0.14682506653E+02
 0.12752699698E+02 0.10901197028E+02 0.92031309564E+01 0.76956345294E+01 0.63930436400E+01
 0.52966731470E+01 0.43984064025E+01 0.36811694741E+01 0.31202694143E+01 0.26878747412E+01
 0.23589635560E+01 0.21147824400E+01 0.19423806116E+01 0.18326634340E+01 0.17794841687E+01
 0.17796734679E+01 0.18330689838E+01 0.19426168881E+01 0.21146205772E+01 0.23586931640E+01
 0.26879215943E+01 0.31203132925E+01 0.36802416964E+01 0.43963551980E+01 0.52949958561E+01
 0.66137622188E+01 0.79774591599E+01 0.95211716098E+01 0.11210237309E+02 0.12981971705E+02
 0.14738190596E+02 0.16345329316E+02 0.17648900466E+02 0.18502074689E+02 0.18799249229E+02
 0.18502061221E+02 0.17648929582E+02 0.16345390408E+02 0.14738222849E+02 0.12981990479E+02
 0.11210297753E+02 0.95212268358E+01 0.79774133830E+01 0.66136486188E+01 0.54447332910E+01
 0.44708757181E+01 0.36811694741E+01 0.30562731958E+01 0.25714899820E+01 0.22011145266E+01
 0.19230873384E+01 0.17214305226E+01 0.15853816871E+01 0.15072695878E+01 0.14818469083E+01
 0.15072201175E+01 0.15853987562E+01 0.17215208740E+01 0.19231236322E+01 0.22010513621E+01
 0.25714173429E+01 0.30562386720E+01 0.36811305735E+01 0.44708454410E+01 0.54447878070E+01
 0.69934532144E+01 0.84322041894E+01 0.10030652925E+02 0.11730228085E+02 0.13441824970E+02
 0.15050504785E+02 0.16425134817E+02 0.17434405220E+02 0.17969720814E+02 0.17969421638E+02
 0.17434004315E+02 0.16425234530E+02 0.15050772408E+02 0.13441762870E+02 0.11730439416E+02
 0.10032130398E+02 0.84344428174E+01 0.69945148748E+01 0.57422281516E+01 0.46857964024E+01
 0.38176468061E+01 0.31202694143E+01 0.25714899820E+01 0.21481813227E+01 0.18285374889E+01
 0.15938872511E+01 0.14299639807E+01 0.13267141124E+01 0.12771567074E+01 0.12771713474E+01
 0.13265730968E+01 0.14295850266E+01 0.15937218496E+01 0.18289048477E+01 0.21485857663E+01
 0.25713862081E+01 0.31202402480E+01 0.38187985545E+01 0.46878671649E+01 0.57433558630E+01
 0.75851721614E+01 0.91307120378E+01 0.10805443642E+02 0.12529000468E+02 0.14195286129E+02
 0.15681527268E+02 0.16861597320E+02 0.17623026598E+02 0.17886504614E+02 0.17623117864E+02
 0.16861615058E+02 0.15681421357E+02 0.14195189238E+02 0.12528988964E+02 0.10805435501E+02
 0.91306592859E+01 0.75851630606E+01 0.62195419738E+01 0.50555189771E+01 0.40913589798E+01
 0.33100268724E+01 0.26878747412E+01 0.22011145266E+01 0.18285374889E+01 0.15516232543E+01
 0.13543295770E+01 0.12234559298E+01 0.11491063105E+01 0.11250400036E+01 0.11490966869E+01
 0.12234434324E+01 0.13543226016E+01 0.15516097598E+01 0.18284978275E+01 0.22010809569E+01
 0.26879174368E+01 0.33101338001E+01 0.40914098677E+01 0.50554522184E+01 0.62194591201E+01
 0.84535627169E+01 0.10131042173E+02 0.11898680359E+02 0.13660111464E+02 0.15298284007E+02
 0.16684527161E+02 0.17694164651E+02 0.18226952181E+02 0.18226846259E+02 0.17694115891E+02
 0.16684927352E+02 0.15298869034E+02 0.13659864129E+02 0.11896900247E+02 0.10128506465E+02
 0.84521102448E+01 0.69378869080E+01 0.56263150041E+01 0.45293443431E+01 0.36359552679E+01
 0.29217218855E+01 0.23589635560E+01 0.19230873384E+01 0.15938872511E+01 0.13543295770E+01
 0.11896470281E+01 0.10874956027E+01 0.10387819098E+01 0.10387322267E+01 0.10875203412E+01
 0.11899290449E+01 0.13546099681E+01 0.15937299262E+01 0.19225806692E+01 0.23587100951E+01
 0.29218849918E+01 0.36357391476E+01 0.45279863834E+01 0.56244490270E+01 0.69372302953E+01
 0.96558325578E+01 0.11492374813E+02 0.13384830757E+02 0.15219486272E+02 0.16861618598E+02
 0.18169524675E+02 0.19015127904E+02 0.19307916445E+02 0.19015084289E+02 0.18169502003E+02
 0.16861675988E+02 0.15219596905E+02 0.13384896670E+02 0.11492343991E+02 0.96557597253E+01
 0.79606406212E+01 0.64622881995E+01 0.51873696944E+01 0.41374369456E+01 0.32947068245E+01
 0.26305714745E+01 0.21147824400E+01 0.17214305226E+01 0.14299639807E+01 0.12234559298E+01
 0.10874956027E+01 0.10107492945E+01 0.98601434484E+00 0.10107915411E+01 0.10874974429E+01
 0.12234175291E+01 0.14299813527E+01 0.17215187652E+01 0.21148280355E+01 0.26305048229E+01
 0.32945996197E+01 0.41373787161E+01 0.51873581179E+01 0.64622950918E+01 0.79606821424E+01
 0.11289870219E+02 0.13354620938E+02 0.15450409455E+02 0.17434892050E+02 0.19139504055E+02
 0.20394880804E+02 0.21062255391E+02 0.21062533541E+02 0.20394959222E+02 0.19138563858E+02
 0.17433992946E+02 0.15451505412E+02 0.13357718898E+02 0.11292504304E+02 0.93593383388E+01
 0.76253453819E+01 0.61260086491E+01 0.48714158143E+01 0.38523101955E+01 0.30454996954E+01
 0.24197036623E+01 0.19423806116E+01 0.15853816871E+01 0.13267141124E+01 0.11491063105E+01
 0.10387819098E+01 0.98601434484E+00 0.98597846463E+00 0.10387259866E+01 0.11490409608E+01
 0.13265609869E+01 0.15852667180E+01 0.19426164695E+01 0.24202026508E+01 0.30456760262E+01
 0.38520677088E+01 0.48717397819E+01 0.61276864872E+01 0.76272846647E+01 0.93592958678E+01
 0.13583280098E+02 0.16037421148E+02 0.18502182654E+02 0.20779027117E+02 0.22636262038E+02
 0.23855084738E+02 0.24279996108E+02 0.23854997473E+02 0.22636159252E+02 0.20778899295E+02
 0.18501978685E+02 0.16037236835E+02 0.13583294388E+02 0.11280648498E+02 0.92114796612E+01
 0.74135131239E+01 0.58954160295E+01 0.46478083138E+01 0.36495042311E+01 0.28708539774E+01
 0.22769868730E+01 0.18326634340E+01 0.15072695878E+01 0.12771567074E+01 0.11250400036E+01
 0.10387322267E+01 0.10107915411E+01 0.10387259866E+01 0.11250561745E+01 0.12771730183E+01
 0.15072402286E+01 0.18326135842E+01 0.22769745356E+01 0.28708686754E+01 0.36495134872E+01
 0.46478479704E+01 0.58955002406E+01 0.74135249317E+01 0.92113222158E+01 0.11280450979E+02
 0.17004399139E+02 0.20152055882E+02 0.23259330961E+02 0.26011925615E+02 0.28078328221E+02
 0.29186942385E+02 0.29187138660E+02 0.28078988479E+02 0.26012670573E+02 0.23258924473E+02
 0.20149717251E+02 0.17001313287E+02 0.14049874544E+02 0.11426981848E+02 0.91765533657E+01
 0.72908014140E+01 0.57410321516E+01 0.44932879129E+01 0.35119687107E+01 0.27590008361E+01
 0.21943432843E+01 0.17794841687E+01 0.14818469083E+01 0.12771713474E+01 0.11490966869E+01
 0.10875203412E+01 0.10874974429E+01 0.11490409608E+01 0.12771730183E+01 0.14820176113E+01
 0.17796977744E+01 0.21942510953E+01 0.27585524959E+01 0.35116617947E+01 0.44934450117E+01
 0.57410008548E+01 0.72896035944E+01 0.91745289238E+01 0.11426025176E+02 0.14051395740E+02
 0.22351328802E+02 0.26584824258E+02 0.30568522755E+02 0.33961061170E+02 0.36385996227E+02
 0.37280985976E+02 0.36386014809E+02 0.33961089727E+02 0.30568588362E+02 0.26584945050E+02
 0.22351424034E+02 0.18295597952E+02 0.14701459236E+02 0.11679595071E+02 0.92125388417E+01
 0.72263174879E+01 0.56420769419E+01 0.43947155489E+01 0.34311641165E+01 0.27038471420E+01
 0.21672813716E+01 0.17796734679E+01 0.15072201175E+01 0.13265730968E+01 0.12234434324E+01
 0.11899290449E+01 0.12234175291E+01 0.13265609869E+01 0.15072402286E+01 0.17796977744E+01
 0.21672893101E+01 0.27038669454E+01 0.34312139390E+01 0.43947313055E+01 0.56419785349E+01
 0.72261542196E+01 0.92124776973E+01 0.11679715499E+02 0.14701634288E+02 0.18295647944E+02
 0.30536355027E+02 0.36969457761E+02 0.44176383949E+02 0.50694266230E+02 0.54599523320E+02
 0.54598393357E+02 0.50692369395E+02 0.44176357086E+02 0.36971939613E+02 0.30539449092E+02
 0.24911390943E+02 0.19771745012E+02 0.15430388377E+02 0.11967584004E+02 0.92772276547E+01
 0.71967533714E+01 0.55865278340E+01 0.43464356504E+01 0.34044091727E+01 0.27035563519E+01
 0.21943609582E+01 0.18330689838E+01 0.15853987562E+01 0.14295850266E+01 0.13543226016E+01
 0.13546099681E+01 0.14299813527E+01 0.15852667180E+01 0.18326135842E+01 0.21942510953E+01
 0.27038669454E+01 0.34046319801E+01 0.43463954819E+01 0.55866159148E+01 0.71972575619E+01
 0.92780349237E+01 0.11968555818E+02 0.15431336131E+02 0.19771899527E+02 0.24909769215E+02
 0.47326481247E+02 0.62361496487E+02 0.77619121451E+02 0.89033022785E+02 0.93263220481E+02
 0.89032912491E+02 0.77618894293E+02 0.62361253104E+02 0.47326386467E+02 0.35540330355E+02
 0.27486536006E+02 0.21200610163E+02 0.16096184441E+02 0.12214223745E+02 0.93337915969E+01
 0.71865388203E+01 0.55685029542E+01 0.43464450600E+01 0.34312560256E+01 0.27585442879E+01
 0.22769544023E+01 0.19426168881E+01 0.17215208740E+01 0.15937218496E+01 0.15516097598E+01
 0.15937299262E+01 0.17215187652E+01 0.19426164695E+01 0.22769745356E+01 0.27585524959E+01
 0.34312139390E+01 0.43463954819E+01 0.55685248510E+01 0.71866309399E+01 0.93338838425E+01
 0.12214277486E+02 0.16096193239E+02 0.21200543635E+02 0.27486398219E+02 0.35540242347E+02
 0.88312369041E+02 0.11774727397E+03 0.14293495070E+03 0.15745669874E+03 0.15745797753E+03
 0.14293661201E+03 0.11774599196E+03 0.88308509202E+02 0.61403859387E+02 0.41685697827E+02
 0.29816561322E+02 0.22330380248E+02 0.16561566122E+02 0.12355093872E+02 0.93559487075E+01
 0.71869981819E+01 0.55863529163E+01 0.43947244226E+01 0.35120244456E+01 0.28708122915E+01
 0.24196143172E+01 0.21146205772E+01 0.19231236322E+01 0.18289048477E+01 0.18284978275E+01
 0.19225806692E+01 0.21148280355E+01 0.24202026508E+01 0.28708686754E+01 0.35116617947E+01
 0.43947313055E+01 0.55866159148E+01 0.71866309399E+01 0.93549787998E+01 0.12354565490E+02
 0.16561627713E+02 0.22329848077E+02 0.29815267266E+02 0.41685723333E+02 0.61406772769E+02
 0.16597442098E+03 0.21161835084E+03 0.24431193742E+03 0.25618992162E+03 0.24431223721E+03
 0.21161878915E+03 0.16597471416E+03 0.11768303601E+03 0.76293207747E+02 0.47574131022E+02
 0.31590145100E+02 0.22953055321E+02 0.16728450808E+02 0.12354517278E+02 0.93338771597E+01
 0.71972965609E+01 0.56419814024E+01 0.44933981858E+01 0.36494827547E+01 0.30456910656E+01
 0.26305226199E+01 0.23586931640E+01 0.22010513621E+01 0.21485857663E+01 0.22010809569E+01
 0.23587100951E+01 0.26305048229E+01 0.30456760262E+01 0.36495134872E+01 0.44934450117E+01
 0.56419785349E+01 0.71972575619E+01 0.93338838425E+01 0.12354565490E+02 0.16728424228E+02
 0.22952929891E+02 0.31590099286E+02 0.47574314941E+02 0.76293478684E+02 0.11768308259E+03
 0.28397141676E+03 0.34282365329E+03 0.37619663006E+03 0.37619689474E+03 0.34282490166E+03
 0.28397402681E+03 0.21275542306E+03 0.14348503764E+03 0.87732888471E+02 0.51215561854E+02
 0.32267594140E+02 0.22952912255E+02 0.16561571309E+02 0.12213738978E+02 0.92772815228E+01
 0.72257303776E+01 0.57411148022E+01 0.46482190461E+01 0.38522858605E+01 0.32945562316E+01
 0.29217859163E+01 0.26879215943E+01 0.25714173429E+01 0.25713862081E+01 0.26879174368E+01
 0.29218849918E+01 0.32945996197E+01 0.38520677088E+01 0.46478479704E+01 0.57410008548E+01
 0.72261542196E+01 0.92780349237E+01 0.12214277486E+02 0.16561627713E+02 0.22952929891E+02
 0.32268255662E+02 0.51216693174E+02 0.87733191473E+02 0.14348342378E+03 0.21275245213E+03
 0.43550305058E+03 0.49976300194E+03 0.52306047389E+03 0.49976289696E+03 0.43550304232E+03
 0.34499545820E+03 0.24692172171E+03 0.15861126088E+03 0.92030057500E+02 0.51216669645E+02
 0.31590007287E+02 0.22329760245E+02 0.16096239670E+02 0.11968669422E+02 0.92124784431E+01
 0.72895172979E+01 0.58955116378E+01 0.48718529564E+01 0.41374220875E+01 0.36356917283E+01
 0.33101413877E+01 0.31203132925E+01 0.30562386720E+01 0.31202402480E+01 0.33101338001E+01
 0.36357391476E+01 0.41373787161E+01 0.48717397819E+01 0.58955002406E+01 0.72896035944E+01
 0.92124776973E+01 0.11968555818E+02 0.16096193239E+02 0.22329848077E+02 0.31590099286E+02
 0.51216693174E+02 0.92030065024E+02 0.15861123657E+03 0.24692159582E+03 0.34499531773E+03
 0.60310722379E+03 0.66047591659E+03 0.66047326336E+03 0.60310225310E+03 0.50225732093E+03
 0.38006685862E+03 0.25946491058E+03 0.15860990169E+03 0.87733029045E+02 0.47576067619E+02
 0.29816499298E+02 0.21199733972E+02 0.15430496136E+02 0.11680963095E+02 0.91764303725E+01
 0.74134043968E+01 0.61260165168E+01 0.51869126509E+01 0.45292831336E+01 0.40920683716E+01
 0.38176986627E+01 0.36802416964E+01 0.36811305735E+01 0.38187985545E+01 0.40914098677E+01
 0.45279863834E+01 0.51873581179E+01 0.61276864872E+01 0.74135249317E+01 0.91745289238E+01
 0.11679715499E+02 0.15431336131E+02 0.21200543635E+02 0.29815267266E+02 0.47574314941E+02
 0.87733191473E+02 0.15861123657E+03 0.25946512903E+03 0.38006672999E+03 0.50225988991E+03
 0.75949832714E+03 0.79489098569E+03 0.75949872589E+03 0.66239360171E+03 0.52664407009E+03
 0.38006663366E+03 0.24692135837E+03 0.14348325153E+03 0.76293494666E+02 0.41685900946E+02
 0.27486575866E+02 0.19771937763E+02 0.14701571787E+02 0.11426008750E+02 0.92113990240E+01
 0.76273637478E+01 0.64623076349E+01 0.56244322853E+01 0.50554572097E+01 0.46878850327E+01
 0.44708533776E+01 0.43963551980E+01 0.44708454410E+01 0.46878671649E+01 0.50554522184E+01
 0.56244490270E+01 0.64622950918E+01 0.76272846647E+01 0.92113222158E+01 0.11426025176E+02
 0.14701634288E+02 0.19771899527E+02 0.27486398219E+02 0.41685723333E+02 0.76293478684E+02
 0.14348342378E+03 0.24692159582E+03 0.38006672999E+03 0.52664385856E+03 0.66239313548E+03
 0.87212887060E+03 0.87213371687E+03 0.79572886928E+03 0.66239623812E+03 0.50225744448E+03
 0.34499427556E+03 0.21275497632E+03 0.11768429449E+03 0.61404140516E+02 0.35537977279E+02
 0.24911353912E+02 0.18297863987E+02 0.14049955485E+02 0.11277329194E+02 0.93593234991E+01
 0.79634342174E+01 0.69379582514E+01 0.62171866886E+01 0.57422858832E+01 0.54468931191E+01
 0.52966549547E+01 0.52949958561E+01 0.54447878070E+01 0.57433558630E+01 0.62194591201E+01
 0.69372302953E+01 0.79606821424E+01 0.93592958678E+01 0.11280450979E+02 0.14051395740E+02
 0.18295647944E+02 0.24909769215E+02 0.35540242347E+02 0.61406772769E+02 0.11768308259E+03
 0.21275245213E+03 0.34499531773E+03 0.50225988991E+03 0.66239313548E+03 0.79572027214E+03
 0.87212895134E+03 0.79488251904E+03 0.66047289449E+03 0.49976550621E+03 0.34282481823E+03
 0.21161595544E+03 0.11774607943E+03 0.62364096666E+02 0.36971795181E+02 0.26583354100E+02
 0.20149768797E+02 0.16038605667E+02 0.13357600951E+02 0.11492491055E+02 0.10128512886E+02
 0.91300170324E+01 0.84343551313E+01 0.79784648543E+01 0.76957250548E+01 0.75545829731E+01
 0.75562195339E+01 0.76978017880E+01 0.79774217940E+01 0.84321321917E+01 0.91306792081E+01
 0.10131039280E+02 0.11492330575E+02 0.13354547295E+02 0.16037391455E+02 0.20152060101E+02