   2   2   0   0
  0.3685877E+02  0.4706470E-09  0.4706470E-09  0.4706470E-09  0.5000000E-15
  1.000000000000000E-004
  CAR 
 Sn                                      
     38.02934650    -19.32495210  301      4.75406113      1.00000000
    -19.325  0.0000E+00  0.0000E+00
    -19.134  0.0000E+00  0.0000E+00
    -18.943  0.0000E+00  0.0000E+00
    -18.751  0.0000E+00  0.0000E+00
    -18.560  0.0000E+00  0.0000E+00
    -18.369  0.0000E+00  0.0000E+00
    -18.178  0.0000E+00  0.0000E+00
    -17.987  0.0000E+00  0.0000E+00
    -17.796  0.0000E+00  0.0000E+00
    -17.604  0.0000E+00  0.0000E+00
    -17.413  0.0000E+00  0.0000E+00
    -17.222  0.0000E+00  0.0000E+00
    -17.031  0.0000E+00  0.0000E+00
    -16.840  0.1292E-02  0.2470E-03
    -16.648  0.2128E+02  0.4068E+01
    -16.457  0.3828E+02  0.1139E+02
    -16.266  0.4137E+02  0.1929E+02
    -16.075  0.3689E+01  0.2000E+02
    -15.884  0.6648E-08  0.2000E+02
    -15.693  0.0000E+00  0.2000E+02
    -15.501  0.0000E+00  0.2000E+02
    -15.310  0.0000E+00  0.2000E+02
    -15.119  0.0000E+00  0.2000E+02
    -14.928  0.0000E+00  0.2000E+02
    -14.737  0.0000E+00  0.2000E+02
    -14.545  0.0000E+00  0.2000E+02
    -14.354  0.0000E+00  0.2000E+02
    -14.163  0.0000E+00  0.2000E+02
    -13.972  0.0000E+00  0.2000E+02
    -13.781  0.0000E+00  0.2000E+02
    -13.590  0.0000E+00  0.2000E+02
    -13.398  0.0000E+00  0.2000E+02
    -13.207  0.0000E+00  0.2000E+02
    -13.016  0.0000E+00  0.2000E+02
    -12.825  0.0000E+00  0.2000E+02
    -12.634  0.0000E+00  0.2000E+02
    -12.442  0.0000E+00  0.2000E+02
    -12.251  0.0000E+00  0.2000E+02
    -12.060  0.0000E+00  0.2000E+02
    -11.869  0.0000E+00  0.2000E+02
    -11.678  0.0000E+00  0.2000E+02
    -11.487  0.0000E+00  0.2000E+02
    -11.295  0.0000E+00  0.2000E+02
    -11.104  0.0000E+00  0.2000E+02
    -10.913  0.0000E+00  0.2000E+02
    -10.722  0.0000E+00  0.2000E+02
    -10.531  0.0000E+00  0.2000E+02
    -10.339  0.0000E+00  0.2000E+02
    -10.148  0.0000E+00  0.2000E+02
     -9.957  0.0000E+00  0.2000E+02
     -9.766  0.0000E+00  0.2000E+02
     -9.575  0.0000E+00  0.2000E+02
     -9.384  0.0000E+00  0.2000E+02
     -9.192  0.0000E+00  0.2000E+02
     -9.001  0.0000E+00  0.2000E+02
     -8.810  0.0000E+00  0.2000E+02
     -8.619  0.0000E+00  0.2000E+02
     -8.428  0.0000E+00  0.2000E+02
     -8.236  0.0000E+00  0.2000E+02
     -8.045  0.0000E+00  0.2000E+02
     -7.854  0.0000E+00  0.2000E+02
     -7.663  0.0000E+00  0.2000E+02
     -7.472  0.0000E+00  0.2000E+02
     -7.281  0.0000E+00  0.2000E+02
     -7.089  0.0000E+00  0.2000E+02
     -6.898  0.0000E+00  0.2000E+02
     -6.707  0.0000E+00  0.2000E+02
     -6.516  0.0000E+00  0.2000E+02
     -6.325  0.0000E+00  0.2000E+02
     -6.133  0.0000E+00  0.2000E+02
     -5.942  0.0000E+00  0.2000E+02
     -5.751  0.0000E+00  0.2000E+02
     -5.560  0.0000E+00  0.2000E+02
     -5.369  0.6495E-05  0.2000E+02
     -5.178  0.2421E-01  0.2000E+02
     -4.986  0.2804E+00  0.2006E+02
     -4.795  0.2802E+00  0.2011E+02
     -4.604  0.6207E+00  0.2023E+02
     -4.413  0.3472E+00  0.2030E+02
     -4.222  0.9198E+00  0.2047E+02
     -4.030  0.7219E+00  0.2061E+02
     -3.839  0.7041E+00  0.2075E+02
     -3.648  0.1807E+01  0.2109E+02
     -3.457  0.7456E+00  0.2123E+02
     -3.266  0.1370E+01  0.2150E+02
     -3.075  0.5071E+00  0.2159E+02
     -2.883  0.1418E+01  0.2186E+02
     -2.692  0.2849E+00  0.2192E+02
     -2.501  0.1380E-02  0.2192E+02
     -2.310  0.8127E+00  0.2207E+02
     -2.119  0.4517E-01  0.2208E+02
     -1.927  0.1656E+00  0.2211E+02
     -1.736  0.9163E+00  0.2229E+02
     -1.545  0.6512E+00  0.2241E+02
     -1.354  0.1023E+01  0.2261E+02
     -1.163  0.1033E+01  0.2281E+02
     -0.972  0.9855E+00  0.2299E+02
     -0.780  0.1158E+01  0.2322E+02
     -0.589  0.5309E+00  0.2332E+02
     -0.398  0.2793E+00  0.2337E+02
     -0.207  0.6789E+00  0.2350E+02
     -0.016  0.3010E+00  0.2356E+02
      0.176  0.1930E-01  0.2356E+02
      0.367  0.9608E+00  0.2375E+02
      0.558  0.6499E-03  0.2375E+02
      0.749  0.1163E+00  0.2377E+02
      0.940  0.1613E+00  0.2380E+02
      1.131  0.5579E-01  0.2381E+02
      1.323  0.4430E+00  0.2389E+02
      1.514  0.5550E-02  0.2390E+02
      1.705  0.2396E+00  0.2394E+02
      1.896  0.7569E+00  0.2409E+02
      2.087  0.1478E+01  0.2437E+02
      2.279  0.1456E+01  0.2465E+02
      2.470  0.2552E+01  0.2513E+02
      2.661  0.4254E+00  0.2522E+02
      2.852  0.2655E+01  0.2572E+02
      3.043  0.2309E+01  0.2617E+02
      3.234  0.1625E+01  0.2648E+02
      3.426  0.1986E+01  0.2686E+02
      3.617  0.7667E+00  0.2700E+02
      3.808  0.1916E+01  0.2737E+02
      3.999  0.1552E+01  0.2767E+02
      4.190  0.1325E+00  0.2769E+02
      4.381  0.9973E+00  0.2788E+02
      4.573  0.1271E-01  0.2788E+02
      4.764  0.6309E+00  0.2800E+02
      4.955  0.2113E+00  0.2804E+02
      5.146  0.1925E+00  0.2808E+02
      5.337  0.1583E+00  0.2811E+02
      5.529  0.9040E-02  0.2811E+02
      5.720  0.2447E+00  0.2816E+02
      5.911  0.2195E+01  0.2858E+02
      6.102  0.1245E+01  0.2882E+02
      6.293  0.1782E+01  0.2916E+02
      6.484  0.3173E+00  0.2922E+02
      6.676  0.2932E+01  0.2978E+02
      6.867  0.2149E+01  0.3019E+02
      7.058  0.2058E+01  0.3058E+02
      7.249  0.1155E-01  0.3059E+02
      7.440  0.4319E+00  0.3067E+02
      7.632  0.1117E+01  0.3088E+02
      7.823  0.1258E+01  0.3112E+02
      8.014  0.1819E+01  0.3147E+02
      8.205  0.3287E+01  0.3210E+02
      8.396  0.5212E+00  0.3220E+02
      8.587  0.1307E+01  0.3245E+02
      8.779  0.1949E+01  0.3282E+02
      8.970  0.2606E+01  0.3332E+02
      9.161  0.1400E+01  0.3359E+02
      9.352  0.1763E+01  0.3392E+02
      9.543  0.2394E+01  0.3438E+02
      9.735  0.2801E+00  0.3444E+02
      9.926  0.1291E+01  0.3468E+02
     10.117  0.1307E+01  0.3493E+02
     10.308  0.9918E+00  0.3512E+02
     10.499  0.1098E+01  0.3533E+02
     10.690  0.1523E+01  0.3562E+02
     10.882  0.1161E+01  0.3584E+02
     11.073  0.1104E+01  0.3606E+02
     11.264  0.2211E+01  0.3648E+02
     11.455  0.1712E+01  0.3681E+02
     11.646  0.6459E+00  0.3693E+02
     11.838  0.2338E+01  0.3738E+02
     12.029  0.2343E+01  0.3782E+02
     12.220  0.1954E+01  0.3820E+02
     12.411  0.1306E+01  0.3845E+02
     12.602  0.1967E+01  0.3882E+02
     12.793  0.1978E+01  0.3920E+02
     12.985  0.1005E+01  0.3939E+02
     13.176  0.2249E+01  0.3982E+02
     13.367  0.1763E+01  0.4016E+02
     13.558  0.2091E+01  0.4056E+02
     13.749  0.2686E+01  0.4107E+02
     13.941  0.2305E+01  0.4151E+02
     14.132  0.1978E+01  0.4189E+02
     14.323  0.2699E+01  0.4241E+02
     14.514  0.1774E+01  0.4275E+02
     14.705  0.2087E+01  0.4315E+02
     14.896  0.1461E+01  0.4343E+02
     15.088  0.2352E+01  0.4388E+02
     15.279  0.1913E+01  0.4424E+02
     15.470  0.9815E+00  0.4443E+02
     15.661  0.1002E+01  0.4462E+02
     15.852  0.1105E+01  0.4483E+02
     16.044  0.2758E+01  0.4536E+02
     16.235  0.1328E+01  0.4561E+02
     16.426  0.1766E+01  0.4595E+02
     16.617  0.1392E+01  0.4622E+02
     16.808  0.3385E+01  0.4686E+02
     16.999  0.2390E+01  0.4732E+02
     17.191  0.2759E+01  0.4785E+02
     17.382  0.1983E+01  0.4823E+02
     17.573  0.2180E+01  0.4864E+02
     17.764  0.1238E+01  0.4888E+02
     17.955  0.3164E+01  0.4949E+02
     18.147  0.2095E+01  0.4989E+02
     18.338  0.1881E+01  0.5025E+02
     18.529  0.3034E+01  0.5083E+02
     18.720  0.2022E+01  0.5121E+02
     18.911  0.2932E+01  0.5177E+02
     19.102  0.2476E+01  0.5225E+02
     19.294  0.2423E+01  0.5271E+02
     19.485  0.1351E+01  0.5297E+02
     19.676  0.4185E+01  0.5377E+02
     19.867  0.2122E+01  0.5417E+02
     20.058  0.2060E+01  0.5457E+02
     20.250  0.2207E+01  0.5499E+02
     20.441  0.1360E+01  0.5525E+02
     20.632  0.1745E+01  0.5558E+02
     20.823  0.1598E+01  0.5589E+02
     21.014  0.2014E+01  0.5627E+02
     21.205  0.4221E+01  0.5708E+02
     21.397  0.2408E+01  0.5754E+02
     21.588  0.3736E+01  0.5826E+02
     21.779  0.8524E+00  0.5842E+02
     21.970  0.3511E+01  0.5909E+02
     22.161  0.1483E+01  0.5937E+02
     22.353  0.3729E+01  0.6009E+02
     22.544  0.1953E+01  0.6046E+02
     22.735  0.4224E+01  0.6127E+02
     22.926  0.3585E+01  0.6195E+02
     23.117  0.2948E+01  0.6252E+02
     23.308  0.2184E+01  0.6293E+02
     23.500  0.3222E+01  0.6355E+02
     23.691  0.3254E+01  0.6417E+02
     23.882  0.4431E+01  0.6502E+02
     24.073  0.1830E+01  0.6537E+02
     24.264  0.1912E+01  0.6573E+02
     24.455  0.1702E+01  0.6606E+02
     24.647  0.2272E+01  0.6649E+02
     24.838  0.2883E+01  0.6704E+02
     25.029  0.2690E+01  0.6756E+02
     25.220  0.2517E+01  0.6804E+02
     25.411  0.1031E+01  0.6824E+02
     25.603  0.3734E+01  0.6895E+02
     25.794  0.3147E+01  0.6955E+02
     25.985  0.2022E+01  0.6994E+02
     26.176  0.2851E+01  0.7048E+02
     26.367  0.2248E+01  0.7091E+02
     26.558  0.3222E+01  0.7153E+02
     26.750  0.2366E+01  0.7198E+02
     26.941  0.3033E+01  0.7256E+02
     27.132  0.2371E+01  0.7302E+02
     27.323  0.1872E+01  0.7337E+02
     27.514  0.4541E+01  0.7424E+02
     27.706  0.2806E+01  0.7478E+02
     27.897  0.2391E+01  0.7524E+02
     28.088  0.2554E+01  0.7572E+02
     28.279  0.3972E+01  0.7648E+02
     28.470  0.2294E+01  0.7692E+02
     28.661  0.3224E+01  0.7754E+02
     28.853  0.3135E+01  0.7814E+02
     29.044  0.4013E+01  0.7890E+02
     29.235  0.5637E+01  0.7998E+02
     29.426  0.2679E+01  0.8049E+02
     29.617  0.3142E+01  0.8109E+02
     29.809  0.6883E+01  0.8241E+02
     30.000  0.3350E+01  0.8305E+02
     30.191  0.3855E+00  0.8312E+02
     30.382  0.1455E+01  0.8340E+02
     30.573  0.1363E+01  0.8366E+02
     30.764  0.1879E+01  0.8402E+02
     30.956  0.1211E+01  0.8425E+02
     31.147  0.2507E+01  0.8473E+02
     31.338  0.3803E+01  0.8546E+02
     31.529  0.2661E+01  0.8597E+02
     31.720  0.6257E+01  0.8717E+02
     31.912  0.2446E+01  0.8763E+02
     32.103  0.2804E+01  0.8817E+02
     32.294  0.3637E+01  0.8887E+02
     32.485  0.3848E+01  0.8960E+02
     32.676  0.3686E+01  0.9031E+02
     32.867  0.3873E+01  0.9105E+02
     33.059  0.2645E+01  0.9155E+02
     33.250  0.1527E+01  0.9184E+02
     33.441  0.2982E+01  0.9241E+02
     33.632  0.3613E+01  0.9310E+02
     33.823  0.4283E+01  0.9392E+02
     34.015  0.3256E+01  0.9455E+02
     34.206  0.8062E+00  0.9470E+02
     34.397  0.6003E+00  0.9481E+02
     34.588  0.1600E+01  0.9512E+02
     34.779  0.1461E+01  0.9540E+02
     34.970  0.1329E+01  0.9565E+02
     35.162  0.1301E+01  0.9590E+02
     35.353  0.3572E-01  0.9591E+02
     35.544  0.4750E+00  0.9600E+02
     35.735  0.1031E-03  0.9600E+02
     35.926  0.0000E+00  0.9600E+02
     36.118  0.0000E+00  0.9600E+02
     36.309  0.0000E+00  0.9600E+02
     36.500  0.0000E+00  0.9600E+02
     36.691  0.0000E+00  0.9600E+02
     36.882  0.0000E+00  0.9600E+02
     37.073  0.0000E+00  0.9600E+02
     37.265  0.0000E+00  0.9600E+02
     37.456  0.0000E+00  0.9600E+02
     37.647  0.0000E+00  0.9600E+02
     37.838  0.0000E+00  0.9600E+02
     38.029  0.0000E+00  0.9600E+02
