    2    2    1    1
  0.3685877E+02  0.4706470E-09  0.4706470E-09  0.4706470E-09  0.5000000E-15
  1.000000000000000E-004
  CAR 
 Sn                                      
     28     29     48
 
  0.0000000E+00  0.0000000E+00  0.0000000E+00  0.1953125E-02
      1        -16.658086   1.000000
      2        -16.658063   1.000000
      3        -16.658063   1.000000
      4        -16.609393   1.000000
      5        -16.609393   1.000000
      6        -16.356059   1.000000
      7        -16.356035   1.000000
      8        -16.356035   1.000000
      9        -16.354631   1.000000
     10        -16.354631   1.000000
     11         -5.247970   1.000000
     12          3.717316   1.000000
     13          4.958028   0.000000
     14          4.958028   0.000000
     15          4.958086   0.000000
     16          7.017710   0.000000
     17          7.017710   0.000000
     18          7.017750   0.000000
     19          9.835546   0.000000
     20         12.654443   0.000000
     21         12.654443   0.000000
     22         13.155521   0.000000
     23         13.155546   0.000000
     24         13.155546   0.000000
     25         15.538741   0.000000
     26         22.312562   0.000000
     27         22.312706   0.000000
     28         22.312706   0.000000
     29         24.251759   0.000000
     30         24.251760   0.000000
     31         24.251802   0.000000
     32         25.459428   0.000000
     33         25.459443   0.000000
     34         25.459443   0.000000
     35         25.785114   0.000000
     36         25.785114   0.000000
     37         29.685034   0.000000
     38         30.404824   0.000000
     39         31.581365   0.000000
     40         31.581365   0.000000
     41         31.581469   0.000000
     42         32.022782   0.000000
     43         32.022782   0.000000
     44         32.022857   0.000000
     45         32.643247   0.000000
     46         32.643423   0.000000
     47         32.643423   0.000000
     48         35.279244   0.000000
 
  0.1250000E+00  0.1688338E-16  0.0000000E+00  0.1562500E-01
      1        -16.666698   1.000000
      2        -16.666674   1.000000
      3        -16.655039   1.000000
      4        -16.596968   1.000000
      5        -16.596964   1.000000
      6        -16.376753   1.000000
      7        -16.376751   1.000000
      8        -16.359785   1.000000
      9        -16.335731   1.000000
     10        -16.335712   1.000000
     11         -5.108665   1.000000
     12          2.539232   1.000000
     13          4.705670   0.914454
     14          4.705725   0.914210
     15          5.280495   0.000000
     16          7.348785   0.000000
     17          7.348812   0.000000
     18          7.586789   0.000000
     19         10.529968   0.000000
     20         11.888625   0.000000
     21         11.888628   0.000000
     22         12.709455   0.000000
     23         14.424731   0.000000
     24         14.424744   0.000000
     25         16.526237   0.000000
     26         20.948461   0.000000
     27         20.948544   0.000000
     28         21.932108   0.000000
     29         22.405801   0.000000
     30         23.829926   0.000000
     31         23.829983   0.000000
     32         25.685578   0.000000
     33         25.685609   0.000000
     34         26.963868   0.000000
     35         27.782465   0.000000
     36         27.782511   0.000000
     37         28.918530   0.000000
     38         29.697469   0.000000
     39         29.697545   0.000000
     40         31.103419   0.000000
     41         31.103454   0.000000
     42         31.146075   0.000000
     43         31.352008   0.000000
     44         31.491076   0.000000
     45         31.791151   0.000000
     46         33.292168   0.000000
     47         33.292259   0.000000
     48         33.570141   0.000000
 
  0.2500000E+00  0.3376677E-16  0.0000000E+00  0.1562500E-01
      1        -16.679049   1.000000
      2        -16.679019   1.000000
      3        -16.647238   1.000000
      4        -16.577127   1.000000
      5        -16.577116   1.000000
      6        -16.395354   1.000000
      7        -16.395348   1.000000
      8        -16.369394   1.000000
      9        -16.321783   1.000000
     10        -16.321753   1.000000
     11         -4.707561   1.000000
     12          0.882702   1.000000
     13          4.280921   1.000000
     14          4.280981   1.000000
     15          5.075332   0.000000
     16          7.857114   0.000000
     17          7.857118   0.000000
     18          9.086094   0.000000
     19         11.129505   0.000000
     20         11.676443   0.000000
     21         11.676457   0.000000
     22         13.233918   0.000000
     23         16.283192   0.000000
     24         16.283201   0.000000
     25         18.498185   0.000000
     26         18.550430   0.000000
     27         18.550488   0.000000
     28         19.214137   0.000000
     29         22.651652   0.000000
     30         24.180233   0.000000
     31         24.180301   0.000000
     32         25.809906   0.000000
     33         25.809921   0.000000
     34         26.427851   0.000000
     35         26.978321   0.000000
     36         26.978345   0.000000
     37         27.856915   0.000000
     38         29.601981   0.000000
     39         29.779325   0.000000
     40         29.779342   0.000000
     41         29.934520   0.000000
     42         30.687992   0.000000
     43         30.904160   0.000000
     44         30.904241   0.000000
     45         31.494568   0.000000
     46         31.494644   0.000000
     47         32.369924   0.000000
     48         34.010223   0.000000
 
  0.3750000E+00 -0.9838143E-17  0.0000000E+00  0.1562500E-01
      1        -16.685976   1.000000
      2        -16.685942   1.000000
      3        -16.638473   1.000000
      4        -16.563776   1.000000
      5        -16.563759   1.000000
      6        -16.406221   1.000000
      7        -16.406208   1.000000
      8        -16.379177   1.000000
      9        -16.314353   1.000000
     10        -16.314315   1.000000
     11         -4.134351   1.000000
     12         -0.516426   1.000000
     13          3.973236   1.000000
     14          3.973300   1.000000
     15          4.820636   0.029848
     16          8.054660   0.000000
     17          8.054678   0.000000
     18         10.582133   0.000000
     19         11.169093   0.000000
     20         12.424552   0.000000
     21         12.424585   0.000000
     22         14.533902   0.000000
     23         16.286899   0.000000
     24         16.286944   0.000000
     25         17.592120   0.000000
     26         18.442370   0.000000
     27         18.442373   0.000000
     28         21.040348   0.000000
     29         22.945631   0.000000
     30         23.345639   0.000000
     31         23.780248   0.000000
     32         23.780276   0.000000
     33         24.861270   0.000000
     34         24.861328   0.000000
     35         26.510150   0.000000
     36         26.510175   0.000000
     37         27.087211   0.000000
     38         28.072826   0.000000
     39         28.757882   0.000000
     40         28.757886   0.000000
     41         28.800813   0.000000
     42         29.520725   0.000000
     43         29.829114   0.000000
     44         29.829198   0.000000
     45         31.877414   0.000000
     46         33.560800   0.000000
     47         33.560893   0.000000
     48         34.204190   0.000000
 
  0.5000000E+00  0.6753353E-16  0.0000000E+00  0.7812500E-02
      1        -16.687564   1.000000
      2        -16.687529   1.000000
      3        -16.635156   1.000000
      4        -16.559689   1.000000
      5        -16.559670   1.000000
      6        -16.408957   1.000000
      7        -16.408941   1.000000
      8        -16.383526   1.000000
      9        -16.312003   1.000000
     10        -16.311962   1.000000
     11         -3.773004   1.000000
     12         -1.161706   1.000000
     13          3.864996   1.000000
     14          3.865061   1.000000
     15          4.725861   0.787456
     16          8.067496   0.000000
     17          8.067520   0.000000
     18         10.559833   0.000000
     19         13.062284   0.000000
     20         13.087295   0.000000
     21         13.433939   0.000000
     22         13.433983   0.000000
     23         14.822172   0.000000
     24         14.822209   0.000000
     25         18.788469   0.000000
     26         20.313203   0.000000
     27         20.313207   0.000000
     28         20.994952   0.000000
     29         21.723048   0.000000
     30         21.723069   0.000000
     31         23.088551   0.000000
     32         23.798696   0.000000
     33         24.176509   0.000000
     34         25.212884   0.000000
     35         25.212943   0.000000
     36         26.751888   0.000000
     37         26.751909   0.000000
     38         28.143802   0.000000
     39         28.273635   0.000000
     40         28.273639   0.000000
     41         28.373895   0.000000
     42         29.108811   0.000000
     43         29.108900   0.000000
     44         29.229783   0.000000
     45         31.694677   0.000000
     46         33.923574   0.000000
     47         33.923625   0.000000
     48         34.340167   0.000000
 
  0.1250000E+00  0.1250000E+00  0.0000000E+00  0.1171875E-01
      1        -16.665263   1.000000
      2        -16.665248   1.000000
      3        -16.663713   1.000000
      4        -16.599257   1.000000
      5        -16.583939   1.000000
      6        -16.400752   1.000000
      7        -16.363860   1.000000
      8        -16.346151   1.000000
      9        -16.346135   1.000000
     10        -16.332420   1.000000
     11         -5.061222   1.000000
     12          2.408206   1.000000
     13          4.316657   1.000000
     14          4.316690   1.000000
     15          6.152513   0.000000
     16          6.549240   0.000000
     17          7.894974   0.000000
     18          7.895007   0.000000
     19         10.745881   0.000000
     20         10.982195   0.000000
     21         12.823842   0.000000
     22         13.538504   0.000000
     23         13.538521   0.000000
     24         14.356067   0.000000
     25         17.093327   0.000000
     26         20.907001   0.000000
     27         21.070501   0.000000
     28         21.070552   0.000000
     29         22.222409   0.000000
     30         23.393556   0.000000
     31         23.393605   0.000000
     32         25.561059   0.000000
     33         26.994588   0.000000
     34         27.464422   0.000000
     35         27.873031   0.000000
     36         27.873044   0.000000
     37         28.539803   0.000000
     38         29.380514   0.000000
     39         29.380541   0.000000
     40         30.663615   0.000000
     41         30.814538   0.000000
     42         30.814615   0.000000
     43         30.913747   0.000000
     44         31.658314   0.000000
     45         32.609305   0.000000
     46         32.945824   0.000000
     47         33.224529   0.000000
     48         33.224601   0.000000
 
  0.2500000E+00  0.1250000E+00  0.0000000E+00  0.4687500E-01
      1        -16.681629   1.000000
      2        -16.675185   1.000000
      3        -16.652248   1.000000
      4        -16.583410   1.000000
      5        -16.561217   1.000000
      6        -16.425041   1.000000
      7        -16.381876   1.000000
      8        -16.353558   1.000000
      9        -16.330699   1.000000
     10        -16.318413   1.000000
     11         -4.742904   1.000000
     12          1.177441   1.000000
     13          3.790722   1.000000
     14          3.887177   1.000000
     15          6.253816   0.000000
     16          6.844648   0.000000
     17          8.533186   0.000000
     18          8.759665   0.000000
     19         10.782491   0.000000
     20         11.763401   0.000000
     21         12.556887   0.000000
     22         13.414553   0.000000
     23         14.955054   0.000000
     24         15.902947   0.000000
     25         18.504433   0.000000
     26         18.769206   0.000000
     27         18.906319   0.000000
     28         21.226881   0.000000
     29         21.551739   0.000000
     30         22.185905   0.000000
     31         23.645940   0.000000
     32         26.172227   0.000000
     33         26.354481   0.000000
     34         27.311116   0.000000
     35         27.472992   0.000000
     36         27.966876   0.000000
     37         28.614031   0.000000
     38         28.916381   0.000000
     39         29.055820   0.000000
     40         29.116664   0.000000
     41         29.658260   0.000000
     42         30.715632   0.000000
     43         30.885539   0.000000
     44         31.231503   0.000000
     45         31.510430   0.000000
     46         32.316978   0.000000
     47         33.450667   0.000000
     48         33.989737   0.000000
 
  0.3750000E+00  0.1250000E+00  0.0000000E+00  0.4687500E-01
      1        -16.694954   1.000000
      2        -16.684513   1.000000
      3        -16.633951   1.000000
      4        -16.565212   1.000000
      5        -16.546013   1.000000
      6        -16.436816   1.000000
      7        -16.400563   1.000000
      8        -16.373927   1.000000
      9        -16.317463   1.000000
     10        -16.304077   1.000000
     11         -4.206282   1.000000
     12         -0.197194   1.000000
     13          3.254433   1.000000
     14          3.633967   1.000000
     15          5.967583   0.000000
     16          7.553880   0.000000
     17          8.739278   0.000000
     18          9.435669   0.000000
     19         11.671949   0.000000
     20         12.234548   0.000000
     21         13.026922   0.000000
     22         14.286592   0.000000
     23         16.167574   0.000000
     24         16.878892   0.000000
     25         16.971821   0.000000
     26         18.138896   0.000000
     27         19.210367   0.000000
     28         21.073943   0.000000
     29         21.603058   0.000000
     30         22.575873   0.000000
     31         23.344754   0.000000
     32         24.142168   0.000000
     33         24.982962   0.000000
     34         25.538501   0.000000
     35         26.616745   0.000000
     36         26.873671   0.000000
     37         26.890543   0.000000
     38         28.440094   0.000000
     39         28.632093   0.000000
     40         28.931597   0.000000
     41         29.240863   0.000000
     42         29.776051   0.000000
     43         30.439753   0.000000
     44         31.971245   0.000000
     45         32.069794   0.000000
     46         32.223735   0.000000
     47         33.429745   0.000000
     48         33.433757   0.000000
 
  0.5000000E+00  0.1250000E+00  0.0000000E+00  0.4687500E-01
      1        -16.701119   1.000000
      2        -16.690562   1.000000
      3        -16.619502   1.000000
      4        -16.551287   1.000000
      5        -16.546887   1.000000
      6        -16.430017   1.000000
      7        -16.416177   1.000000
      8        -16.393269   1.000000
      9        -16.308872   1.000000
     10        -16.298001   1.000000
     11         -3.692886   1.000000
     12         -1.128721   1.000000
     13          2.909487   1.000000
     14          3.617500   1.000000
     15          5.774457   0.000000
     16          7.870574   0.000000
     17          8.582936   0.000000
     18         10.518023   0.000000
     19         11.915758   0.000000
     20         13.154949   0.000000
     21         13.489390   0.000000
     22         13.841333   0.000000
     23         14.999528   0.000000
     24         16.676603   0.000000
     25         18.469037   0.000000
     26         19.263560   0.000000
     27         19.913149   0.000000
     28         21.124886   0.000000
     29         21.903211   0.000000
     30         22.016871   0.000000
     31         23.061336   0.000000
     32         23.181280   0.000000
     33         23.872547   0.000000
     34         24.570998   0.000000
     35         25.496052   0.000000
     36         25.691332   0.000000
     37         25.971871   0.000000
     38         27.437833   0.000000
     39         28.375956   0.000000
     40         28.645062   0.000000
     41         29.008079   0.000000
     42         29.071359   0.000000
     43         30.335406   0.000000
     44         31.489659   0.000000
     45         32.079227   0.000000
     46         32.601395   0.000000
     47         32.864604   0.000000
     48         34.999170   0.000000
 
 -0.3750000E+00  0.1250000E+00  0.0000000E+00  0.4687500E-01
      1        -16.698710   1.000000
      2        -16.692421   1.000000
      3        -16.618228   1.000000
      4        -16.558921   1.000000
      5        -16.545545   1.000000
      6        -16.425078   1.000000
      7        -16.409742   1.000000
      8        -16.400181   1.000000
      9        -16.305678   1.000000
     10        -16.301715   1.000000
     11         -3.830889   1.000000
     12         -0.902506   1.000000
     13          2.824860   1.000000
     14          3.835353   1.000000
     15          5.753256   0.000000
     16          8.071584   0.000000
     17          8.337244   0.000000
     18         10.577035   0.000000
     19         11.796293   0.000000
     20         12.100995   0.000000
     21         13.208906   0.000000
     22         14.443592   0.000000
     23         15.992491   0.000000
     24         16.624838   0.000000
     25         17.597177   0.000000
     26         18.697754   0.000000
     27         20.147881   0.000000
     28         21.843480   0.000000
     29         21.895058   0.000000
     30         22.281886   0.000000
     31         22.577852   0.000000
     32         23.259279   0.000000
     33         23.766186   0.000000
     34         24.458748   0.000000
     35         25.788202   0.000000
     36         25.998976   0.000000
     37         26.738648   0.000000
     38         27.516437   0.000000
     39         28.521670   0.000000
     40         28.611203   0.000000
     41         29.114901   0.000000
     42         29.264967   0.000000
     43         30.676487   0.000000
     44         31.558662   0.000000
     45         31.593009   0.000000
     46         32.485889   0.000000
     47         33.009102   0.000000
     48         34.766633   0.000000
 
 -0.2500000E+00  0.1250000E+00  0.0000000E+00  0.4687500E-01
      1        -16.688920   1.000000
      2        -16.688351   1.000000
      3        -16.632265   1.000000
      4        -16.573205   1.000000
      5        -16.554511   1.000000
      6        -16.420041   1.000000
      7        -16.400779   1.000000
      8        -16.377909   1.000000
      9        -16.315517   1.000000
     10        -16.308785   1.000000
     11         -4.406514   1.000000
     12          0.242102   1.000000
     13          3.051981   1.000000
     14          4.233472   1.000000
     15          5.865406   0.000000
     16          7.960883   0.000000
     17          8.123774   0.000000
     18          9.317106   0.000000
     19         11.174816   0.000000
     20         11.755875   0.000000
     21         12.959633   0.000000
     22         14.030445   0.000000
     23         15.839680   0.000000
     24         16.421078   0.000000
     25         18.037650   0.000000
     26         18.813410   0.000000
     27         19.123694   0.000000
     28         20.058365   0.000000
     29         21.485190   0.000000
     30         22.558616   0.000000
     31         23.869104   0.000000
     32         24.896757   0.000000
     33         24.992097   0.000000
     34         26.391269   0.000000
     35         26.758948   0.000000
     36         26.792180   0.000000
     37         27.925515   0.000000
     38         28.180310   0.000000
     39         29.087988   0.000000
     40         29.257732   0.000000
     41         29.770014   0.000000
     42         30.572512   0.000000
     43         31.016291   0.000000
     44         31.271670   0.000000
     45         31.579243   0.000000
     46         32.331734   0.000000
     47         32.356646   0.000000
     48         32.730459   0.000000
 
 -0.1250000E+00  0.1250000E+00  0.0000000E+00  0.2343750E-01
      1        -16.678904   1.000000
      2        -16.673028   1.000000
      3        -16.649110   1.000000
      4        -16.588341   1.000000
      5        -16.576115   1.000000
      6        -16.400837   1.000000
      7        -16.387783   1.000000
      8        -16.354723   1.000000
      9        -16.335975   1.000000
     10        -16.319243   1.000000
     11         -4.880139   1.000000
     12          1.584590   1.000000
     13          3.693276   1.000000
     14          4.649086   0.998507
     15          5.824232   0.000000
     16          7.446162   0.000000
     17          7.548237   0.000000
     18          8.595126   0.000000
     19         11.165591   0.000000
     20         11.377109   0.000000
     21         11.772479   0.000000
     22         13.800763   0.000000
     23         14.015570   0.000000
     24         16.061045   0.000000
     25         17.856598   0.000000
     26         18.544741   0.000000
     27         21.125486   0.000000
     28         21.145428   0.000000
     29         21.494556   0.000000
     30         22.313827   0.000000
     31         23.539195   0.000000
     32         26.196655   0.000000
     33         27.165887   0.000000
     34         27.557557   0.000000
     35         27.704561   0.000000
     36         28.153265   0.000000
     37         28.754079   0.000000
     38         28.813630   0.000000
     39         29.178322   0.000000
     40         29.264361   0.000000
     41         29.963707   0.000000
     42         30.289061   0.000000
     43         31.014764   0.000000
     44         31.726205   0.000000
     45         32.241153   0.000000
     46         32.407162   0.000000
     47         32.432017   0.000000
     48         33.268248   0.000000
 
  0.2500000E+00  0.2500000E+00  0.0000000E+00  0.1171875E-01
      1        -16.681183   1.000000
      2        -16.681167   1.000000
      3        -16.659281   1.000000
      4        -16.571251   1.000000
      5        -16.532513   1.000000
      6        -16.461557   1.000000
      7        -16.391117   1.000000
      8        -16.336072   1.000000
      9        -16.324393   1.000000
     10        -16.324377   1.000000
     11         -4.507199   1.000000
     12          0.691401   1.000000
     13          3.439298   1.000000
     14          3.439328   1.000000
     15          5.920825   0.000000
     16          6.874359   0.000000
     17          9.455433   0.000000
     18          9.455473   0.000000
     19         10.475400   0.000000
     20         12.624574   0.000000
     21         13.333749   0.000000
     22         14.684820   0.000000
     23         14.684835   0.000000
     24         15.422699   0.000000
     25         18.563056   0.000000
     26         18.563082   0.000000
     27         18.820252   0.000000
     28         19.689712   0.000000
     29         20.392625   0.000000
     30         23.786809   0.000000
     31         23.786873   0.000000
     32         25.605202   0.000000
     33         25.734839   0.000000
     34         25.810759   0.000000
     35         25.810764   0.000000
     36         27.321044   0.000000
     37         27.865802   0.000000
     38         29.144544   0.000000
     39         29.144631   0.000000
     40         29.566385   0.000000
     41         30.290311   0.000000
     42         31.614275   0.000000
     43         31.614320   0.000000
     44         31.806271   0.000000
     45         31.806299   0.000000
     46         32.098524   0.000000
     47         32.542337   0.000000
     48         33.774849   0.000000
 
  0.3750000E+00  0.2500000E+00  0.0000000E+00  0.4687500E-01
      1        -16.696765   1.000000
      2        -16.689161   1.000000
      3        -16.637161   1.000000
      4        -16.551142   1.000000
      5        -16.508401   1.000000
      6        -16.485921   1.000000
      7        -16.411314   1.000000
      8        -16.362008   1.000000
      9        -16.312008   1.000000
     10        -16.302835   1.000000
     11         -4.028099   1.000000
     12         -0.295458   1.000000
     13          2.847611   1.000000
     14          3.168199   1.000000
     15          6.094480   0.000000
     16          6.968302   0.000000
     17          9.460477   0.000000
     18          9.962293   0.000000
     19         11.959265   0.000000
     20         13.331465   0.000000
     21         13.722071   0.000000
     22         14.804431   0.000000
     23         16.066807   0.000000
     24         16.327477   0.000000
     25         16.780981   0.000000
     26         17.385085   0.000000
     27         19.098669   0.000000
     28         19.597990   0.000000
     29         22.217635   0.000000
     30         22.315948   0.000000
     31         23.025124   0.000000
     32         23.843941   0.000000
     33         24.612698   0.000000
     34         24.696000   0.000000
     35         25.803112   0.000000
     36         26.898652   0.000000
     37         27.163395   0.000000
     38         27.688736   0.000000
     39         29.085776   0.000000
     40         29.585344   0.000000
     41         29.991902   0.000000
     42         30.435917   0.000000
     43         31.194149   0.000000
     44         31.549889   0.000000
     45         32.712994   0.000000
     46         33.045760   0.000000
     47         33.630094   0.000000
     48         33.694794   0.000000
 
  0.5000000E+00  0.2500000E+00  0.0000000E+00  0.4687500E-01
      1        -16.711380   1.000000
      2        -16.695531   1.000000
      3        -16.608063   1.000000
      4        -16.531096   1.000000
      5        -16.507428   1.000000
      6        -16.484516   1.000000
      7        -16.433698   1.000000
      8        -16.394013   1.000000
      9        -16.302729   1.000000
     10        -16.286347   1.000000
     11         -3.442074   1.000000
     12         -1.223397   1.000000
     13          2.222662   1.000000
     14          3.147972   1.000000
     15          6.137523   0.000000
     16          8.051199   0.000000
     17          9.313059   0.000000
     18          9.825774   0.000000
     19         12.677940   0.000000
     20         13.699759   0.000000
     21         13.758677   0.000000
     22         14.319512   0.000000
     23         15.378508   0.000000
     24         17.637849   0.000000
     25         18.195439   0.000000
     26         19.216782   0.000000
     27         19.429547   0.000000
     28         19.545035   0.000000
     29         20.427909   0.000000
     30         21.228946   0.000000
     31         22.935590   0.000000
     32         23.054483   0.000000
     33         23.875779   0.000000
     34         24.747653   0.000000
     35         25.063435   0.000000
     36         25.389225   0.000000
     37         25.859813   0.000000
     38         27.552277   0.000000
     39         27.959262   0.000000
     40         28.945824   0.000000
     41         28.959502   0.000000
     42         29.825649   0.000000
     43         31.450891   0.000000
     44         31.906126   0.000000
     45         32.695764   0.000000
     46         33.316088   0.000000
     47         34.515981   0.000000
     48         34.628984   0.000000
 
 -0.3750000E+00  0.2500000E+00  0.0000000E+00  0.4687500E-01
      1        -16.715477   1.000000
      2        -16.698473   1.000000
      3        -16.594080   1.000000
      4        -16.528040   1.000000
      5        -16.518319   1.000000
      6        -16.459713   1.000000
      7        -16.449740   1.000000
      8        -16.409873   1.000000
      9        -16.298460   1.000000
     10        -16.282650   1.000000
     11         -3.338623   1.000000
     12         -1.362656   1.000000
     13          1.932292   1.000000
     14          3.381343   1.000000
     15          6.205180   0.000000
     16          8.743007   0.000000
     17          9.388670   0.000000
     18         10.057482   0.000000
     19         11.126562   0.000000
     20         12.142813   0.000000
     21         13.877430   0.000000
     22         15.558133   0.000000
     23         17.062783   0.000000
     24         17.189757   0.000000
     25         17.822442   0.000000
     26         19.540768   0.000000
     27         19.643092   0.000000
     28         20.565719   0.000000
     29         21.081258   0.000000
     30         21.177884   0.000000
     31         22.158894   0.000000
     32         22.789839   0.000000
     33         23.557376   0.000000
     34         23.647682   0.000000
     35         24.702229   0.000000
     36         24.866395   0.000000
     37         26.123807   0.000000
     38         27.549567   0.000000
     39         28.237514   0.000000
     40         28.554651   0.000000
     41         29.024579   0.000000
     42         29.831936   0.000000
     43         31.192222   0.000000
     44         31.495411   0.000000
     45         32.165060   0.000000
     46         33.725778   0.000000
     47         34.428828   0.000000
     48         35.023158   0.000000
 
 -0.2500000E+00  0.2500000E+00  0.0000000E+00  0.2343750E-01
      1        -16.706259   1.000000
      2        -16.696442   1.000000
      3        -16.604275   1.000000
      4        -16.557555   1.000000
      5        -16.528643   1.000000
      6        -16.443200   1.000000
      7        -16.416730   1.000000
      8        -16.408510   1.000000