Sn                                      
           1
     4.075923    0.000000    2.353235
     1.358641    3.842817    2.353235
     0.000000    0.000000    4.706470
   Sn
     2
Direct configuration=     1
   0.00000000  0.00000000  0.00000000
   0.25000000  0.25000000  0.25000000
