Ar                                      
   1.00000000000000     
     5.950590    0.000000    0.000000
     0.000000    5.950590    0.000000
     0.000000    0.000000    5.950590
   Ar
     4
Direct
  0.000000  0.000000  0.000000
  0.000000  0.500000  0.500000
  0.500000  0.000000  0.500000
  0.500000  0.500000  0.000000
 
   56   56   56
  78.044      139.75      289.44      445.28      531.98      520.76      432.67      313.86      207.18      130.77    
  80.987      50.083      31.100      19.310      11.996      7.5371      4.7831      3.0133      1.9174      1.2983    
 0.90053     0.57636     0.37626     0.33095     0.31731     0.24658     0.19925     0.24314     0.28565     0.24314    
 0.19925     0.24658     0.31731     0.33095     0.37626     0.57636     0.90053      1.2983      1.9174      3.0133    
  4.7831      7.5371      11.996      19.310      31.100      50.083      80.987      130.77      207.18      313.86    
  432.67      520.76      531.98      445.28      289.44      139.75      139.75      195.23      328.94      465.46    
  535.85      514.81      423.33      305.47      201.53      127.39      79.065      49.005      30.490      18.963    
  11.798      7.4213      4.7153      2.9765      1.8982      1.2857     0.89126     0.57162     0.37230     0.32059    
 0.29852     0.22208     0.16888     0.20482     0.24314     0.20482     0.16888     0.22208     0.29852     0.32059    
 0.37230     0.57162     0.89126      1.2857      1.8982      2.9765      4.7153      7.4213      11.798      18.963    
  30.490      49.005      79.065      127.39      201.53      305.47      423.33      514.81      535.85      465.46    
  328.94      195.23      289.44      328.94      421.75      509.07      538.56      493.66      395.12      281.33    
  185.55      117.84      73.619      45.935      28.743      17.964      11.226      7.0872      4.5194      2.8696    
  1.8423      1.2497     0.86673     0.56293     0.37163     0.31153     0.27877     0.20081     0.14497     0.16888    
 0.19925     0.16888     0.14497     0.20081     0.27877     0.31153     0.37163     0.56293     0.86673      1.2497    
  1.8423      2.8696      4.5194      7.0872      11.226      17.964      28.743      45.935      73.619      117.84    
  185.55      281.33      395.12      493.66      538.56      509.07      421.75      328.94      445.28      465.46    
  509.07      538.15      520.84      451.15      348.90      244.78      161.92      103.71      65.511      41.318    
  26.090      16.433      10.343      6.5711      4.2169      2.7035      1.7547      1.1952     0.83334     0.55793    
 0.38722     0.32943     0.30017     0.24083     0.20081     0.22208     0.24658     0.22208     0.20081     0.24083    
 0.30017     0.32943     0.38722     0.55793     0.83334      1.1952      1.7547      2.7035      4.2169      6.5711    
  10.343      16.433      26.090      41.318      65.511      103.71      161.92      244.78      348.90      451.15    
  520.84      538.15      509.07      465.46      531.98      535.85      538.56      520.84      468.99      385.81    
  289.20      201.51      134.30      87.152      55.894      35.757      22.848      14.541      9.2437      5.9255    
  3.8382      2.4939      1.6433      1.1289     0.79662     0.55661     0.41176     0.35984     0.33733     0.30017    
 0.27877     0.29852     0.31731     0.29852     0.27877     0.30017     0.33733     0.35984     0.41176     0.55661    
 0.79662      1.1289      1.6433      2.4939      3.8382      5.9255      9.2437      14.541      22.848      35.757    
  55.894      87.152      134.30      201.51      289.20      385.81      468.99      520.84      538.56      535.85    
  520.76      514.81      493.66      451.15      385.81      305.48      225.13      157.58      106.39      70.267    
  45.917      29.871      19.354      12.474      8.0294      5.2095      3.4177      2.2590      1.5182      1.0591    
 0.76326     0.55978     0.43777     0.38603     0.35984     0.32943     0.31153     0.32059     0.33095     0.32059    
 0.31153     0.32943     0.35984     0.38603     0.43777     0.55978     0.76326      1.0591      1.5182      2.2590    
  3.4177      5.2095      8.0294      12.474      19.354      29.871      45.917      70.267      106.39      157.58    
  225.13      305.48      385.81      451.15      493.66      514.81      432.67      423.33      395.12      348.90    
  289.20      225.13      166.32      117.85      81.037      54.680      36.489      24.173      15.905      10.402    
  6.7985      4.4797      2.9885      2.0184      1.3919     0.99696     0.74518     0.58095     0.48410     0.43777    
 0.41176     0.38722     0.37163     0.37230     0.37626     0.37230     0.37163     0.38722     0.41176     0.43777    
 0.48410     0.58095     0.74518     0.99696      1.3919      2.0184      2.9885      4.4797      6.7985      10.402    
  15.905      24.173      36.489      54.680      81.037      117.85      166.32      225.13      289.20      348.90    
  395.12      423.33      313.86      305.47      281.33      244.78      201.51      157.58      117.85      85.053    
  59.815      41.317      28.175      19.016      12.721      8.4602      5.6316      3.7838      2.5798      1.7913    
  1.2797     0.95701     0.75852     0.64102     0.58095     0.55978     0.55661     0.55793     0.56293     0.57162    
 0.57636     0.57162     0.56293     0.55793     0.55661     0.55978     0.58095     0.64102     0.75852     0.95701    
  1.2797      1.7913      2.5798      3.7838      5.6316      8.4602      12.721      19.016      28.175      41.317    
  59.815      85.053      117.85      157.58      201.51      244.78      281.33      305.47      207.18      201.53    
  185.55      161.92      134.30      106.39      81.037      59.815      43.095      30.473      21.223      14.594    
  9.9396      6.7402      4.5862      3.1578      2.2159      1.5975      1.2001     0.95720     0.82142     0.75852    
 0.74518     0.76326     0.79662     0.83334     0.86673     0.89126     0.90053     0.89126     0.86673     0.83334    
 0.79662     0.76326     0.74518     0.75852     0.82142     0.95720      1.2001      1.5975      2.2159      3.1578    
  4.5862      6.7402      9.9396      14.594      21.223      30.473      43.095      59.815      81.037      106.39    
  134.30      161.92      185.55      201.53      130.77      127.39      117.84      103.71      87.152      70.267    
  54.680      41.317      30.473      22.025      15.650      10.969      7.6224      5.2887      3.6961      2.6263    
  1.9172      1.4574      1.1747      1.0202     0.95720     0.95701     0.99696      1.0591      1.1289      1.1952    
  1.2497      1.2857      1.2983      1.2857      1.2497      1.1952      1.1289      1.0591     0.99696     0.95701    
 0.95720      1.0202      1.1747      1.4574      1.9172      2.6263      3.6961      5.2887      7.6224      10.969    
  15.650      22.025      30.473      41.317      54.680      70.267      87.152      103.71      117.84      127.39    
  80.987      79.065      73.619      65.511      55.894      45.917      36.489      28.175      21.223      15.650    
  11.339      8.1134      5.7715      4.1170      2.9754      2.2051      1.7017      1.3928      1.2292      1.1747    
  1.2001      1.2797      1.3919      1.5182      1.6433      1.7547      1.8423      1.8982      1.9174      1.8982    
  1.8423      1.7547      1.6433      1.5182      1.3919      1.2797      1.2001      1.1747      1.2292      1.3928    
  1.7017      2.2051      2.9754      4.1170      5.7715      8.1134      11.339      15.650      21.223      28.175    
  36.489      45.917      55.894      65.511      73.619      79.065      50.083      49.005      45.935      41.318    
  35.757      29.871      24.173      19.016      14.594      10.969      8.1134      5.9437      4.3487      3.2112    
  2.4250      1.9046      1.5868      1.4271      1.3928      1.4574      1.5975      1.7913      2.0184      2.2590    
  2.4939      2.7035      2.8696      2.9765      3.0133      2.9765      2.8696      2.7035      2.4939      2.2590    
  2.0184      1.7913      1.5975      1.4574      1.3928      1.4271      1.5868      1.9046      2.4250      3.2112    
  4.3487      5.9437      8.1134      10.969      14.594      19.016      24.173      29.871      35.757      41.318    
  45.935      49.005      31.100      30.490      28.743      26.090      22.848      19.354      15.905      12.721    
  9.9396      7.6224      5.7715      4.3487      3.2946      2.5444      2.0393      1.7328      1.5904      1.5868    
  1.7017      1.9172      2.2159      2.5798      2.9885      3.4177      3.8382      4.2169      4.5194      4.7153    
  4.7831      4.7153      4.5194      4.2169      3.8382      3.4177      2.9885      2.5798      2.2159      1.9172    
  1.7017      1.5868      1.5904      1.7328      2.0393      2.5444      3.2946      4.3487      5.7715      7.6224    
  9.9396      12.721      15.905      19.354      22.848      26.090      28.743      30.490      19.310      18.963    
  17.964      16.433      14.541      12.474      10.402      8.4602      6.7402      5.2887      4.1170      3.2112    
  2.5444      2.0866      1.8113      1.6982      1.7328      1.9046      2.2051      2.6263      3.1578      3.7838    
  4.4797      5.2095      5.9255      6.5711      7.0872      7.4213      7.5371      7.4213      7.0872      6.5711    
  5.9255      5.2095      4.4797      3.7838      3.1578      2.6263      2.2051      1.9046      1.7328      1.6982    
  1.8113      2.0866      2.5444      3.2112      4.1170      5.2887      6.7402      8.4602      10.402      12.474    
  14.541      16.433      17.964      18.963      11.996      11.798      11.226      10.343      9.2437      8.0294    
  6.7985      5.6316      4.5862      3.6961      2.9754      2.4250      2.0393      1.8113      1.7359      1.8113    
  2.0393      2.4250      2.9754      3.6961      4.5862      5.6316      6.7985      8.0294      9.2437      10.343    
  11.226      11.798      11.996      11.798      11.226      10.343      9.2437      8.0294      6.7985      5.6316    
  4.5862      3.6961      2.9754      2.4250      2.0393      1.8113      1.7359      1.8113      2.0393      2.4250    
  2.9754      3.6961      4.5862      5.6316      6.7985      8.0294      9.2437      10.343      11.226      11.798    
  7.5371      7.4213      7.0872      6.5711      5.9255      5.2095      4.4797      3.7838      3.1578      2.6263    
  2.2051      1.9046      1.7328      1.6982      1.8113      2.0866      2.5444      3.2112      4.1170      5.2887    
  6.7402      8.4602      10.402      12.474      14.541      16.433      17.964      18.963      19.310      18.963    
  17.964      16.433      14.541      12.474      10.402      8.4602      6.7402      5.2887      4.1170      3.2112    
  2.5444      2.0866      1.8113      1.6982      1.7328      1.9046      2.2051      2.6263      3.1578      3.7838    
  4.4797      5.2095      5.9255      6.5711      7.0872      7.4213      4.7831      4.7153      4.5194      4.2169    
  3.8382      3.4177      2.9885      2.5798      2.2159      1.9172      1.7017      1.5868      1.5904      1.7328    
  2.0393      2.5444      3.2946      4.3487      5.7715      7.6224      9.9396      12.721      15.905      19.354    
  22.848      26.090      28.743      30.490      31.100      30.490      28.743      26.090      22.848      19.354    
  15.905      12.721      9.9396      7.6224      5.7715      4.3487      3.2946      2.5444      2.0393      1.7328    
  1.5904      1.5868      1.7017      1.9172      2.2159      2.5798      2.9885      3.4177      3.8382      4.2169    
  4.5194      4.7153      3.0133      2.9765      2.8696      2.7035      2.4939      2.2590      2.0184      1.7913    
  1.5975      1.4574      1.3928      1.4271      1.5868      1.9046      2.4250      3.2112      4.3487      5.9437    
  8.1134      10.969      14.594      19.016      24.173      29.871      35.757      41.318      45.935      49.005    
  50.083      49.005      45.935      41.318      35.757      29.871      24.173      19.016      14.594      10.969    
  8.1134      5.9437      4.3487      3.2112      2.4250      1.9046      1.5868      1.4271      1.3928      1.4574    
  1.5975      1.7913      2.0184      2.2590      2.4939      2.7035      2.8696      2.9765      1.9174      1.8982    
  1.8423      1.7547      1.6433      1.5182      1.3919      1.2797      1.2001      1.1747      1.2292      1.3928    
  1.7017      2.2051      2.9754      4.1170      5.7715      8.1134      11.339      15.650      21.223      28.175    
  36.489      45.917      55.894      65.511      73.619      79.065      80.987      79.065      73.619      65.511    
  55.894      45.917      36.489      28.175      21.223      15.650      11.339      8.1134      5.7715      4.1170    
  2.9754      2.2051      1.7017      1.3928      1.2292      1.1747      1.2001      1.2797      1.3919      1.5182    
  1.6433      1.7547      1.8423      1.8982      1.2983      1.2857      1.2497      1.1952      1.1289      1.0591    
 0.99696     0.95701     0.95720      1.0202      1.1747      1.4574      1.9172      2.6263      3.6961      5.2887    
  7.6224      10.969      15.650      22.025      30.473      41.317      54.680      70.267      87.152      103.71    
  117.84      127.39      130.77      127.39      117.84      103.71      87.152      70.267      54.680      41.317    
  30.473      22.025      15.650      10.969      7.6224      5.2887      3.6961      2.6263      1.9172      1.4574    
  1.1747      1.0202     0.95720     0.95701     0.99696      1.0591      1.1289      1.1952      1.2497      1.2857    
 0.90053     0.89126     0.86673     0.83334     0.79662     0.76326     0.74518     0.75852     0.82142     0.95720    
  1.2001      1.5975      2.2159      3.1578      4.5862      6.7402      9.9396      14.594      21.223      30.473    
  43.095      59.815      81.037      106.39      134.30      161.92      185.55      201.53      207.18      201.53    
  185.55      161.92      134.30      106.39      81.037      59.815      43.095      30.473      21.223      14.594    
  9.9396      6.7402      4.5862      3.1578      2.2159      1.5975      1.2001     0.95720     0.82142     0.75852    
 0.74518     0.76326     0.79662     0.83334     0.86673     0.89126     0.57636     0.57162     0.56293     0.55793    
 0.55661     0.55978     0.58095     0.64102     0.75852     0.95701      1.2797      1.7913      2.5798      3.7838    
  5.6316      8.4602      12.721      19.016      28.175      41.317      59.815      85.053      117.85      157.58    
  201.51      244.78      281.33      305.47      313.86      305.47      281.33      244.78      201.51      157.58    
  117.85      85.053      59.815      41.317      28.175      19.016      12.721      8.4602      5.6316      3.7838    
  2.5798      1.7913      1.2797     0.95701     0.75852     0.64102     0.58095     0.55978     0.55661     0.55793    
 0.56293     0.57162     0.37626     0.37230     0.37163     0.38722     0.41176     0.43777     0.48410     0.58095    
 0.74518     0.99696      1.3919      2.0184      2.9885      4.4797      6.7985      10.402      15.905      24.173    
  36.489      54.680      81.037      117.85      166.32      225.13      289.20      348.90      395.12      423.33    
  432.67      423.33      395.12      348.90      289.20      225.13      166.32      117.85      81.037      54.680    
  36.489      24.173      15.905      10.402      6.7985      4.4797      2.9885      2.0184      1.3919     0.99696    
 0.74518     0.58095     0.48410     0.43777     0.41176     0.38722     0.37163     0.37230     0.33095     0.32059    
 0.31153     0.32943     0.35984     0.38603     0.43777     0.55978     0.76326      1.0591      1.5182      2.2590    
  3.4177      5.2095      8.0294      12.474      19.354      29.871      45.917      70.267      106.39      157.58    
  225.13      305.48      385.81      451.15      493.66      514.81      520.76      514.81      493.66      451.15    
  385.81      305.48      225.13      157.58      106.39      70.267      45.917      29.871      19.354      12.474    
  8.0294      5.2095      3.4177      2.2590      1.5182      1.0591     0.76326     0.55978     0.43777     0.38603    
 0.35984     0.32943     0.31153     0.32059     0.31731     0.29852     0.27877     0.30017     0.33733     0.35984    
 0.41176     0.55661     0.79662      1.1289      1.6433      2.4939      3.8382      5.9255      9.2437      14.541    
  22.848      35.757      55.894      87.152      134.30      201.51      289.20      385.81      468.99      520.84    
  538.56      535.85      531.98      535.85      538.56      520.84      468.99      385.81      289.20      201.51    
  134.30      87.152      55.894      35.757      22.848      14.541      9.2437      5.9255      3.8382      2.4939    
  1.6433      1.1289     0.79662     0.55661     0.41176     0.35984     0.33733     0.30017     0.27877     0.29852    
 0.24658     0.22208     0.20081     0.24083     0.30017     0.32943     0.38722     0.55793     0.83334      1.1952    
  1.7547      2.7035      4.2169      6.5711      10.343      16.433      26.090      41.318      65.511      103.71    
  161.92      244.78      348.90      451.15      520.84      538.15      509.07      465.46      445.28      465.46    
  509.07      538.15      520.84      451.15      348.90      244.78      161.92      103.71      65.511      41.318    
  26.090      16.433      10.343      6.5711      4.2169      2.7035      1.7547      1.1952     0.83334     0.55793    
 0.38722     0.32943     0.30017     0.24083     0.20081     0.22208     0.19925     0.16888     0.14497     0.20081    
 0.27877     0.31153     0.37163     0.56293     0.86673      1.2497      1.8423      2.8696      4.5194      7.0872    
  11.226      17.964      28.743      45.935      73.619      117.84      185.55      281.33      395.12      493.66    
  538.56      509.07      421.75      328.94      289.44      328.94      421.75      509.07      538.56      493.66    
  395.12      281.33      185.55      117.84      73.619      45.935      28.743      17.964      11.226      7.0872    
  4.5194      2.8696      1.8423      1.2497     0.86673     0.56293     0.37163     0.31153     0.27877     0.20081    
 0.14497     0.16888     0.24314     0.20482     0.16888     0.22208     0.29852     0.32059     0.37230     0.57162    
 0.89126      1.2857      1.8982      2.9765      4.7153      7.4213      11.798      18.963      30.490      49.005    
  79.065      127.39      201.53      305.47      423.33      514.81      535.85      465.46      328.94      195.23    
  139.75      195.23      328.94      465.46      535.85      514.81      423.33      305.47      201.53      127.39    
  79.065      49.005      30.490      18.963      11.798      7.4213      4.7153      2.9765      1.8982      1.2857    
 0.89126     0.57162     0.37230     0.32059     0.29852     0.22208     0.16888     0.20482     0.28565     0.24314    
 0.19925     0.24658     0.31731     0.33095     0.37626     0.57636     0.90053      1.2983      1.9174      3.0133    
  4.7831      7.5371      11.996      19.310      31.100      50.083      80.987      130.77      207.18      313.86    
  432.67      520.76      531.98      445.28      289.44      139.75      78.044      139.75      289.44      445.28    
  531.98      520.76      432.67      313.86      207.18      130.77      80.987      50.083      31.100      19.310    
  11.996      7.5371      4.7831      3.0133      1.9174      1.2983     0.90053     0.57636     0.37626     0.33095    
 0.31731     0.24658     0.19925     0.24314     0.24314     0.20482     0.16888     0.22208     0.29852     0.32059    
 0.37230     0.57162     0.89126      1.2857      1.8982      2.9765      4.7153      7.4213      11.798      18.963    
  30.490      49.005      79.065      127.39      201.53      305.47      423.33      514.81      535.85      465.46    
  328.94      195.23      139.75      195.23      328.94      465.46      535.85      514.81      423.33      305.47    
  201.53      127.39      79.065      49.005      30.490      18.963      11.798      7.4213      4.7153      2.9765    
  1.8982      1.2857     0.89126     0.57162     0.37230     0.32059     0.29852     0.22208     0.16888     0.20482    
 0.19925     0.16888     0.14497     0.20081     0.27877     0.31153     0.37163     0.56293     0.86673      1.2497    
  1.8423      2.8696      4.5194      7.0872      11.226      17.964      28.743      45.935      73.619      117.84    
  185.55      281.33      395.12      493.66      538.56      509.07      421.75      328.94      289.44      328.94    
  421.75      509.07      538.56      493.66      395.12      281.33      185.55      117.84      73.619      45.935    
  28.743      17.964      11.226      7.0872      4.5194      2.8696      1.8423      1.2497     0.86673     0.56293    
 0.37163     0.31153     0.27877     0.20081     0.14497     0.16888     0.24658     0.22208     0.20081     0.24083    
 0.30017     0.32943     0.38722     0.55793     0.83334      1.1952      1.7547      2.7035      4.2169      6.5711    
  10.343      16.433      26.090      41.318      65.511      103.71      161.92      244.78      348.90      451.15    
  520.84      538.15      509.07      465.46      445.28      465.46      509.07      538.15      520.84      451.15    
  348.90      244.78      161.92      103.71      65.511      41.318      26.090      16.433      10.343      6.5711    
  4.2169      2.7035      1.7547      1.1952     0.83334     0.55793     0.38722     0.32943     0.30017     0.24083    
 0.20081     0.22208     0.31731     0.29852     0.27877     0.30017     0.33733     0.35984     0.41176     0.55661    
 0.79662      1.1289      1.6433      2.4939      3.8382      5.9255      9.2437      14.541      22.848      35.757    
  55.894      87.152      134.30      201.51      289.20      385.81      468.99      520.84      538.56      535.85    
  531.98      535.85      538.56      520.84      468.99      385.81      289.20      201.51      134.30      87.152    
  55.894      35.757      22.848      14.541      9.2437      5.9255      3.8382      2.4939      1.6433      1.1289    
 0.79662     0.55661     0.41176     0.35984     0.33733     0.30017     0.27877     0.29852     0.33095     0.32059    
 0.31153     0.32943     0.35984     0.38603     0.43777     0.55978     0.76326      1.0591      1.5182      2.2590    
  3.4177      5.2095      8.0294      12.474      19.354      29.871      45.917      70.267      106.39      157.58    
  225.13      305.48      385.81      451.15      493.66      514.81      520.76      514.81      493.66      451.15    
  385.81      305.48      225.13      157.58      106.39      70.267      45.917      29.871      19.354      12.474    
  8.0294      5.2095      3.4177      2.2590      1.5182      1.0591     0.76326     0.55978     0.43777     0.38603    
 0.35984     0.32943     0.31153     0.32059     0.37626     0.37230     0.37163     0.38722     0.41176     0.43777    
 0.48410     0.58095     0.74518     0.99696      1.3919      2.0184      2.9885      4.4797      6.7985      10.402    
  15.905      24.173      36.489      54.680      81.037      117.85      166.32      225.13      289.20      348.90    
  395.12      423.33      432.67      423.33      395.12      348.90      289.20      225.13      166.32      117.85    
  81.037      54.680      36.489      24.173      15.905      10.402      6.7985      4.4797      2.9885      2.0184    
  1.3919     0.99696     0.74518     0.58095     0.48410     0.43777     0.41176     0.38722     0.37163     0.37230    
 0.57636     0.57162     0.56293     0.55793     0.55661     0.55978     0.58095     0.64102     0.75852     0.95701    
  1.2797      1.7913      2.5798      3.7838      5.6316      8.4602      12.721      19.016      28.175      41.317    
  59.815      85.053      117.85      157.58      201.51      244.78      281.33      305.47      313.86      305.47    
  281.33      244.78      201.51      157.58      117.85      85.053      59.815      41.317      28.175      19.016    
  12.721      8.4602      5.6316      3.7838      2.5798      1.7913      1.2797     0.95701     0.75852     0.64102    
 0.58095     0.55978     0.55661     0.55793     0.56293     0.57162     0.90053     0.89126     0.86673     0.83334    
 0.79662     0.76326     0.74518     0.75852     0.82142     0.95720      1.2001      1.5975      2.2159      3.1578    
  4.5862      6.7402      9.9396      14.594      21.223      30.473      43.095      59.815      81.037      106.39    
  134.30      161.92      185.55      201.53      207.18      201.53      185.55      161.92      134.30      106.39    
  81.037      59.815      43.095      30.473      21.223      14.594      9.9396      6.7402      4.5862      3.1578    
  2.2159      1.5975      1.2001     0.95720     0.82142     0.75852     0.74518     0.76326     0.79662     0.83334    
 0.86673     0.89126      1.2983      1.2857      1.2497      1.1952      1.1289      1.0591     0.99696     0.95701    
 0.95720      1.0202      1.1747      1.4574      1.9172      2.6263      3.6961      5.2887      7.6224      10.969    
  15.650      22.025      30.473      41.317      54.680      70.267      87.152      103.71      117.84      127.39    
  130.77      127.39      117.84      103.71      87.152      70.267      54.680      41.317      30.473      22.025    
  15.650      10.969      7.6224      5.2887      3.6961      2.6263      1.9172      1.4574      1.1747      1.0202    
 0.95720     0.95701     0.99696      1.0591      1.1289      1.1952      1.2497      1.2857      1.9174      1.8982    
  1.8423      1.7547      1.6433      1.5182      1.3919      1.2797      1.2001      1.1747      1.2292      1.3928    
  1.7017      2.2051      2.9754      4.1170      5.7715      8.1134      11.339      15.650      21.223      28.175    
  36.489      45.917      55.894      65.511      73.619      79.065      80.987      79.065      73.619      65.511    
  55.894      45.917      36.489      28.175      21.223      15.650      11.339      8.1134      5.7715      4.1170    
  2.9754      2.2051      1.7017      1.3928      1.2292      1.1747      1.2001      1.2797      1.3919      1.5182    
  1.6433      1.7547      1.8423      1.8982      3.0133      2.9765      2.8696      2.7035      2.4939      2.2590    
  2.0184      1.7913      1.5975      1.4574      1.3928      1.4271      1.5868      1.9046      2.4250      3.2112    
  4.3487      5.9437      8.1134      10.969      14.594      19.016      24.173      29.871      35.757      41.318    
  45.935      49.005      50.083      49.005      45.935      41.318      35.757      29.871      24.173      19.016    
  14.594      10.969      8.1134      5.9437      4.3487      3.2112      2.4250      1.9046      1.5868      1.4271    
  1.3928      1.4574      1.5975      1.7913      2.0184      2.2590      2.4939      2.7035      2.8696      2.9765    
  4.7831      4.7153      4.5194      4.2169      3.8382      3.4177      2.9885      2.5798      2.2159      1.9172    
  1.7017      1.5868      1.5904      1.7328      2.0393      2.5444      3.2946      4.3487      5.7715      7.6224    
  9.9396      12.721      15.905      19.354      22.848      26.090      28.743      30.490      31.100      30.490    
  28.743      26.090      22.848      19.354      15.905      12.721      9.9396      7.6224      5.7715      4.3487    
  3.2946      2.5444      2.0393      1.7328      1.5904      1.5868      1.7017      1.9172      2.2159      2.5798    
  2.9885      3.4177      3.8382      4.2169      4.5194      4.7153      7.5371      7.4213      7.0872      6.5711    
  5.9255      5.2095      4.4797      3.7838      3.1578      2.6263      2.2051      1.9046      1.7328      1.6982    
  1.8113      2.0866      2.5444      3.2112      4.1170      5.2887      6.7402      8.4602      10.402      12.474    
  14.541      16.433      17.964      18.963      19.310      18.963      17.964      16.433      14.541      12.474    
  10.402      8.4602      6.7402      5.2887      4.1170      3.2112      2.5444      2.0866      1.8113      1.6982    
  1.7328      1.9046      2.2051      2.6263      3.1578      3.7838      4.4797      5.2095      5.9255      6.5711    
  7.0872      7.4213      11.996      11.798      11.226      10.343      9.2437      8.0294      6.7985      5.6316    
  4.5862      3.6961      2.9754      2.4250      2.0393      1.8113      1.7359      1.8113      2.0393      2.4250    
  2.9754      3.6961      4.5862      5.6316      6.7985      8.0294      9.2437      10.343      11.226      11.798    
  11.996      11.798      11.226      10.343      9.2437      8.0294      6.7985      5.6316      4.5862      3.6961    
  2.9754      2.4250      2.0393      1.8113      1.7359      1.8113      2.0393      2.4250      2.9754      3.6961    
  4.5862      5.6316      6.7985      8.0294      9.2437      10.343      11.226      11.798      19.310      18.963    
  17.964      16.433      14.541      12.474      10.402      8.4602      6.7402      5.2887      4.1170      3.2112    
  2.5444      2.0866      1.8113      1.6982      1.7328      1.9046      2.2051      2.6263      3.1578      3.7838    
  4.4797      5.2095      5.9255      6.5711      7.0872      7.4213      7.5371      7.4213      7.0872      6.5711    
  5.9255      5.2095      4.4797      3.7838      3.1578      2.6263      2.2051      1.9046      1.7328      1.6982    