Ar                                      
   1.00000000000000     
     5.950590    0.000000    0.000000
     0.000000    5.950590    0.000000
     0.000000    0.000000    5.950590
   Ar
     4
Direct
  0.000000  0.000000  0.000000
  0.000000  0.500000  0.500000
  0.500000  0.000000  0.500000
  0.500000  0.500000  0.000000
 
   56   56   56
 0.78043827430E+02 0.13975145210E+03 0.28943846477E+03 0.44528355552E+03 0.53197889990E+03
 0.52076125866E+03 0.43266737660E+03 0.31385736726E+03 0.20718068504E+03 0.13077102106E+03
 0.80987384736E+02 0.50083277973E+02 0.31100249191E+02 0.19310312353E+02 0.11996320432E+02
 0.75370626087E+01 0.47830881795E+01 0.30133453852E+01 0.19173935831E+01 0.12983470633E+01
 0.90052686246E+00 0.57636465501E+00 0.37625998144E+00 0.33095083059E+00 0.31730607015E+00
 0.24658483756E+00 0.19924972710E+00 0.24313898164E+00 0.28564957101E+00 0.24313898164E+00
 0.19924972710E+00 0.24658483756E+00 0.31730607015E+00 0.33095083059E+00 0.37625998144E+00
 0.57636465501E+00 0.90052686246E+00 0.12983470633E+01 0.19173935831E+01 0.30133453852E+01
 0.47830881795E+01 0.75370626087E+01 0.11996320432E+02 0.19310312353E+02 0.31100249191E+02
 0.50083277973E+02 0.80987384736E+02 0.13077102106E+03 0.20718068504E+03 0.31385736726E+03
 0.43266737660E+03 0.52076125866E+03 0.53197889990E+03 0.44528355552E+03 0.28943846477E+03
 0.13975145210E+03 0.13975145210E+03 0.19523369838E+03 0.32894280288E+03 0.46545633762E+03
 0.53585464142E+03 0.51480944211E+03 0.42332763536E+03 0.30547005260E+03 0.20153028234E+03
 0.12739013789E+03 0.79065458487E+02 0.49005107935E+02 0.30489936476E+02 0.18962765565E+02
 0.11797886098E+02 0.74213479679E+01 0.47152615659E+01 0.29764558569E+01 0.18981624346E+01
 0.12856834204E+01 0.89126352663E+00 0.57162303974E+00 0.37230124574E+00 0.32058770435E+00
 0.29852172039E+00 0.22207667967E+00 0.16887593012E+00 0.20482456678E+00 0.24313898164E+00
 0.20482456678E+00 0.16887593012E+00 0.22207667967E+00 0.29852172039E+00 0.32058770435E+00
 0.37230124574E+00 0.57162303974E+00 0.89126352663E+00 0.12856834204E+01 0.18981624346E+01
 0.29764558569E+01 0.47152615659E+01 0.74213479679E+01 0.11797886098E+02 0.18962765565E+02
 0.30489936476E+02 0.49005107935E+02 0.79065458487E+02 0.12739013789E+03 0.20153028234E+03
 0.30547005260E+03 0.42332763536E+03 0.51480944211E+03 0.53585464142E+03 0.46545633762E+03
 0.32894280288E+03 0.19523369838E+03 0.28943846477E+03 0.32894280288E+03 0.42174668468E+03
 0.50907315138E+03 0.53855769544E+03 0.49366313709E+03 0.39512169306E+03 0.28132972441E+03
 0.18555372769E+03 0.11783852295E+03 0.73619376934E+02 0.45934857727E+02 0.28743077885E+02
 0.17963633474E+02 0.11225573576E+02 0.70872443706E+01 0.45194390731E+01 0.28696114971E+01
 0.18422546790E+01 0.12496638106E+01 0.86672688424E+00 0.56292925732E+00 0.37162934449E+00
 0.31153334237E+00 0.27876672739E+00 0.20080892553E+00 0.14496811135E+00 0.16887593012E+00
 0.19924972710E+00 0.16887593012E+00 0.14496811135E+00 0.20080892553E+00 0.27876672739E+00
 0.31153334237E+00 0.37162934449E+00 0.56292925732E+00 0.86672688424E+00 0.12496638106E+01
 0.18422546790E+01 0.28696114971E+01 0.45194390731E+01 0.70872443706E+01 0.11225573576E+02
 0.17963633474E+02 0.28743077885E+02 0.45934857727E+02 0.73619376934E+02 0.11783852295E+03
 0.18555372769E+03 0.28132972441E+03 0.39512169306E+03 0.49366313709E+03 0.53855769544E+03
 0.50907315138E+03 0.42174668468E+03 0.32894280288E+03 0.44528355552E+03 0.46545633762E+03
 0.50907315138E+03 0.53815256146E+03 0.52083500663E+03 0.45114798518E+03 0.34889636650E+03
 0.24478384780E+03 0.16192305030E+03 0.10371269957E+03 0.65510959854E+02 0.41317644877E+02
 0.26089606338E+02 0.16433140561E+02 0.10343460467E+02 0.65711491769E+01 0.42169141543E+01
 0.27035220881E+01 0.17547248821E+01 0.11952314838E+01 0.83334131473E+00 0.55792801380E+00
 0.38722335583E+00 0.32943256727E+00 0.30016869023E+00 0.24082760314E+00 0.20080892553E+00
 0.22207667967E+00 0.24658483756E+00 0.22207667967E+00 0.20080892553E+00 0.24082760314E+00
 0.30016869023E+00 0.32943256727E+00 0.38722335584E+00 0.55792801380E+00 0.83334131473E+00
 0.11952314838E+01 0.17547248821E+01 0.27035220881E+01 0.42169141543E+01 0.65711491769E+01
 0.10343460467E+02 0.16433140561E+02 0.26089606338E+02 0.41317644877E+02 0.65510959854E+02
 0.10371269957E+03 0.16192305030E+03 0.24478384780E+03 0.34889636650E+03 0.45114798518E+03
 0.52083500663E+03 0.53815256146E+03 0.50907315138E+03 0.46545633762E+03 0.53197889990E+03
 0.53585464142E+03 0.53855769544E+03 0.52083500663E+03 0.46898525507E+03 0.38580629763E+03
 0.28919783022E+03 0.20151438726E+03 0.13430323079E+03 0.87151907395E+02 0.55894261728E+02
 0.35757354745E+02 0.22847783766E+02 0.14541275468E+02 0.92436790042E+01 0.59255495533E+01
 0.38382318739E+01 0.24938628032E+01 0.16433239123E+01 0.11289278558E+01 0.79661543311E+00
 0.55661093744E+00 0.41176088379E+00 0.35984395827E+00 0.33732706390E+00 0.30016869023E+00
 0.27876672739E+00 0.29852172039E+00 0.31730607015E+00 0.29852172039E+00 0.27876672739E+00
 0.30016869023E+00 0.33732706390E+00 0.35984395827E+00 0.41176088379E+00 0.55661093744E+00
 0.79661543311E+00 0.11289278558E+01 0.16433239123E+01 0.24938628032E+01 0.38382318739E+01
 0.59255495533E+01 0.92436790042E+01 0.14541275468E+02 0.22847783766E+02 0.35757354745E+02
 0.55894261728E+02 0.87151907395E+02 0.13430323079E+03 0.20151438726E+03 0.28919783022E+03
 0.38580629763E+03 0.46898525507E+03 0.52083500663E+03 0.53855769544E+03 0.53585464142E+03
 0.52076125866E+03 0.51480944211E+03 0.49366313709E+03 0.45114798518E+03 0.38580629763E+03
 0.30548147238E+03 0.22513117901E+03 0.15758271213E+03 0.10638992395E+03 0.70267290197E+02
 0.45917352477E+02 0.29871007669E+02 0.19354188887E+02 0.12473820239E+02 0.80293843928E+01
 0.52095159727E+01 0.34176953132E+01 0.22590305864E+01 0.15181873819E+01 0.10590970596E+01
 0.76326081158E+00 0.55978442065E+00 0.43777450150E+00 0.38603168031E+00 0.35984395827E+00
 0.32943256727E+00 0.31153334237E+00 0.32058770435E+00 0.33095083059E+00 0.32058770435E+00
 0.31153334237E+00 0.32943256727E+00 0.35984395827E+00 0.38603168031E+00 0.43777450150E+00
 0.55978442065E+00 0.76326081158E+00 0.10590970596E+01 0.15181873819E+01 0.22590305864E+01
 0.34176953132E+01 0.52095159727E+01 0.80293843928E+01 0.12473820239E+02 0.19354188887E+02
 0.29871007669E+02 0.45917352477E+02 0.70267290197E+02 0.10638992395E+03 0.15758271213E+03
 0.22513117901E+03 0.30548147238E+03 0.38580629763E+03 0.45114798518E+03 0.49366313709E+03
 0.51480944211E+03 0.43266737660E+03 0.42332763536E+03 0.39512169306E+03 0.34889636650E+03
 0.28919783022E+03 0.22513117901E+03 0.16632242431E+03 0.11784608773E+03 0.81037171333E+02
 0.54679843761E+02 0.36488868067E+02 0.24172664949E+02 0.15904826098E+02 0.10401680926E+02
 0.67984721450E+01 0.44796758943E+01 0.29885169629E+01 0.20183707151E+01 0.13918928559E+01
 0.99696290879E+00 0.74518091950E+00 0.58094720866E+00 0.48409777385E+00 0.43777450150E+00
 0.41176088379E+00 0.38722335583E+00 0.37162934449E+00 0.37230124574E+00 0.37625998144E+00
 0.37230124574E+00 0.37162934449E+00 0.38722335583E+00 0.41176088379E+00 0.43777450150E+00
 0.48409777385E+00 0.58094720866E+00 0.74518091950E+00 0.99696290879E+00 0.13918928559E+01
 0.20183707151E+01 0.29885169629E+01 0.44796758943E+01 0.67984721450E+01 0.10401680926E+02
 0.15904826098E+02 0.24172664949E+02 0.36488868067E+02 0.54679843761E+02 0.81037171333E+02
 0.11784608773E+03 0.16632242431E+03 0.22513117901E+03 0.28919783022E+03 0.34889636650E+03
 0.39512169306E+03 0.42332763536E+03 0.31385736726E+03 0.30547005260E+03 0.28132972441E+03
 0.24478384780E+03 0.20151438726E+03 0.15758271213E+03 0.11784608773E+03 0.85053198018E+02
 0.59814766757E+02 0.41316696997E+02 0.28175280910E+02 0.19016202793E+02 0.12720885893E+02
 0.84601991873E+01 0.56316171865E+01 0.37837815351E+01 0.25798324037E+01 0.17913276894E+01
 0.12797234385E+01 0.95701166829E+00 0.75852169167E+00 0.64101703957E+00 0.58094720865E+00
 0.55978442065E+00 0.55661093744E+00 0.55792801380E+00 0.56292925732E+00 0.57162303974E+00
 0.57636465501E+00 0.57162303974E+00 0.56292925732E+00 0.55792801380E+00 0.55661093744E+00
 0.55978442065E+00 0.58094720866E+00 0.64101703957E+00 0.75852169167E+00 0.95701166829E+00
 0.12797234385E+01 0.17913276894E+01 0.25798324037E+01 0.37837815351E+01 0.56316171865E+01
 0.84601991873E+01 0.12720885893E+02 0.19016202793E+02 0.28175280910E+02 0.41316696997E+02
 0.59814766757E+02 0.85053198018E+02 0.11784608773E+03 0.15758271213E+03 0.20151438726E+03
 0.24478384780E+03 0.28132972441E+03 0.30547005260E+03 0.20718068504E+03 0.20153028234E+03
 0.18555372769E+03 0.16192305030E+03 0.13430323079E+03 0.10638992395E+03 0.81037171333E+02
 0.59814766757E+02 0.43094864738E+02 0.30473260429E+02 0.21223176098E+02 0.14594142198E+02
 0.99396050411E+01 0.67401689231E+01 0.45862233941E+01 0.31578070368E+01 0.22159256355E+01
 0.15975381034E+01 0.12000597728E+01 0.95720480914E+00 0.82141850730E+00 0.75852169167E+00
 0.74518091950E+00 0.76326081158E+00 0.79661543311E+00 0.83334131473E+00 0.86672688424E+00
 0.89126352663E+00 0.90052686246E+00 0.89126352663E+00 0.86672688424E+00 0.83334131473E+00
 0.79661543311E+00 0.76326081158E+00 0.74518091950E+00 0.75852169167E+00 0.82141850730E+00
 0.95720480914E+00 0.12000597728E+01 0.15975381034E+01 0.22159256355E+01 0.31578070368E+01
 0.45862233941E+01 0.67401689231E+01 0.99396050411E+01 0.14594142198E+02 0.21223176098E+02
 0.30473260429E+02 0.43094864738E+02 0.59814766757E+02 0.81037171333E+02 0.10638992395E+03
 0.13430323079E+03 0.16192305030E+03 0.18555372769E+03 0.20153028234E+03 0.13077102106E+03
 0.12739013789E+03 0.11783852295E+03 0.10371269957E+03 0.87151907395E+02 0.70267290197E+02
 0.54679843761E+02 0.41316696997E+02 0.30473260429E+02 0.22025492570E+02 0.15649745545E+02
 0.10969105492E+02 0.76224095312E+01 0.52887372099E+01 0.36960812355E+01 0.26263271751E+01
 0.19171666471E+01 0.14574354161E+01 0.11747405134E+01 0.10201753113E+01 0.95720480914E+00
 0.95701166829E+00 0.99696290879E+00 0.10590970596E+01 0.11289278558E+01 0.11952314838E+01
 0.12496638106E+01 0.12856834204E+01 0.12983470633E+01 0.12856834204E+01 0.12496638106E+01
 0.11952314838E+01 0.11289278558E+01 0.10590970596E+01 0.99696290879E+00 0.95701166829E+00
 0.95720480914E+00 0.10201753113E+01 0.11747405134E+01 0.14574354161E+01 0.19171666471E+01
 0.26263271751E+01 0.36960812355E+01 0.52887372099E+01 0.76224095312E+01 0.10969105492E+02
 0.15649745545E+02 0.22025492570E+02 0.30473260429E+02 0.41316696997E+02 0.54679843761E+02
 0.70267290197E+02 0.87151907395E+02 0.10371269957E+03 0.11783852295E+03 0.12739013789E+03
 0.80987384736E+02 0.79065458487E+02 0.73619376934E+02 0.65510959854E+02 0.55894261728E+02
 0.45917352477E+02 0.36488868067E+02 0.28175280910E+02 0.21223176098E+02 0.15649745545E+02
 0.11339396580E+02 0.81134115303E+01 0.57714505980E+01 0.41170101549E+01 0.29753640813E+01
 0.22051109323E+01 0.17016647454E+01 0.13927834869E+01 0.12291728166E+01 0.11747405134E+01
 0.12000597728E+01 0.12797234385E+01 0.13918928559E+01 0.15181873819E+01 0.16433239123E+01
 0.17547248821E+01 0.18422546790E+01 0.18981624346E+01 0.19173935831E+01 0.18981624346E+01
 0.18422546790E+01 0.17547248821E+01 0.16433239123E+01 0.15181873819E+01 0.13918928559E+01
 0.12797234385E+01 0.12000597728E+01 0.11747405134E+01 0.12291728166E+01 0.13927834869E+01
 0.17016647454E+01 0.22051109323E+01 0.29753640813E+01 0.41170101549E+01 0.57714505980E+01
 0.81134115303E+01 0.11339396580E+02 0.15649745545E+02 0.21223176098E+02 0.28175280910E+02
 0.36488868067E+02 0.45917352477E+02 0.55894261728E+02 0.65510959854E+02 0.73619376934E+02
 0.79065458487E+02 0.50083277973E+02 0.49005107935E+02 0.45934857727E+02 0.41317644877E+02
 0.35757354745E+02 0.29871007669E+02 0.24172664949E+02 0.19016202793E+02 0.14594142198E+02
 0.10969105492E+02 0.81134115303E+01 0.59437261991E+01 0.43486990662E+01 0.32111842551E+01
 0.24249958515E+01 0.19045541520E+01 0.15867871622E+01 0.14270865054E+01 0.13927834869E+01
 0.14574354161E+01 0.15975381034E+01 0.17913276894E+01 0.20183707151E+01 0.22590305864E+01
 0.24938628032E+01 0.27035220881E+01 0.28696114971E+01 0.29764558569E+01 0.30133453852E+01
 0.29764558569E+01 0.28696114971E+01 0.27035220881E+01 0.24938628032E+01 0.22590305864E+01
 0.20183707151E+01 0.17913276894E+01 0.15975381034E+01 0.14574354161E+01 0.13927834869E+01
 0.14270865054E+01 0.15867871622E+01 0.19045541520E+01 0.24249958515E+01 0.32111842551E+01
 0.43486990662E+01 0.59437261991E+01 0.81134115303E+01 0.10969105492E+02 0.14594142198E+02
 0.19016202793E+02 0.24172664949E+02 0.29871007669E+02 0.35757354745E+02 0.41317644877E+02
 0.45934857727E+02 0.49005107935E+02 0.31100249191E+02 0.30489936476E+02 0.28743077885E+02
 0.26089606338E+02 0.22847783766E+02 0.19354188887E+02 0.15904826098E+02 0.12720885893E+02
 0.99396050411E+01 0.76224095312E+01 0.57714505980E+01 0.43486990662E+01 0.32946222019E+01
 0.25443574991E+01 0.20393050908E+01 0.17328199691E+01 0.15904432497E+01 0.15867871622E+01
 0.17016647454E+01 0.19171666471E+01 0.22159256355E+01 0.25798324037E+01 0.29885169629E+01
 0.34176953132E+01 0.38382318739E+01 0.42169141543E+01 0.45194390731E+01 0.47152615659E+01
 0.47830881795E+01 0.47152615659E+01 0.45194390731E+01 0.42169141543E+01 0.38382318739E+01
 0.34176953132E+01 0.29885169629E+01 0.25798324037E+01 0.22159256355E+01 0.19171666471E+01
 0.17016647454E+01 0.15867871622E+01 0.15904432497E+01 0.17328199691E+01 0.20393050908E+01
 0.25443574991E+01 0.32946222019E+01 0.43486990662E+01 0.57714505980E+01 0.76224095312E+01
 0.99396050411E+01 0.12720885893E+02 0.15904826098E+02 0.19354188887E+02 0.22847783766E+02
 0.26089606338E+02 0.28743077885E+02 0.30489936476E+02 0.19310312353E+02 0.18962765565E+02
 0.17963633474E+02 0.16433140561E+02 0.14541275468E+02 0.12473820239E+02 0.10401680926E+02
 0.84601991873E+01 0.67401689231E+01 0.52887372099E+01 0.41170101549E+01 0.32111842551E+01
 0.25443574991E+01 0.20865613587E+01 0.18113101783E+01 0.16982475046E+01 0.17328199691E+01
 0.19045541520E+01 0.22051109323E+01 0.26263271751E+01 0.31578070368E+01 0.37837815351E+01
 0.44796758943E+01 0.52095159727E+01 0.59255495533E+01 0.65711491769E+01 0.70872443706E+01
 0.74213479679E+01 0.75370626087E+01 0.74213479679E+01 0.70872443706E+01 0.65711491769E+01
 0.59255495533E+01 0.52095159727E+01 0.44796758943E+01 0.37837815351E+01 0.31578070368E+01
 0.26263271751E+01 0.22051109323E+01 0.19045541520E+01 0.17328199691E+01 0.16982475046E+01
 0.18113101783E+01 0.20865613587E+01 0.25443574991E+01 0.32111842551E+01 0.41170101549E+01
 0.52887372099E+01 0.67401689231E+01 0.84601991873E+01 0.10401680926E+02 0.12473820239E+02
 0.14541275468E+02 0.16433140561E+02 0.17963633474E+02 0.18962765565E+02 0.11996320432E+02
 0.11797886098E+02 0.11225573576E+02 0.10343460467E+02 0.92436790042E+01 0.80293843928E+01
 0.67984721450E+01 0.56316171865E+01 0.45862233941E+01 0.36960812355E+01 0.29753640813E+01
 0.24249958515E+01 0.20393050908E+01 0.18113101783E+01 0.17359158059E+01 0.18113101783E+01
 0.20393050908E+01 0.24249958515E+01 0.29753640813E+01 0.36960812355E+01 0.45862233941E+01
 0.56316171865E+01 0.67984721450E+01 0.80293843928E+01 0.92436790042E+01 0.10343460467E+02
 0.11225573576E+02 0.11797886098E+02 0.11996320432E+02 0.11797886098E+02 0.11225573576E+02
 0.10343460467E+02 0.92436790042E+01 0.80293843928E+01 0.67984721450E+01 0.56316171865E+01
 0.45862233941E+01 0.36960812355E+01 0.29753640813E+01 0.24249958515E+01 0.20393050908E+01
 0.18113101783E+01 0.17359158059E+01 0.18113101783E+01 0.20393050908E+01 0.24249958515E+01
 0.29753640813E+01 0.36960812355E+01 0.45862233941E+01 0.56316171865E+01 0.67984721450E+01
 0.80293843928E+01 0.92436790042E+01 0.10343460467E+02 0.11225573576E+02 0.11797886098E+02
 0.75370626087E+01 0.74213479679E+01 0.70872443706E+01 0.65711491769E+01 0.59255495533E+01
 0.52095159727E+01 0.44796758943E+01 0.37837815351E+01 0.31578070368E+01 0.26263271751E+01
 0.22051109323E+01 0.19045541520E+01 0.17328199691E+01 0.16982475046E+01 0.18113101783E+01
 0.20865613587E+01 0.25443574991E+01 0.32111842551E+01 0.41170101549E+01 0.52887372099E+01
 0.67401689231E+01 0.84601991873E+01 0.10401680926E+02 0.12473820239E+02 0.14541275468E+02
 0.16433140561E+02 0.17963633474E+02 0.18962765565E+02 0.19310312353E+02 0.18962765565E+02
 0.17963633474E+02 0.16433140561E+02 0.14541275468E+02 0.12473820239E+02 0.10401680926E+02
 0.84601991873E+01 0.67401689231E+01 0.52887372099E+01 0.41170101549E+01 0.32111842551E+01
 0.25443574991E+01 0.20865613587E+01 0.18113101783E+01 0.16982475046E+01 0.17328199691E+01
 0.19045541520E+01 0.22051109323E+01 0.26263271751E+01 0.31578070368E+01 0.37837815351E+01
 0.44796758943E+01 0.52095159727E+01 0.59255495533E+01 0.65711491769E+01 0.70872443706E+01
 0.74213479679E+01 0.47830881795E+01 0.47152615659E+01 0.45194390731E+01 0.42169141543E+01
 0.38382318739E+01 0.34176953132E+01 0.29885169629E+01 0.25798324037E+01 0.22159256355E+01
 0.19171666471E+01 0.17016647454E+01 0.15867871622E+01 0.15904432497E+01 0.17328199691E+01
 0.20393050908E+01 0.25443574991E+01 0.32946222019E+01 0.43486990662E+01 0.57714505980E+01
 0.76224095312E+01 0.99396050411E+01 0.12720885893E+02 0.15904826098E+02 0.19354188887E+02
 0.22847783766E+02 0.26089606338E+02 0.28743077885E+02 0.30489936476E+02 0.31100249191E+02
 0.30489936476E+02 0.28743077885E+02 0.26089606338E+02 0.22847783766E+02 0.19354188887E+02
 0.15904826098E+02 0.12720885893E+02 0.99396050411E+01 0.76224095312E+01 0.57714505980E+01
 0.43486990662E+01 0.32946222019E+01 0.25443574991E+01 0.20393050908E+01 0.17328199691E+01
 0.15904432497E+01 0.15867871622E+01 0.17016647454E+01 0.19171666471E+01 0.22159256355E+01
 0.25798324037E+01 0.29885169629E+01 0.34176953132E+01 0.38382318739E+01 0.42169141543E+01
 0.45194390731E+01 0.47152615659E+01 0.30133453852E+01 0.29764558569E+01 0.28696114971E+01
 0.27035220881E+01 0.24938628032E+01 0.22590305864E+01 0.20183707151E+01 0.17913276894E+01
 0.15975381034E+01 0.14574354161E+01 0.13927834869E+01 0.14270865054E+01 0.15867871622E+01
 0.19045541520E+01 0.24249958515E+01 0.32111842551E+01 0.43486990662E+01 0.59437261991E+01
 0.81134115303E+01 0.10969105492E+02 0.14594142198E+02 0.19016202793E+02 0.24172664949E+02
 0.29871007669E+02 0.35757354745E+02 0.41317644877E+02 0.45934857727E+02 0.49005107935E+02
 0.50083277973E+02 0.49005107935E+02 0.45934857727E+02 0.41317644877E+02 0.35757354745E+02
 0.29871007669E+02 0.24172664949E+02 0.19016202793E+02 0.14594142198E+02 0.10969105492E+02
 0.81134115303E+01 0.59437261991E+01 0.43486990662E+01 0.32111842551E+01 0.24249958515E+01
 0.19045541520E+01 0.15867871622E+01 0.14270865054E+01 0.13927834869E+01 0.14574354161E+01
 0.15975381034E+01 0.17913276894E+01 0.20183707151E+01 0.22590305864E+01 0.24938628032E+01
 0.27035220881E+01 0.28696114971E+01 0.29764558569E+01 0.19173935831E+01 0.18981624346E+01
 0.18422546790E+01 0.17547248821E+01 0.16433239123E+01 0.15181873819E+01 0.13918928559E+01
 0.12797234385E+01 0.12000597728E+01 0.11747405134E+01 0.12291728166E+01 0.13927834869E+01
 0.17016647454E+01 0.22051109323E+01 0.29753640813E+01 0.41170101549E+01 0.57714505980E+01
 0.81134115303E+01 0.11339396580E+02 0.15649745545E+02 0.21223176098E+02 0.28175280910E+02
 0.36488868067E+02 0.45917352477E+02 0.55894261728E+02 0.65510959854E+02 0.73619376934E+02
 0.79065458487E+02 0.80987384736E+02 0.79065458487E+02 0.73619376934E+02 0.65510959854E+02
 0.55894261728E+02 0.45917352477E+02 0.36488868067E+02 0.28175280910E+02 0.21223176098E+02
 0.15649745545E+02 0.11339396580E+02 0.81134115303E+01 0.57714505980E+01 0.41170101549E+01
 0.29753640813E+01 0.22051109323E+01 0.17016647454E+01 0.13927834869E+01 0.12291728166E+01
 0.11747405134E+01 0.12000597728E+01 0.12797234385E+01 0.13918928559E+01 0.15181873819E+01
 0.16433239123E+01 0.17547248821E+01 0.18422546790E+01 0.18981624346E+01 0.12983470633E+01
 0.12856834204E+01 0.12496638106E+01 0.11952314838E+01 0.11289278558E+01 0.10590970596E+01
 0.99696290879E+00 0.95701166829E+00 0.95720480914E+00 0.10201753113E+01 0.11747405134E+01
 0.14574354161E+01 0.19171666471E+01 0.26263271751E+01 0.36960812355E+01 0.52887372099E+01
 0.76224095312E+01 0.10969105492E+02 0.15649745545E+02 0.22025492570E+02 0.30473260429E+02
 0.41316696997E+02 0.54679843761E+02 0.70267290197E+02 0.87151907395E+02 0.10371269957E+03
 0.11783852295E+03 0.12739013789E+03 0.13077102106E+03 0.12739013789E+03 0.11783852295E+03
 0.10371269957E+03 0.87151907395E+02 0.70267290197E+02 0.54679843761E+02 0.41316696997E+02
 0.30473260429E+02 0.22025492570E+02 0.15649745545E+02 0.10969105492E+02 0.76224095312E+01
 0.52887372099E+01 0.36960812355E+01 0.26263271751E+01 0.19171666471E+01 0.14574354161E+01
 0.11747405134E+01 0.10201753113E+01 0.95720480914E+00 0.95701166829E+00 0.99696290879E+00
 0.10590970596E+01 0.11289278558E+01 0.11952314838E+01 0.12496638106E+01 0.12856834204E+01
 0.90052686246E+00 0.89126352663E+00 0.86672688424E+00 0.83334131473E+00 0.79661543311E+00
 0.76326081158E+00 0.74518091950E+00 0.75852169167E+00 0.82141850730E+00 0.95720480914E+00
 0.12000597728E+01 0.15975381034E+01 0.22159256355E+01 0.31578070368E+01 0.45862233941E+01
 0.67401689231E+01 0.99396050411E+01 0.14594142198E+02 0.21223176098E+02 0.30473260429E+02
 0.43094864738E+02 0.59814766757E+02 0.81037171333E+02 0.10638992395E+03 0.13430323079E+03
 0.16192305030E+03 0.18555372769E+03 0.20153028234E+03 0.20718068504E+03 0.20153028234E+03
 0.18555372769E+03 0.16192305030E+03 0.13430323079E+03 0.10638992395E+03 0.81037171333E+02
 0.59814766757E+02 0.43094864738E+02 0.30473260429E+02 0.21223176098E+02 0.14594142198E+02
 0.99396050411E+01 0.67401689231E+01 0.45862233941E+01 0.31578070368E+01 0.22159256355E+01
 0.15975381034E+01 0.12000597728E+01 0.95720480914E+00 0.82141850730E+00 0.75852169167E+00
 0.74518091950E+00 0.76326081158E+00 0.79661543311E+00 0.83334131473E+00 0.86672688424E+00
 0.89126352663E+00 0.57636465501E+00 0.57162303974E+00 0.56292925732E+00 0.55792801380E+00
 0.55661093744E+00 0.55978442065E+00 0.58094720866E+00 0.64101703957E+00 0.75852169167E+00
 0.95701166829E+00 0.12797234385E+01 0.17913276894E+01 0.25798324037E+01 0.37837815351E+01
 0.56316171865E+01 0.84601991873E+01 0.12720885893E+02 0.19016202793E+02 0.28175280910E+02
 0.41316696997E+02 0.59814766757E+02 0.85053198018E+02 0.11784608773E+03 0.15758271213E+03
 0.20151438726E+03 0.24478384780E+03 0.28132972441E+03 0.30547005260E+03 0.31385736726E+03
 0.30547005260E+03 0.28132972441E+03 0.24478384780E+03 0.20151438726E+03 0.15758271213E+03
 0.11784608773E+03 0.85053198018E+02 0.59814766757E+02 0.41316696997E+02 0.28175280910E+02
 0.19016202793E+02 0.12720885893E+02 0.84601991873E+01 0.56316171865E+01 0.37837815351E+01
 0.25798324037E+01 0.17913276894E+01 0.12797234385E+01 0.95701166829E+00 0.75852169167E+00
 0.64101703957E+00 0.58094720866E+00 0.55978442065E+00 0.55661093744E+00 0.55792801380E+00
 0.56292925732E+00 0.57162303974E+00 0.37625998144E+00 0.37230124574E+00 0.37162934449E+00
 0.38722335584E+00 0.41176088379E+00 0.43777450150E+00 0.48409777385E+00 0.58094720866E+00
 0.74518091950E+00 0.99696290879E+00 0.13918928559E+01 0.20183707151E+01 0.29885169629E+01
 0.44796758943E+01 0.67984721450E+01 0.10401680926E+02 0.15904826098E+02 0.24172664949E+02
 0.36488868067E+02 0.54679843761E+02 0.81037171333E+02 0.11784608773E+03 0.16632242431E+03
 0.22513117901E+03 0.28919783022E+03 0.34889636650E+03 0.39512169306E+03 0.42332763536E+03
 0.43266737660E+03 0.42332763536E+03 0.39512169306E+03 0.34889636650E+03 0.28919783022E+03
 0.22513117901E+03 0.16632242431E+03 0.11784608773E+03 0.81037171333E+02 0.54679843761E+02
 0.36488868067E+02 0.24172664949E+02 0.15904826098E+02 0.10401680926E+02 0.67984721450E+01
 0.44796758943E+01 0.29885169629E+01 0.20183707151E+01 0.13918928559E+01 0.99696290879E+00
 0.74518091950E+00 0.58094720866E+00 0.48409777385E+00 0.43777450150E+00 0.41176088379E+00
 0.38722335584E+00 0.37162934449E+00 0.37230124574E+00 0.33095083059E+00 0.32058770435E+00
 0.31153334237E+00 0.32943256727E+00 0.35984395827E+00 0.38603168031E+00 0.43777450150E+00
 0.55978442065E+00 0.76326081158E+00 0.10590970596E+01 0.15181873819E+01 0.22590305864E+01
 0.34176953132E+01 0.52095159727E+01 0.80293843928E+01 0.12473820239E+02 0.19354188887E+02
 0.29871007669E+02 0.45917352477E+02 0.70267290197E+02 0.10638992395E+03 0.15758271213E+03
 0.22513117901E+03 0.30548147238E+03 0.38580629763E+03 0.45114798518E+03 0.49366313709E+03
 0.51480944211E+03 0.52076125866E+03 0.51480944211E+03 0.49366313709E+03 0.45114798518E+03
 0.38580629763E+03 0.30548147238E+03 0.22513117901E+03 0.15758271213E+03 0.10638992395E+03
 0.70267290197E+02 0.45917352477E+02 0.29871007669E+02 0.19354188887E+02 0.12473820239E+02
 0.80293843928E+01 0.52095159727E+01 0.34176953132E+01 0.22590305864E+01 0.15181873819E+01
 0.10590970596E+01 0.76326081158E+00 0.55978442065E+00 0.43777450150E+00 0.38603168031E+00
 0.35984395827E+00 0.32943256727E+00 0.31153334237E+00 0.32058770435E+00 0.31730607015E+00
 0.29852172039E+00 0.27876672739E+00 0.30016869023E+00 0.33732706390E+00 0.35984395827E+00
 0.41176088379E+00 0.55661093744E+00 0.79661543311E+00 0.11289278558E+01 0.16433239123E+01
 0.24938628032E+01 0.38382318739E+01 0.59255495533E+01 0.92436790042E+01 0.14541275468E+02
 0.22847783766E+02 0.35757354745E+02 0.55894261728E+02 0.87151907395E+02 0.13430323079E+03
 0.20151438726E+03 0.28919783022E+03 0.38580629763E+03 0.46898525507E+03 0.52083500663E+03
 0.53855769544E+03 0.53585464142E+03 0.53197889990E+03 0.53585464142E+03 0.53855769544E+03
 0.52083500663E+03 0.46898525507E+03 0.38580629763E+03 0.28919783022E+03 0.20151438726E+03
 0.13430323079E+03 0.87151907395E+02 0.55894261728E+02 0.35757354745E+02 0.22847783766E+02
 0.14541275468E+02 0.92436790042E+01 0.59255495533E+01 0.38382318739E+01 0.24938628032E+01
 0.16433239123E+01 0.11289278558E+01 0.79661543311E+00 0.55661093744E+00 0.41176088379E+00
 0.35984395827E+00 0.33732706390E+00 0.30016869023E+00 0.27876672739E+00 0.29852172039E+00
 0.24658483756E+00 0.22207667967E+00 0.20080892553E+00 0.24082760314E+00 0.30016869023E+00
 0.32943256727E+00 0.38722335584E+00 0.55792801380E+00 0.83334131473E+00 0.11952314838E+01
 0.17547248821E+01 0.27035220881E+01 0.42169141543E+01 0.65711491769E+01 0.10343460467E+02
 0.16433140561E+02 0.26089606338E+02 0.41317644877E+02 0.65510959854E+02 0.10371269957E+03
 0.16192305030E+03 0.24478384780E+03 0.34889636650E+03 0.45114798518E+03 0.52083500663E+03
 0.53815256146E+03 0.50907315138E+03 0.46545633762E+03 0.44528355552E+03 0.46545633762E+03
 0.50907315138E+03 0.53815256146E+03 0.52083500663E+03 0.45114798518E+03 0.34889636650E+03
 0.24478384780E+03 0.16192305030E+03 0.10371269957E+03 0.65510959854E+02 0.41317644877E+02
 0.26089606338E+02 0.16433140561E+02 0.10343460467E+02 0.65711491769E+01 0.42169141543E+01
 0.27035220881E+01 0.17547248821E+01 0.11952314838E+01 0.83334131473E+00 0.55792801380E+00
 0.38722335583E+00 0.32943256727E+00 0.30016869023E+00 0.24082760314E+00 0.20080892553E+00
 0.22207667967E+00 0.19924972710E+00 0.16887593012E+00 0.14496811135E+00 0.20080892553E+00
 0.27876672739E+00 0.31153334237E+00 0.37162934449E+00 0.56292925732E+00 0.86672688424E+00
 0.12496638106E+01 0.18422546790E+01 0.28696114971E+01 0.45194390731E+01 0.70872443706E+01
 0.11225573576E+02 0.17963633474E+02 0.28743077885E+02 0.45934857727E+02 0.73619376934E+02
 0.11783852295E+03 0.18555372769E+03 0.28132972441E+03 0.39512169306E+03 0.49366313709E+03
 0.53855769544E+03 0.50907315138E+03 0.42174668468E+03 0.32894280288E+03 0.28943846477E+03
 0.32894280288E+03 0.42174668468E+03 0.50907315138E+03 0.53855769544E+03 0.49366313709E+03
 0.39512169306E+03 0.28132972441E+03 0.18555372769E+03 0.11783852295E+03 0.73619376934E+02
 0.45934857727E+02 0.28743077885E+02 0.17963633474E+02 0.11225573576E+02 0.70872443706E+01
 0.45194390731E+01 0.28696114971E+01 0.18422546790E+01 0.12496638106E+01 0.86672688424E+00
 0.56292925732E+00 0.37162934449E+00 0.31153334237E+00 0.27876672739E+00 0.20080892553E+00
 0.14496811135E+00 0.16887593012E+00 0.24313898164E+00 0.20482456678E+00 0.16887593012E+00
 0.22207667967E+00 0.29852172039E+00 0.32058770435E+00 0.37230124574E+00 0.57162303974E+00
 0.89126352663E+00 0.12856834204E+01 0.18981624346E+01 0.29764558569E+01 0.47152615659E+01
 0.74213479679E+01 0.11797886098E+02 0.18962765565E+02 0.30489936476E+02 0.49005107935E+02
 0.79065458487E+02 0.12739013789E+03 0.20153028234E+03 0.30547005260E+03 0.42332763536E+03
 0.51480944211E+03 0.53585464142E+03 0.46545633762E+03 0.32894280288E+03 0.19523369838E+03
 0.13975145210E+03 0.19523369838E+03 0.32894280288E+03 0.46545633762E+03 0.53585464142E+03
 0.51480944211E+03 0.42332763536E+03 0.30547005260E+03 0.20153028234E+03 0.12739013789E+03
 0.79065458487E+02 0.49005107935E+02 0.30489936476E+02 0.18962765565E+02 0.11797886098E+02
 0.74213479679E+01 0.47152615659E+01 0.29764558569E+01 0.18981624346E+01 0.12856834204E+01
 0.89126352663E+00 0.57162303974E+00 0.37230124574E+00 0.32058770435E+00 0.29852172039E+00
 0.22207667967E+00 0.16887593012E+00 0.20482456678E+00 0.28564957101E+00 0.24313898164E+00
 0.19924972710E+00 0.24658483756E+00 0.31730607015E+00 0.33095083059E+00 0.37625998144E+00
 0.57636465501E+00 0.90052686246E+00 0.12983470633E+01 0.19173935831E+01 0.30133453852E+01
 0.47830881795E+01 0.75370626087E+01 0.11996320432E+02 0.19310312353E+02 0.31100249191E+02
 0.50083277973E+02 0.80987384736E+02 0.13077102106E+03 0.20718068504E+03 0.31385736726E+03
 0.43266737660E+03 0.52076125866E+03 0.53197889990E+03 0.44528355552E+03 0.28943846477E+03
 0.13975145210E+03 0.78043827430E+02 0.13975145210E+03 0.28943846477E+03 0.44528355552E+03
 0.53197889990E+03 0.52076125866E+03 0.43266737660E+03 0.31385736726E+03 0.20718068504E+03
 0.13077102106E+03 0.80987384736E+02 0.50083277973E+02 0.31100249191E+02 0.19310312353E+02
 0.11996320432E+02 0.75370626087E+01 0.47830881795E+01 0.30133453852E+01 0.19173935831E+01
 0.12983470633E+01 0.90052686246E+00 0.57636465501E+00 0.37625998144E+00 0.33095083059E+00
 0.31730607015E+00 0.24658483756E+00 0.19924972710E+00 0.24313898164E+00 0.24313898164E+00