   4   4   0   0
  0.5267689E+02  0.5950590E-09  0.5950590E-09  0.5950590E-09  0.5000000E-15
  1.000000000000000E-004
  CAR 
 Ar                                      
     16.89817363    -22.52350026  301     -6.21278269      1.00000000
    -22.524  0.0000E+00  0.0000E+00
    -22.392  0.0000E+00  0.0000E+00
    -22.261  0.0000E+00  0.0000E+00
    -22.129  0.0000E+00  0.0000E+00
    -21.998  0.0000E+00  0.0000E+00
    -21.866  0.0000E+00  0.0000E+00
    -21.735  0.0000E+00  0.0000E+00
    -21.604  0.0000E+00  0.0000E+00
    -21.472  0.0000E+00  0.0000E+00
    -21.341  0.0000E+00  0.0000E+00
    -21.209  0.0000E+00  0.0000E+00
    -21.078  0.0000E+00  0.0000E+00
    -20.947  0.2918E-09  0.3835E-10
    -20.815  0.1593E-01  0.2094E-02
    -20.684  0.2406E+02  0.3164E+01
    -20.552  0.3676E+02  0.7995E+01
    -20.421  0.3830E-01  0.8000E+01
    -20.290  0.2233E-09  0.8000E+01
    -20.158  0.0000E+00  0.8000E+01
    -20.027  0.0000E+00  0.8000E+01
    -19.895  0.0000E+00  0.8000E+01
    -19.764  0.0000E+00  0.8000E+01
    -19.633  0.0000E+00  0.8000E+01
    -19.501  0.0000E+00  0.8000E+01
    -19.370  0.0000E+00  0.8000E+01
    -19.238  0.0000E+00  0.8000E+01
    -19.107  0.0000E+00  0.8000E+01
    -18.976  0.0000E+00  0.8000E+01
    -18.844  0.0000E+00  0.8000E+01
    -18.713  0.0000E+00  0.8000E+01
    -18.581  0.0000E+00  0.8000E+01
    -18.450  0.0000E+00  0.8000E+01
    -18.319  0.0000E+00  0.8000E+01
    -18.187  0.0000E+00  0.8000E+01
    -18.056  0.0000E+00  0.8000E+01
    -17.924  0.0000E+00  0.8000E+01
    -17.793  0.0000E+00  0.8000E+01
    -17.661  0.0000E+00  0.8000E+01
    -17.530  0.0000E+00  0.8000E+01
    -17.399  0.0000E+00  0.8000E+01
    -17.267  0.0000E+00  0.8000E+01
    -17.136  0.0000E+00  0.8000E+01
    -17.004  0.0000E+00  0.8000E+01
    -16.873  0.0000E+00  0.8000E+01
    -16.742  0.0000E+00  0.8000E+01
    -16.610  0.0000E+00  0.8000E+01
    -16.479  0.0000E+00  0.8000E+01
    -16.347  0.0000E+00  0.8000E+01
    -16.216  0.0000E+00  0.8000E+01
    -16.085  0.0000E+00  0.8000E+01
    -15.953  0.0000E+00  0.8000E+01
    -15.822  0.0000E+00  0.8000E+01
    -15.690  0.0000E+00  0.8000E+01
    -15.559  0.0000E+00  0.8000E+01
    -15.428  0.0000E+00  0.8000E+01
    -15.296  0.0000E+00  0.8000E+01
    -15.165  0.0000E+00  0.8000E+01
    -15.033  0.0000E+00  0.8000E+01
    -14.902  0.0000E+00  0.8000E+01
    -14.771  0.0000E+00  0.8000E+01
    -14.639  0.0000E+00  0.8000E+01
    -14.508  0.0000E+00  0.8000E+01
    -14.376  0.0000E+00  0.8000E+01
    -14.245  0.0000E+00  0.8000E+01
    -14.114  0.0000E+00  0.8000E+01
    -13.982  0.0000E+00  0.8000E+01
    -13.851  0.0000E+00  0.8000E+01
    -13.719  0.0000E+00  0.8000E+01
    -13.588  0.0000E+00  0.8000E+01
    -13.457  0.0000E+00  0.8000E+01
    -13.325  0.0000E+00  0.8000E+01
    -13.194  0.0000E+00  0.8000E+01
    -13.062  0.0000E+00  0.8000E+01
    -12.931  0.0000E+00  0.8000E+01
    -12.799  0.0000E+00  0.8000E+01
    -12.668  0.0000E+00  0.8000E+01
    -12.537  0.0000E+00  0.8000E+01
    -12.405  0.0000E+00  0.8000E+01
    -12.274  0.0000E+00  0.8000E+01
    -12.142  0.0000E+00  0.8000E+01
    -12.011  0.0000E+00  0.8000E+01
    -11.880  0.0000E+00  0.8000E+01
    -11.748  0.0000E+00  0.8000E+01
    -11.617  0.0000E+00  0.8000E+01
    -11.485  0.0000E+00  0.8000E+01
    -11.354  0.0000E+00  0.8000E+01
    -11.223  0.0000E+00  0.8000E+01
    -11.091  0.0000E+00  0.8000E+01
    -10.960  0.0000E+00  0.8000E+01
    -10.828  0.0000E+00  0.8000E+01
    -10.697  0.0000E+00  0.8000E+01
    -10.566  0.0000E+00  0.8000E+01
    -10.434  0.0000E+00  0.8000E+01
    -10.303  0.0000E+00  0.8000E+01
    -10.171  0.0000E+00  0.8000E+01
    -10.040  0.0000E+00  0.8000E+01
     -9.909  0.0000E+00  0.8000E+01
     -9.777  0.0000E+00  0.8000E+01
     -9.646  0.0000E+00  0.8000E+01
     -9.514  0.0000E+00  0.8000E+01
     -9.383  0.0000E+00  0.8000E+01
     -9.252  0.0000E+00  0.8000E+01
     -9.120  0.0000E+00  0.8000E+01
     -8.989  0.0000E+00  0.8000E+01
     -8.857  0.0000E+00  0.8000E+01
     -8.726  0.0000E+00  0.8000E+01
     -8.595  0.0000E+00  0.8000E+01
     -8.463  0.0000E+00  0.8000E+01
     -8.332  0.0000E+00  0.8000E+01
     -8.200  0.0000E+00  0.8000E+01
     -8.069  0.0000E+00  0.8000E+01
     -7.937  0.0000E+00  0.8000E+01
     -7.806  0.0000E+00  0.8000E+01
     -7.675  0.0000E+00  0.8000E+01
     -7.543  0.0000E+00  0.8000E+01
     -7.412  0.0000E+00  0.8000E+01
     -7.280  0.1122E-15  0.8000E+01
     -7.149  0.2840E-05  0.8000E+01
     -7.018  0.3845E+00  0.8051E+01
     -6.886  0.2129E+02  0.1085E+02
     -6.755  0.3399E+02  0.1531E+02
     -6.623  0.3342E+02  0.1971E+02
     -6.492  0.6927E+02  0.2881E+02
     -6.361  0.2420E+02  0.3199E+02
     -6.229  0.7526E-01  0.3200E+02
     -6.098  0.9034E-08  0.3200E+02
     -5.966  0.0000E+00  0.3200E+02
     -5.835  0.0000E+00  0.3200E+02
     -5.704  0.0000E+00  0.3200E+02
     -5.572  0.0000E+00  0.3200E+02
     -5.441  0.0000E+00  0.3200E+02
     -5.309  0.0000E+00  0.3200E+02
     -5.178  0.0000E+00  0.3200E+02
     -5.047  0.0000E+00  0.3200E+02
     -4.915  0.0000E+00  0.3200E+02
     -4.784  0.0000E+00  0.3200E+02
     -4.652  0.0000E+00  0.3200E+02
     -4.521  0.0000E+00  0.3200E+02
     -4.390  0.0000E+00  0.3200E+02
     -4.258  0.0000E+00  0.3200E+02
     -4.127  0.0000E+00  0.3200E+02
     -3.995  0.0000E+00  0.3200E+02
     -3.864  0.0000E+00  0.3200E+02
     -3.733  0.0000E+00  0.3200E+02
     -3.601  0.0000E+00  0.3200E+02
     -3.470  0.0000E+00  0.3200E+02
     -3.338  0.0000E+00  0.3200E+02
     -3.207  0.0000E+00  0.3200E+02
     -3.075  0.0000E+00  0.3200E+02
     -2.944  0.0000E+00  0.3200E+02
     -2.813  0.0000E+00  0.3200E+02
     -2.681  0.0000E+00  0.3200E+02
     -2.550  0.0000E+00  0.3200E+02
     -2.418  0.0000E+00  0.3200E+02
     -2.287  0.0000E+00  0.3200E+02
     -2.156  0.0000E+00  0.3200E+02
     -2.024  0.0000E+00  0.3200E+02
     -1.893  0.0000E+00  0.3200E+02
     -1.761  0.0000E+00  0.3200E+02
     -1.630  0.0000E+00  0.3200E+02
     -1.499  0.0000E+00  0.3200E+02
     -1.367  0.0000E+00  0.3200E+02
     -1.236  0.0000E+00  0.3200E+02
     -1.104  0.0000E+00  0.3200E+02
     -0.973  0.0000E+00  0.3200E+02
     -0.842  0.0000E+00  0.3200E+02
     -0.710  0.0000E+00  0.3200E+02
     -0.579  0.0000E+00  0.3200E+02
     -0.447  0.0000E+00  0.3200E+02
     -0.316  0.0000E+00  0.3200E+02
     -0.185  0.0000E+00  0.3200E+02
     -0.053  0.0000E+00  0.3200E+02
      0.078  0.0000E+00  0.3200E+02
      0.210  0.0000E+00  0.3200E+02
      0.341  0.0000E+00  0.3200E+02
      0.472  0.0000E+00  0.3200E+02
      0.604  0.0000E+00  0.3200E+02
      0.735  0.0000E+00  0.3200E+02
      0.867  0.0000E+00  0.3200E+02
      0.998  0.0000E+00  0.3200E+02
      1.130  0.0000E+00  0.3200E+02
      1.261  0.0000E+00  0.3200E+02
      1.392  0.0000E+00  0.3200E+02
      1.524  0.0000E+00  0.3200E+02
      1.655  0.0000E+00  0.3200E+02
      1.787  0.8316E-09  0.3200E+02
      1.918  0.1285E-02  0.3200E+02
      2.049  0.6579E-01  0.3201E+02
      2.181  0.3459E+00  0.3205E+02
      2.312  0.3758E+00  0.3210E+02
      2.444  0.4559E+00  0.3216E+02
      2.575  0.1026E+01  0.3230E+02
      2.706  0.2599E+00  0.3233E+02
      2.838  0.1017E+01  0.3247E+02
      2.969  0.1141E+01  0.3262E+02
      3.101  0.7236E+00  0.3271E+02
      3.232  0.1648E+01  0.3293E+02
      3.363  0.5344E+00  0.3300E+02
      3.495  0.1694E+01  0.3322E+02
      3.626  0.1551E+01  0.3342E+02
      3.758  0.2086E+01  0.3370E+02
      3.889  0.9205E+00  0.3382E+02
      4.020  0.1460E+01  0.3401E+02
      4.152  0.3056E+01  0.3441E+02
      4.283  0.2342E+01  0.3472E+02
      4.415  0.1445E+01  0.3491E+02
      4.546  0.2591E+01  0.3525E+02
      4.677  0.4036E+01  0.3578E+02
      4.809  0.2940E+01  0.3617E+02
      4.940  0.2939E+01  0.3655E+02
      5.072  0.5365E+01  0.3726E+02
      5.203  0.4003E+01  0.3778E+02
      5.334  0.3481E+01  0.3824E+02
      5.466  0.3110E+01  0.3865E+02
      5.597  0.5456E+01  0.3937E+02
      5.729  0.3220E+01  0.3979E+02
      5.860  0.3761E+01  0.4029E+02
      5.992  0.4492E+01  0.4088E+02
      6.123  0.2653E+01  0.4122E+02
      6.254  0.4720E+01  0.4184E+02
      6.386  0.5100E+01  0.4251E+02
      6.517  0.6817E+01  0.4341E+02
      6.649  0.8711E+01  0.4456E+02
      6.780  0.6332E+01  0.4539E+02
      6.911  0.9908E+01  0.4669E+02
      7.043  0.9877E+01  0.4799E+02
      7.174  0.9068E+01  0.4918E+02
      7.306  0.6798E+01  0.5007E+02
      7.437  0.4722E+01  0.5069E+02
      7.568  0.4868E+01  0.5133E+02
      7.700  0.5651E+01  0.5207E+02
      7.831  0.3086E+01  0.5248E+02
      7.963  0.4179E+01  0.5303E+02
      8.094  0.1631E+01  0.5324E+02
      8.225  0.3935E+01  0.5376E+02
      8.357  0.3850E+01  0.5427E+02
      8.488  0.2115E+01  0.5454E+02
      8.620  0.1982E+01  0.5481E+02
      8.751  0.3509E+01  0.5527E+02
      8.882  0.4300E+01  0.5583E+02
      9.014  0.6672E+01  0.5671E+02
      9.145  0.9542E+01  0.5796E+02
      9.277  0.1166E+02  0.5949E+02
      9.408  0.1236E+02  0.6112E+02
      9.539  0.6303E+01  0.6195E+02
      9.671  0.6509E+01  0.6280E+02
      9.802  0.5735E+01  0.6356E+02
      9.934  0.1935E+01  0.6381E+02
     10.065  0.3275E+01  0.6424E+02
     10.196  0.3750E+01  0.6473E+02
     10.328  0.5020E+01  0.6539E+02
     10.459  0.5147E+01  0.6607E+02
     10.591  0.4085E+01  0.6661E+02
     10.722  0.6013E+01  0.6740E+02
     10.854  0.7683E+01  0.6841E+02
     10.985  0.4787E+01  0.6904E+02
     11.116  0.6964E+01  0.6995E+02
     11.248  0.8105E+01  0.7102E+02
     11.379  0.3664E+01  0.7150E+02
     11.511  0.6113E+01  0.7230E+02
     11.642  0.2729E+01  0.7266E+02
     11.773  0.6095E+01  0.7346E+02
     11.905  0.4733E+01  0.7408E+02
     12.036  0.4522E+01  0.7468E+02
     12.168  0.5809E+01  0.7544E+02
     12.299  0.8931E+01  0.7661E+02
     12.430  0.9257E+01  0.7783E+02
     12.562  0.9237E+01  0.7904E+02
     12.693  0.9421E+01  0.8028E+02
     12.825  0.1256E+02  0.8193E+02
     12.956  0.1331E+02  0.8368E+02
     13.087  0.8770E+01  0.8483E+02
     13.219  0.1121E+02  0.8630E+02
     13.350  0.9942E+01  0.8761E+02
     13.482  0.4544E+01  0.8821E+02
     13.613  0.2456E+01  0.8853E+02
     13.744  0.6978E+01  0.8945E+02
     13.876  0.5772E+01  0.9021E+02
     14.007  0.9999E+01  0.9152E+02
     14.139  0.1997E+01  0.9178E+02
     14.270  0.4963E+01  0.9243E+02
     14.401  0.3616E+01  0.9291E+02
     14.533  0.8607E+01  0.9404E+02
     14.664  0.6964E+01  0.9496E+02
     14.796  0.2879E+01  0.9533E+02
     14.927  0.1920E+01  0.9559E+02
     15.058  0.2154E+01  0.9587E+02
     15.190  0.9890E+00  0.9600E+02
     15.321  0.4143E-02  0.9600E+02
     15.453  0.1459E-09  0.9600E+02
     15.584  0.0000E+00  0.9600E+02
     15.716  0.0000E+00  0.9600E+02
     15.847  0.0000E+00  0.9600E+02
     15.978  0.0000E+00  0.9600E+02
     16.110  0.0000E+00  0.9600E+02
     16.241  0.0000E+00  0.9600E+02
     16.373  0.0000E+00  0.9600E+02
     16.504  0.0000E+00  0.9600E+02
     16.635  0.0000E+00  0.9600E+02
     16.767  0.0000E+00  0.9600E+02
     16.898  0.0000E+00  0.9600E+02
