    4    4    1    1
  0.5267689E+02  0.5950590E-09  0.5950590E-09  0.5950590E-09  0.5000000E-15
  1.000000000000000E-004
  CAR 
 Ar                                      
     32     35     48
 
  0.0000000E+00  0.0000000E+00  0.0000000E+00  0.1953125E-02
      1        -20.731606   1.000000
      2        -20.655115   1.000000
      3        -20.655115   1.000000
      4        -20.655115   1.000000
      5         -6.950076   1.000000
      6         -6.950076   1.000000
      7         -6.950076   1.000000
      8         -6.616562   1.000000
      9         -6.616562   1.000000
     10         -6.616562   1.000000
     11         -6.616562   1.000000
     12         -6.616562   1.000000
     13         -6.616562   1.000000
     14         -6.425951   1.000000
     15         -6.425951   1.000000
     16         -6.425951   1.000000
     17          1.978557   0.000000
     18          4.982619   0.000000
     19          4.982619   0.000000
     20          4.982619   0.000000
     21          6.496349   0.000000
     22          6.496349   0.000000
     23          6.496349   0.000000
     24          7.023000   0.000000
     25          7.023000   0.000000
     26          7.023000   0.000000
     27          9.081326   0.000000
     28          9.081326   0.000000
     29          9.081326   0.000000
     30         11.041698   0.000000
     31         11.041698   0.000000
     32         11.041698   0.000000
     33         11.041698   0.000000
     34         11.041698   0.000000
     35         11.041698   0.000000
     36         11.076673   0.000000
     37         11.076673   0.000000
     38         12.546373   0.000000
     39         12.546373   0.000000
     40         12.546374   0.000000
     41         12.636386   0.000000
     42         12.791998   0.000000
     43         12.791998   0.000000
     44         12.792000   0.000000
     45         13.000966   0.000000
     46         13.000966   0.000000
     47         13.000966   0.000000
     48         13.000966   0.000000
 
  0.1250000E+00 -0.1146134E-32  0.0000000E+00  0.1171875E-01
      1        -20.728771   1.000000
      2        -20.657995   1.000000
      3        -20.654983   1.000000
      4        -20.654983   1.000000
      5         -6.937956   1.000000
      6         -6.937956   1.000000
      7         -6.933658   1.000000
      8         -6.629868   1.000000
      9         -6.629868   1.000000
     10         -6.618631   1.000000
     11         -6.618631   1.000000
     12         -6.609460   1.000000
     13         -6.609460   1.000000
     14         -6.450203   1.000000
     15         -6.433355   1.000000
     16         -6.433355   1.000000
     17          2.077517   0.000000
     18          4.860231   0.000000
     19          5.066373   0.000000
     20          5.066373   0.000000
     21          6.518232   0.000000
     22          6.518232   0.000000
     23          6.557348   0.000000
     24          6.998437   0.000000
     25          6.998437   0.000000
     26          7.067225   0.000000
     27          8.873663   0.000000
     28          9.111280   0.000000
     29          9.111280   0.000000
     30         10.431143   0.000000
     31         10.431143   0.000000
     32         10.765406   0.000000
     33         10.837027   0.000000
     34         10.837027   0.000000
     35         11.119283   0.000000
     36         11.131437   0.000000
     37         11.131437   0.000000
     38         12.468726   0.000000
     39         12.647177   0.000000
     40         12.647177   0.000000
     41         12.956614   0.000000
     42         12.969228   0.000000
     43         12.969228   0.000000
     44         13.008059   0.000000
     45         13.008059   0.000000
     46         13.058624   0.000000
     47         13.288988   0.000000
     48         13.288999   0.000000
 
  0.2500000E+00 -0.2292269E-32  0.0000000E+00  0.1171875E-01
      1        -20.720598   1.000000
      2        -20.666286   1.000000
      3        -20.654877   1.000000
      4        -20.654877   1.000000
      5         -6.903198   1.000000
      6         -6.903198   1.000000
      7         -6.885603   1.000000
      8         -6.667475   1.000000
      9         -6.667475   1.000000
     10         -6.623593   1.000000
     11         -6.623593   1.000000
     12         -6.589160   1.000000
     13         -6.589160   1.000000
     14         -6.517016   1.000000
     15         -6.454380   1.000000
     16         -6.454380   1.000000
     17          2.363802   0.000000
     18          4.494632   0.000000
     19          5.295773   0.000000
     20          5.295773   0.000000
     21          6.564975   0.000000
     22          6.564975   0.000000
     23          6.734912   0.000000
     24          6.931408   0.000000
     25          6.931408   0.000000
     26          7.271017   0.000000
     27          8.406370   0.000000
     28          9.208587   0.000000
     29          9.208587   0.000000
     30          9.498587   0.000000
     31          9.498587   0.000000
     32         10.022802   0.000000
     33         10.428019   0.000000
     34         10.428019   0.000000
     35         11.245949   0.000000
     36         11.387423   0.000000
     37         11.387423   0.000000
     38         12.271008   0.000000
     39         12.690432   0.000000
     40         12.690432   0.000000
     41         12.837298   0.000000
     42         12.837298   0.000000
     43         13.013449   0.000000
     44         13.013449   0.000000
     45         13.759348   0.000000
     46         13.768632   0.000000
     47         13.915657   0.000000
     48         13.915664   0.000000
 
  0.3750000E+00 -0.1229491E-31  0.0000000E+00  0.1171875E-01
      1        -20.708321   1.000000
      2        -20.678790   1.000000
      3        -20.654797   1.000000
      4        -20.654797   1.000000
      5         -6.850521   1.000000
      6         -6.850521   1.000000
      7         -6.809936   1.000000
      8         -6.722993   1.000000
      9         -6.722993   1.000000
     10         -6.628547   1.000000
     11         -6.628547   1.000000
     12         -6.611223   1.000000
     13         -6.558605   1.000000
     14         -6.558605   1.000000
     15         -6.485671   1.000000
     16         -6.485671   1.000000
     17          2.807437   0.000000
     18          3.955680   0.000000
     19          5.584602   0.000000
     20          5.584602   0.000000
     21          6.640041   0.000000
     22          6.640041   0.000000
     23          6.835748   0.000000
     24          6.835748   0.000000
     25          7.019717   0.000000
     26          7.704844   0.000000
     27          7.880596   0.000000
     28          8.742390   0.000000
     29          8.742390   0.000000
     30          9.155145   0.000000
     31          9.386533   0.000000
     32          9.386533   0.000000
     33         10.014297   0.000000
     34         10.014297   0.000000
     35         11.433111   0.000000
     36         11.766830   0.000000
     37         11.766830   0.000000
     38         11.991647   0.000000
     39         12.570688   0.000000
     40         12.570688   0.000000
     41         12.717577   0.000000
     42         12.717577   0.000000
     43         13.023847   0.000000
     44         13.023847   0.000000
     45         14.496811   0.000000
     46         14.604961   0.000000
     47         14.604984   0.000000
     48         14.665985   0.000000
 
  0.5000000E+00 -0.4584538E-32  0.0000000E+00  0.5859375E-02
      1        -20.693468   1.000000
      2        -20.693468   1.000000
      3        -20.654884   1.000000
      4        -20.654884   1.000000
      5         -6.787346   1.000000
      6         -6.787346   1.000000
      7         -6.787346   1.000000
      8         -6.787346   1.000000
      9         -6.714381   1.000000
     10         -6.714381   1.000000
     11         -6.630597   1.000000
     12         -6.630597   1.000000
     13         -6.522285   1.000000
     14         -6.522285   1.000000
     15         -6.522285   1.000000
     16         -6.522285   1.000000
     17          3.360963   0.000000
     18          3.360963   0.000000
     19          5.734667   0.000000
     20          5.734667   0.000000
     21          6.731390   0.000000
     22          6.731390   0.000000
     23          6.731390   0.000000
     24          6.731390   0.000000
     25          7.408632   0.000000
     26          7.408632   0.000000
     27          8.354530   0.000000
     28          8.354530   0.000000
     29          8.431581   0.000000
     30          8.431581   0.000000
     31          9.663535   0.000000
     32          9.663535   0.000000
     33          9.663535   0.000000
     34          9.663535   0.000000
     35         11.696336   0.000000
     36         11.696336   0.000000
     37         12.185498   0.000000
     38         12.185498   0.000000
     39         12.185498   0.000000
     40         12.185498   0.000000
     41         12.721141   0.000000
     42         12.721141   0.000000
     43         13.016722   0.000000
     44         13.016722   0.000000
     45         14.830944   0.000000
     46         14.830961   0.000000
     47         15.103308   0.000000
     48         15.106279   0.000000
 
  0.1250000E+00  0.1250000E+00  0.0000000E+00  0.2343750E-01
      1        -20.726064   1.000000
      2        -20.657788   1.000000
      3        -20.657788   1.000000
      4        -20.655112   1.000000
      5         -6.926001   1.000000
      6         -6.924014   1.000000
      7         -6.924014   1.000000
      8         -6.656757   1.000000
      9         -6.622549   1.000000
     10         -6.622549   1.000000
     11         -6.610259   1.000000
     12         -6.610259   1.000000
     13         -6.605320   1.000000
     14         -6.484154   1.000000
     15         -6.441000   1.000000
     16         -6.428983   1.000000
     17          2.174409   0.000000
     18          4.942864   0.000000
     19          4.942864   0.000000
     20          5.147978   0.000000
     21          6.508942   0.000000
     22          6.573062   0.000000
     23          6.573062   0.000000
     24          6.977524   0.000000
     25          7.036916   0.000000
     26          7.036916   0.000000
     27          8.665306   0.000000
     28          9.112088   0.000000
     29          9.188093   0.000000
     30         10.372534   0.000000
     31         10.372534   0.000000
     32         10.495398   0.000000
     33         10.577496   0.000000
     34         10.686004   0.000000
     35         10.923155   0.000000
     36         10.923155   0.000000
     37         10.990978   0.000000
     38         12.647159   0.000000
     39         12.647159   0.000000
     40         12.781640   0.000000
     41         12.876815   0.000000
     42         12.876815   0.000000
     43         13.162782   0.000000
     44         13.177942   0.000000
     45         13.210504   0.000000
     46         13.294468   0.000000
     47         13.294468   0.000000
     48         13.435834   0.000000
 
  0.2500000E+00  0.1250000E+00  0.0000000E+00  0.4687500E-01
      1        -20.718187   1.000000
      2        -20.665893   1.000000
      3        -20.657404   1.000000
      4        -20.655315   1.000000
      5         -6.896425   1.000000
      6         -6.891736   1.000000
      7         -6.882932   1.000000
      8         -6.699816   1.000000
      9         -6.659557   1.000000
     10         -6.611618   1.000000
     11         -6.601638   1.000000
     12         -6.599888   1.000000
     13         -6.586580   1.000000
     14         -6.552818   1.000000
     15         -6.462690   1.000000
     16         -6.442504   1.000000
     17          2.455252   0.000000
     18          4.572448   0.000000
     19          5.171673   0.000000
     20          5.371916   0.000000
     21          6.490358   0.000000
     22          6.609459   0.000000
     23          6.734883   0.000000
     24          6.919963   0.000000
     25          6.943946   0.000000
     26          7.228612   0.000000
     27          8.256339   0.000000
     28          9.105974   0.000000
     29          9.304426   0.000000
     30          9.576486   0.000000
     31          9.653817   0.000000
     32         10.112861   0.000000
     33         10.167882   0.000000
     34         10.512269   0.000000
     35         10.830786   0.000000
     36         11.115626   0.000000
     37         11.166153   0.000000
     38         12.441444   0.000000
     39         12.530023   0.000000
     40         12.554754   0.000000
     41         12.965687   0.000000
     42         13.217517   0.000000
     43         13.291757   0.000000
     44         13.296887   0.000000
     45         13.308303   0.000000
     46         13.797107   0.000000
     47         13.866538   0.000000
     48         13.917519   0.000000
 
  0.3750000E+00  0.1250000E+00  0.0000000E+00  0.4687500E-01
      1        -20.706188   1.000000
      2        -20.677910   1.000000
      3        -20.656821   1.000000
      4        -20.655719   1.000000
      5         -6.854654   1.000000
      6         -6.839821   1.000000
      7         -6.817433   1.000000
      8         -6.750600   1.000000
      9         -6.714209   1.000000
     10         -6.640677   1.000000
     11         -6.611289   1.000000
     12         -6.602583   1.000000
     13         -6.570152   1.000000
     14         -6.551600   1.000000
     15         -6.494956   1.000000
     16         -6.472366   1.000000
     17          2.891836   0.000000
     18          4.031107   0.000000
     19          5.481649   0.000000
     20          5.645368   0.000000
     21          6.474488   0.000000
     22          6.670794   0.000000
     23          6.781796   0.000000
     24          6.837396   0.000000
     25          7.002092   0.000000
     26          7.646695   0.000000
     27          7.795627   0.000000
     28          8.889218   0.000000
     29          8.935159   0.000000
     30          8.972544   0.000000
     31          9.486728   0.000000
     32          9.620287   0.000000
     33          9.893525   0.000000
     34         10.099225   0.000000
     35         11.260750   0.000000
     36         11.398939   0.000000
     37         11.518485   0.000000
     38         12.102361   0.000000
     39         12.197937   0.000000
     40         12.261237   0.000000
     41         13.120005   0.000000
     42         13.282552   0.000000
     43         13.333593   0.000000
     44         13.351890   0.000000
     45         13.872245   0.000000
     46         13.980073   0.000000
     47         14.597250   0.000000
     48         14.694459   0.000000
 
  0.5000000E+00  0.1250000E+00  0.0000000E+00  0.2343750E-01
      1        -20.692067   1.000000
      2        -20.692067   1.000000
      3        -20.656251   1.000000
      4        -20.656251   1.000000
      5         -6.804073   1.000000
      6         -6.804073   1.000000
      7         -6.777580   1.000000
      8         -6.777580   1.000000
      9         -6.733380   1.000000
     10         -6.733380   1.000000
     11         -6.607842   1.000000
     12         -6.607842   1.000000
     13         -6.532719   1.000000
     14         -6.532719   1.000000
     15         -6.511204   1.000000
     16         -6.511204   1.000000
     17          3.438972   0.000000
     18          3.438972   0.000000
     19          5.716321   0.000000
     20          5.716321   0.000000
     21          6.570525   0.000000
     22          6.570525   0.000000
     23          6.749935   0.000000
     24          6.749935   0.000000
     25          7.361451   0.000000
     26          7.361451   0.000000
     27          8.253634   0.000000
     28          8.253634   0.000000
     29          8.697061   0.000000
     30          8.697061   0.000000
     31          9.660823   0.000000
     32          9.660823   0.000000
     33          9.754383   0.000000
     34          9.754383   0.000000
     35         11.740742   0.000000
     36         11.740742   0.000000
     37         11.747154   0.000000
     38         11.747154   0.000000
     39         11.908856   0.000000
     40         11.908856   0.000000
     41         13.221842   0.000000
     42         13.221842   0.000000
     43         13.356640   0.000000
     44         13.356640   0.000000
     45         14.199181   0.000000
     46         14.199181   0.000000
     47         15.039880   0.000000
     48         15.041961   0.000000
 
  0.2500000E+00  0.2500000E+00  0.0000000E+00  0.2343750E-01
      1        -20.711030   1.000000
      2        -20.664500   1.000000
      3        -20.664500   1.000000
      4        -20.656449   1.000000
      5         -6.874262   1.000000
      6         -6.874262   1.000000
      7         -6.858895   1.000000
      8         -6.748704   1.000000
      9         -6.636929   1.000000
     10         -6.636929   1.000000
     11         -6.622520   1.000000
     12         -6.579492   1.000000
     13         -6.579492   1.000000
     14         -6.574902   1.000000
     15         -6.486262   1.000000
     16         -6.439515   1.000000
     17          2.721365   0.000000
     18          4.793960   0.000000
     19          4.793960   0.000000
     20          5.577093   0.000000
     21          6.312090   0.000000
     22          6.746439   0.000000
     23          6.746439   0.000000
     24          6.888752   0.000000
     25          7.098712   0.000000
     26          7.098712   0.000000
     27          7.942462   0.000000
     28          8.895389   0.000000
     29          9.494713   0.000000
     30          9.659051   0.000000
     31          9.659051   0.000000
     32          9.939025   0.000000
     33         10.038179   0.000000
     34         10.192514   0.000000
     35         10.750425   0.000000
     36         10.750425   0.000000
     37         11.092358   0.000000
     38         12.203074   0.000000
     39         12.670586   0.000000
     40         12.670586   0.000000
     41         12.829349   0.000000
     42         12.829349   0.000000
     43         13.557033   0.000000
     44         13.604669   0.000000
     45         13.933093   0.000000
     46         13.933093   0.000000
     47         14.037421   0.000000
     48         14.195078   0.000000
 
  0.3750000E+00  0.2500000E+00  0.0000000E+00  0.4687500E-01
      1        -20.700363   1.000000
      2        -20.675210   1.000000
      3        -20.662610   1.000000
      4        -20.658263   1.000000
      5         -6.857806   1.000000
      6         -6.833604   1.000000
      7         -6.809183   1.000000
      8         -6.794497   1.000000
      9         -6.700764   1.000000
     10         -6.689088   1.000000
     11         -6.602833   1.000000
     12         -6.570204   1.000000
     13         -6.562985   1.000000
     14         -6.536264   1.000000
     15         -6.521295   1.000000
     16         -6.457494   1.000000
     17          3.138184   0.000000
     18          4.249021   0.000000
     19          5.119857   0.000000
     20          5.721152   0.000000
     21          6.224249   0.000000
     22          6.766448   0.000000
     23          6.844378   0.000000
     24          6.856797   0.000000
     25          6.964125   0.000000
     26          7.474383   0.000000
     27          7.589315   0.000000
     28          8.537976   0.000000
     29          9.247449   0.000000
     30          9.420307   0.000000
     31          9.620181   0.000000
     32          9.712511   0.000000
     33          9.718562   0.000000
     34         10.338780   0.000000
     35         10.730686   0.000000
     36         11.089280   0.000000
     37         11.464239   0.000000
     38         11.841794   0.000000
     39         12.093116   0.000000
     40         12.437415   0.000000
     41         13.215325   0.000000
     42         13.220926   0.000000
     43         13.650663   0.000000
     44         13.814975   0.000000
     45         13.881369   0.000000
     46         13.942207   0.000000
     47         14.581486   0.000000
     48         14.684744   0.000000
 
  0.5000000E+00  0.2500000E+00  0.0000000E+00  0.2343750E-01
      1        -20.687812   1.000000
      2        -20.687812   1.000000
      3        -20.660430   1.000000
      4        -20.660430   1.000000
      5         -6.831499   1.000000
      6         -6.831499   1.000000
      7         -6.774235   1.000000
      8         -6.774235   1.000000
      9         -6.749641   1.000000
     10         -6.749641   1.000000
     11         -6.562934   1.000000
     12         -6.562934   1.000000
     13         -6.562260   1.000000
     14         -6.562260   1.000000
     15         -6.492371   1.000000
     16         -6.492371   1.000000
     17          3.666732   0.000000
     18          3.666732   0.000000
     19          5.479872   0.000000
     20          5.479872   0.000000
     21          6.512628   0.000000
     22          6.512628   0.000000
     23          6.800345   0.000000
     24          6.800345   0.000000
     25          7.250659   0.000000
     26          7.250659   0.000000
     27          8.005309   0.000000
     28          8.005309   0.000000
     29          9.148559   0.000000
     30          9.148559   0.000000
     31          9.582450   0.000000
     32          9.582450   0.000000
     33          9.994321   0.000000
     34          9.994321   0.000000
     35         11.421775   0.000000
     36         11.421775   0.000000
     37         11.465766   0.000000
     38         11.465766   0.000000
     39         11.952339   0.000000
     40         11.952339   0.000000
     41         13.587715   0.000000
     42         13.587715   0.000000
     43         13.721604   0.000000
     44         13.721604   0.000000
     45         13.918852   0.000000
     46         13.918852   0.000000
     47         14.960438   0.000000
     48         14.962022   0.000000
 
  0.3750000E+00  0.3750000E+00  0.0000000E+00  0.2343750E-01
      1        -20.691692   1.000000
      2        -20.671277   1.000000
      3        -20.671277   1.000000
      4        -20.662120   1.000000
      5         -6.846415   1.000000
      6         -6.846415   1.000000
      7         -6.828849   1.000000
      8         -6.763387   1.000000
      9         -6.762850   1.000000
     10         -6.651200   1.000000
     11         -6.651200   1.000000
     12         -6.560400   1.000000
     13         -6.533972   1.000000
     14         -6.523248   1.000000
     15         -6.523248   1.000000
     16         -6.460468   1.000000
     17          3.526689   0.000000
     18          4.584420   0.000000
     19          4.584420   0.000000
     20          5.434364   0.000000
     21          6.397614   0.000000
     22          6.857800   0.000000
     23          6.918364   0.000000
     24          6.918364   0.000000
     25          7.179976   0.000000
     26          7.179976   0.000000
     27          7.347202   0.000000
     28          8.130854   0.000000
     29          9.390746   0.000000
     30          9.390746   0.000000
     31          9.508567   0.000000
     32          9.562230   0.000000
     33         10.000550   0.000000
     34         10.673541   0.000000
     35         10.673541   0.000000
     36         10.915203   0.000000
     37         11.436914   0.000000
     38         11.843503   0.000000
     39         12.493491   0.000000
     40         12.493491   0.000000
     41         12.902561   0.000000
     42         12.902561   0.000000
     43         13.587929   0.000000
     44         13.814367   0.000000
     45         14.203694   0.000000
     46         14.550988   0.000000
     47         14.550989   0.000000
     48         14.805939   0.000000
 
  0.5000000E+00  0.3750000E+00  0.0000000E+00  0.2343750E-01
      1        -20.681433   1.000000
      2        -20.681433   1.000000
      3        -20.666672   1.000000
      4        -20.666672   1.000000
      5         -6.846372   1.000000
      6         -6.846372   1.000000
      7         -6.814457   1.000000
      8         -6.814457   1.000000
      9         -6.707447   1.000000
     10         -6.707447   1.000000
     11         -6.606051   1.000000
     12         -6.606051   1.000000
     13         -6.520932   1.000000
     14         -6.520932   1.000000
     15         -6.483795   1.000000
     16         -6.483795   1.000000
     17          4.025089   0.000000
     18          4.025089   0.000000
     19          4.998427   0.000000
     20          4.998427   0.000000
     21          6.789582   0.000000
     22          6.789582   0.000000
     23          6.881602   0.000000
     24          6.881602   0.000000
     25          7.117345   0.000000
     26          7.117345   0.000000
     27          7.648016   0.000000
     28          7.648016   0.000000
     29          9.360326   0.000000
     30          9.360326   0.000000
     31          9.444764   0.000000
     32          9.444764   0.000000
     33         10.313810   0.000000
     34         10.313810   0.000000
     35         11.049011   0.000000
     36         11.049011   0.000000
     37         11.666921   0.000000
     38         11.666921   0.000000
     39         12.389853   0.000000
     40         12.389853   0.000000
     41         13.199217   0.000000
     42         13.199217   0.000000
     43         13.407480   0.000000
     44         13.407480   0.000000
     45         14.449502   0.000000
     46         14.449502   0.000000
     47         14.522732   0.000000
     48         14.522732   0.000000
 
  0.5000000E+00  0.5000000E+00  0.0000000E+00  0.5859375E-02
      1        -20.674158   1.000000
      2        -20.674158   1.000000
      3        -20.674158   1.000000
      4        -20.674158   1.000000
      5         -6.840645   1.000000
      6         -6.840645   1.000000
      7         -6.840645   1.000000
      8         -6.840645   1.000000
      9         -6.657083   1.000000
     10         -6.657083   1.000000
     11         -6.657083   1.000000
     12         -6.657083   1.000000
     13         -6.493074   1.000000
     14         -6.493074   1.000000
     15         -6.493074   1.000000
     16         -6.493074   1.000000
     17          4.483534   0.000000
     18          4.483534   0.000000
     19          4.483534   0.000000
     20          4.483534   0.000000
     21          6.987766   0.000000
     22          6.987766   0.000000
     23          6.987766   0.000000
     24          6.987766   0.000000
     25          7.209804   0.000000
     26          7.209804   0.000000
     27          7.209804   0.000000
     28          7.209804   0.000000
     29          9.374059   0.000000
     30          9.374059   0.000000
     31          9.374059   0.000000
     32          9.374059   0.000000
     33         10.657888   0.000000
     34         10.657888   0.000000
     35         10.657888   0.000000
     36         10.657888   0.000000
     37         12.385516   0.000000
     38         12.385516   0.000000
     39         12.385516   0.000000
     40         12.385516   0.000000
     41         12.925421   0.000000
     42         12.925421   0.000000
     43         12.925421   0.000000
     44         12.925421   0.000000
     45         14.627592   0.000000
     46         14.627601   0.000000
     47         14.627629   0.000000
     48         14.627821   0.000000
 
  0.1250000E+00  0.1250000E+00  0.1250000E+00  0.1562500E-01
      1        -20.723423   1.000000
      2        -20.657760   1.000000
      3        -20.657760   1.000000
      4        -20.657760   1.000000
      5         -6.915193   1.000000
      6         -6.915193   1.000000
      7         -6.915193   1.000000
      8         -6.645533   1.000000
      9         -6.645533   1.000000
     10         -6.645533   1.000000
     11         -6.598720   1.000000
     12         -6.598720   1.000000
     13         -6.598720   1.000000
     14         -6.517916   1.000000
     15         -6.435805   1.000000
     16         -6.435805   1.000000
     17          2.269169   0.000000
     18          5.022681   0.000000
     19          5.022681   0.000000
     20          5.022681   0.000000
     21          6.553028   0.000000
     22          6.553028   0.000000
     23          6.553028   0.000000
     24          7.025096   0.000000
     25          7.025096   0.000000
     26          7.025096   0.000000
     27          8.474995   0.000000
     28          9.188327   0.000000
     29          9.188327   0.000000
     30         10.424771   0.000000
     31         10.424771   0.000000
     32         10.424771   0.000000
     33         10.515811   0.000000
     34         10.515811   0.000000
     35         10.515811   0.000000
     36         10.770119   0.000000
     37         10.770119   0.000000
     38         12.779800   0.000000
     39         12.779800   0.000000
     40         12.779800   0.000000
     41         12.937188   0.000000
     42         12.937188   0.000000
     43         12.937188   0.000000
     44         13.181382   0.000000
     45         13.332022   0.000000
     46         13.332022   0.000000
     47         13.332022   0.000000
     48         13.854023   0.000000
 
  0.2500000E+00  0.1250000E+00  0.1250000E+00  0.4687500E-01
      1        -20.715781   1.000000
      2        -20.665521   1.000000
      3        -20.657700   1.000000
      4        -20.657700   1.000000
      5         -6.890629   1.000000
      6         -6.890629   1.000000
      7         -6.882493   1.000000
      8         -6.682635   1.000000