Ar                                      
           1
     5.950590    0.000000    0.000000
     0.000000    5.950590    0.000000
     0.000000    0.000000    5.950590
   Ar
     4
Direct configuration=     1
   0.00000000  0.00000000  0.00000000
   0.00000000  0.50000000  0.50000000
   0.50000000  0.00000000  0.50000000
   0.50000000  0.50000000  0.00000000
