Ge                                      
   1.00000000000000     
     3.528352    0.000000    2.037095
     1.176117    3.326562    2.037095
     0.000000    0.000000    4.074190
   Ge
     2
Direct
  0.000000  0.000000  0.000000
  0.250000  0.250000  0.250000
 
   40   40   40
  901.90      864.92      762.22      615.50      452.54      299.59      175.95      91.179      44.288      25.235    
  19.048      15.297      12.678      10.798      9.3931      8.3229      7.5208      6.9487      6.5706      6.3544    
  6.2835      6.3543      6.5705      6.9487      7.5208      8.3230      9.3931      10.798      12.678      15.296    
  19.048      25.235      44.288      91.179      175.95      299.59      452.54      615.50      762.22      864.92    
  864.92      794.88      670.22      516.22      360.15      224.69      123.95      61.780      32.197      22.192    
  17.837      14.795      12.645      11.061      9.8564      8.9401      8.2688      7.8068      7.5178      7.3780    
  7.3786      7.5187      7.8064      8.2679      8.9403      9.8574      11.061      12.644      14.794      17.838    
  22.193      32.196      61.779      123.95      224.69      360.15      516.22      670.23      794.88      864.92    
  762.22      670.22      539.11      394.17      259.25      151.60      79.290      40.547      25.498      20.296    
  16.890      14.501      12.769      11.462      10.461      9.7138      9.1866      8.8421      8.6462      8.5820    
  8.6462      8.8421      9.1866      9.7138      10.461      11.462      12.769      14.501      16.890      20.296    
  25.498      40.547      79.290      151.60      259.25      394.17      539.11      670.22      762.22      795.39    
  615.50      516.22      394.17      271.73      167.43      92.249      48.186      28.858      22.439      18.802    
  16.245      14.416      13.053      12.015      11.234      10.676      10.306      10.085      9.9796      9.9792    
  10.084      10.307      10.676      11.234      12.014      13.053      14.417      16.246      18.801      22.439    
  28.858      48.187      92.249      167.43      271.73      394.17      516.22      615.50      671.38      671.38    
  452.54      360.15      259.25      167.43      97.026      52.761      31.472      24.031      20.346      17.736    
  15.885      14.527      13.507      12.750      12.218      11.874      11.673      11.571      11.540      11.571    
  11.673      11.874      12.218      12.750      13.507      14.527      15.885      17.736      20.346      24.031    
  31.472      52.761      97.026      167.43      259.25      360.15      452.54      517.72      541.26      517.72    
  299.59      224.69      151.60      92.249      52.761      32.466      24.894      21.353      18.828      17.050    
  15.770      14.834      14.165      13.725      13.475      13.363      13.329      13.325      13.325      13.330    
  13.363      13.474      13.725      14.166      14.834      15.770      17.050      18.829      21.353      24.894    
  32.466      52.761      92.249      151.60      224.69      299.59      361.41      396.44      396.44      361.40    
  175.95      123.95      79.290      48.186      31.472      24.894      21.703      19.408      17.801      16.673    
  15.885      15.367      15.086      15.004      15.061      15.179      15.284      15.324      15.284      15.179    
  15.061      15.004      15.086      15.367      15.885      16.673      17.801      19.408      21.703      24.894    
  31.472      48.186      79.290      123.95      175.95      225.19      260.56      273.44      260.56      225.19    
  91.179      61.780      40.547      28.858      24.031      21.353      19.408      18.061      17.149      16.561    
  16.245      16.179      16.329      16.631      16.988      17.294      17.469      17.469      17.294      16.987    
  16.631      16.330      16.179      16.246      16.561      17.149      18.061      19.408      21.353      24.031    
  28.858      40.547      61.779      91.178      123.52      151.34      167.45      167.45      151.34      123.52    
  44.288      32.197      25.498      22.439      20.346      18.828      17.801      17.149      16.794      16.710    
  16.890      17.313      17.913      18.577      19.179      19.644      19.829      19.644      19.179      18.577    
  17.913      17.313      16.890      16.710      16.795      17.149      17.801      18.828      20.346      22.439    
  25.498      32.197      44.288      60.602      77.486      90.242      94.993      90.242      77.486      60.602    
  25.235      22.192      20.296      18.802      17.736      17.050      16.673      16.561      16.710      17.136    
  17.837      18.754      19.767      20.869      22.026      22.802      22.802      22.026      20.869      19.767    
  18.754      17.837      17.136      16.710      16.561      16.673      17.050      17.735      18.801      20.296    
  22.193      25.237      30.598      37.710      44.567      48.783      48.783      44.568      37.711      30.597    
  19.048      17.837      16.890      16.245      15.885      15.770      15.885      16.245      16.890      17.837    
  19.048      20.418      22.163      24.319      26.184      26.925      26.184      24.319      22.163      20.418    
  19.048      17.837      16.890      16.245      15.885      15.770      15.885      16.245      16.890      17.837    
  19.048      20.418      22.163      24.319      26.184      26.925      26.184      24.319      22.163      20.418    
  15.297      14.795      14.501      14.416      14.527      14.834      15.367      16.179      17.313      18.754    
  20.418      22.659      25.762      28.953      30.993      30.993      28.953      25.762      22.659      20.418    
  18.754      17.313      16.179      15.367      14.834      14.527      14.417      14.501      14.794      15.295    
  15.967      16.723      17.443      18.005      18.326      18.326      18.004      17.442      16.723      15.968    
  12.678      12.645      12.769      13.053      13.507      14.165      15.086      16.329      17.913      19.767    
  22.163      25.762      30.027      33.539      34.901      33.539      30.027      25.762      22.163      19.767    
  17.913      16.329      15.086      14.165      13.507      13.053      12.769      12.645      12.678      12.857    
  13.147      13.487      13.803      14.025      14.104      14.025      13.803      13.487      13.147      12.857    
  10.798      11.061      11.462      12.015      12.750      13.725      15.004      16.631      18.577      20.869    
  24.319      28.953      33.539      36.406      36.406      33.539      28.953      24.319      20.869      18.578    
  16.631      15.004      13.725      12.750      12.014      11.462      11.061      10.799      10.664      10.639    
  10.694      10.789      10.880      10.935      10.935      10.880      10.789      10.695      10.639      10.663    
  9.3931      9.8564      10.461      11.234      12.218      13.475      15.061      16.988      19.179      22.026    
  26.184      30.993      34.901      36.406      34.901      30.993      26.184      22.026      19.179      16.988    
  15.061      13.475      12.218      11.234      10.461      9.8564      9.3931      9.0561      8.8306      8.6967    
  8.6296      8.6036      8.5975      8.5972      8.5976      8.6036      8.6296      8.6967      8.8306      9.0561    
  8.3229      8.9401      9.7138      10.676      11.874      13.363      15.179      17.294      19.644      22.802    
  26.925      30.993      33.539      33.539      30.993      26.925      22.802      19.644      17.294      15.179    
  13.363      11.874      10.676      9.7144      8.9403      8.3223      7.8402      7.4779      7.2177      7.0394    
  6.9232      6.8540      6.8218      6.8219      6.8541      6.9229      7.0388      7.2176      7.4786      7.8413    
  7.5208      8.2688      9.1866      10.306      11.673      13.329      15.284      17.469      19.829      22.802    
  26.184      28.953      30.027      28.953      26.184      22.802      19.829      17.469      15.284      13.329    
  11.673      10.306      9.1866      8.2688      7.5208      6.9210      6.4527      6.0983      5.8385      5.6543    
  5.5310      5.4596      5.4361      5.4595      5.5310      5.6544      5.8385      6.0983      6.4527      6.9211    
  6.9487      7.8068      8.8421      10.085      11.571      13.325      15.324      17.469      19.644      22.026    
  24.319      25.762      25.762      24.319      22.026      19.644      17.469      15.325      13.325      11.571    
  10.084      8.8413      7.8064      6.9492      6.2490      5.6901      5.2564      4.9292      4.6890      4.5195    
  4.4102      4.3563      4.3563      4.4102      4.5196      4.6893      4.9295      5.2562      5.6893      6.2480    
  6.5706      7.5178      8.6462      9.9796      11.540      13.325      15.284      17.294      19.179      20.869    
  22.163      22.659      22.163      20.869      19.179      17.294      15.284      13.325      11.540      9.9797    
  8.6462      7.5178      6.5706      5.7857      5.1486      4.6445      4.2564      3.9654      3.7540      3.6092    
  3.5240      3.4958      3.5240      3.6092      3.7540      3.9654      4.2564      4.6445      5.1486      5.7857    
  6.3544      7.3780      8.5820      9.9792      11.571      13.330      15.179      16.987      18.577      19.767    
  20.418      20.418      19.767      18.578      16.988      15.179      13.329      11.571      9.9797      8.5829    
  7.3786      6.3542      5.4959      4.7906      4.2244      3.7809      3.4420      3.1902      3.0112      2.8955    
  2.8384      2.8384      2.8955      3.0112      3.1902      3.4418      3.7807      4.2247      4.7914      5.4967    
  6.2835      7.3786      8.6462      10.084      11.673      13.363      15.061      16.631      17.913      18.754    
  19.048      18.754      17.913      16.631      15.061      13.363      11.673      10.084      8.6462      7.3786    
  6.2835      5.3556      4.5859      3.9618      3.4671      3.0833      2.7926      2.5800      2.4344      2.3492    
  2.3211      2.3492      2.4344      2.5800      2.7926      3.0833      3.4671      3.9618      4.5859      5.3556    
  6.3543      7.5187      8.8421      10.307      11.874      13.474      15.004      16.330      17.313      17.837    
  17.837      17.313      16.329      15.004      13.475      11.874      10.306      8.8413      7.5178      6.3542    
  5.3556      4.5190      3.8347      3.2875      2.8589      2.5299      2.2839      2.1088      1.9961      1.9409    
  1.9410      1.9962      2.1089      2.2839      2.5299      2.8591      3.2876      3.8342      4.5181      5.3549    
  6.5705      7.8064      9.1866      10.676      12.218      13.725      15.086      16.179      16.890      17.136    
  16.890      16.179      15.086      13.725      12.218      10.676      9.1866      7.8064      6.5706      5.4959    
  4.5859      3.8347      3.2287      2.7501      2.3792      2.0982      1.8928      1.7527      1.6713      1.6446    
  1.6713      1.7527      1.8928      2.0982      2.3792      2.7501      3.2287      3.8347      4.5859      5.4958    
  6.9487      8.2679      9.7138      11.234      12.750      14.166      15.367      16.246      16.710      16.710    
  16.245      15.367      14.165      12.750      11.234      9.7144      8.2688      6.9492      5.7857      4.7906    
  3.9618      3.2875      2.7501      2.3299      2.0081      1.7689      1.5997      1.4918      1.4393      1.4393    
  1.4917      1.5996      1.7688      2.0082      2.3298      2.7499      3.2876      3.9624      4.7914      5.7861    
  7.5208      8.9403      10.461      12.014      13.507      14.834      15.885      16.561      16.795      16.561    
  15.885      14.834      13.507      12.014      10.461      8.9403      7.5208      6.2490      5.1486      4.2244    
  3.4671      2.8589      2.3792      2.0081      1.7283      1.5255      1.3888      1.3101      1.2844      1.3101    
  1.3888      1.5255      1.7283      2.0081      2.3792      2.8589      3.4671      4.2244      5.1486      6.2490    
  8.3230      9.8574      11.462      13.053      14.527      15.770      16.673      17.149      17.149      16.673    
  15.770      14.527      13.053      11.462      9.8564      8.3223      6.9210      5.6901      4.6445      3.7809    
  3.0833      2.5299      2.0982      1.7689      1.5255      1.3552      1.2476      1.1957      1.1957      1.2476    
  1.3553      1.5256      1.7688      2.0982      2.5299      3.0834      3.7807      4.6438      5.6893      6.9209    
  9.3931      11.061      12.769      14.417      15.885      17.050      17.801      18.061      17.801      17.050    
  15.885      14.417      12.769      11.061      9.3931      7.8402      6.4527      5.2564      4.2564      3.4420    
  2.7926      2.2839      1.8928      1.5997      1.3888      1.2476      1.1668      1.1405      1.1668      1.2476    
  1.3888      1.5997      1.8928      2.2839      2.7926      3.4420      4.2564      5.2563      6.4527      7.8402    
  10.798      12.644      14.501      16.246      17.736      18.829      19.408      19.408      18.828      17.735    
  16.245      14.501      12.645      10.799      9.0561      7.4779      6.0983      4.9292      3.9654      3.1902    
  2.5800      2.1088      1.7527      1.4918      1.3101      1.1957      1.1405      1.1405      1.1957      1.3100    
  1.4917      1.7527      2.1089      2.5800      3.1902      3.9653      4.9295      6.0991      7.4786      9.0560    
  12.678      14.794      16.890      18.801      20.346      21.353      21.703      21.353      20.346      18.801    
  16.890      14.794      12.678      10.664      8.8306      7.2177      5.8385      4.6890      3.7540      3.0112    
  2.4344      1.9961      1.6713      1.4393      1.2844      1.1957      1.1668      1.1957      1.2844      1.4393    
  1.6713      1.9961      2.4344      3.0112      3.7540      4.6890      5.8386      7.2177      8.8306      10.664    
  15.296      17.838      20.296      22.439      24.031      24.894      24.894      24.031      22.439      20.296    
  17.837      15.295      12.857      10.639      8.6967      7.0394      5.6543      4.5195      3.6092      2.8955    
  2.3492      1.9409      1.6446      1.4393      1.3101      1.2476      1.2476      1.3100      1.4393      1.6447    
  1.9410      2.3491      2.8955      3.6092      4.5196      5.6542      7.0388      8.6959      10.639      12.857    
  19.048      22.193      25.498      28.858      31.472      32.466      31.472      28.858      25.498      22.193    
  19.048      15.967      13.147      10.694      8.6296      6.9232      5.5310      4.4102      3.5240      2.8384    
  2.3211      1.9410      1.6713      1.4917      1.3888      1.3553      1.3888      1.4917      1.6713      1.9410    
  2.3211      2.8385      3.5240      4.4102      5.5310      6.9232      8.6295      10.694      13.147      15.967    
  25.235      32.196      40.547      48.187      52.761      52.761      48.186      40.547      32.197      25.237    
  20.418      16.723      13.487      10.789      8.6036      6.8540      5.4596      4.3563      3.4958      2.8384    
  2.3492      1.9962      1.7527      1.5996      1.5255      1.5256      1.5997      1.7527      1.9961      2.3491    
  2.8385      3.4958      4.3563      5.4595      6.8541      8.6040      10.789      13.488      16.723      20.417    
  44.288      61.779      79.290      92.249      97.026      92.249      79.290      61.779      44.288      30.598    
  22.163      17.443      13.803      10.880      8.5975      6.8218      5.4361      4.3563      3.5240      2.8955    
  2.4344      2.1089      1.8928      1.7688      1.7283      1.7688      1.8928      2.1089      2.4344      2.8955    
  3.5240      4.3563      5.4361      6.8218      8.5976      10.880      13.803      17.443      22.163      30.598    
  91.179      123.95      151.60      167.43      167.43      151.60      123.95      91.178      60.602      37.710    
  24.319      18.005      14.025      10.935      8.5972      6.8219      5.4595      4.4102      3.6092      3.0112    
  2.5800      2.2839      2.0982      2.0082      2.0081      2.0982      2.2839      2.5800      3.0112      3.6092    
  4.4102      5.4595      6.8218      8.5970      10.935      14.024      18.004      24.318      37.711      60.603    
  175.95      224.69      259.25      271.73      259.25      224.69      175.95      123.52      77.486      44.567    
  26.184      18.326      14.104      10.935      8.5976      6.8541      5.5310      4.5196      3.7540      3.1902    
  2.7926      2.5299      2.3792      2.3298      2.3792      2.5299      2.7926      3.1902      3.7540      4.5196    
  5.5310      6.8541      8.5976      10.935      14.104      18.326      26.184      44.567      77.486      123.52    
  299.59      360.15      394.17      394.17      360.15      299.59      225.19      151.34      90.242      48.783    
  26.925      18.326      14.025      10.880      8.6036      6.9229      5.6544      4.6893      3.9654      3.4418    
  3.0833      2.8591      2.7501      2.7499      2.8589      3.0834      3.4420      3.9653      4.6890      5.6542    
  6.9232      8.6040      10.880      14.024      18.326      26.926      48.783      90.242      151.34      225.19    
  452.54      516.22      539.11      516.22      452.54      361.41      260.56      167.45      94.993      48.783    
  26.184      18.004      13.803      10.789      8.6296      7.0388      5.8385      4.9295      4.2564      3.7807    
  3.4671      3.2876      3.2287      3.2876      3.4671      3.7807      4.2564      4.9295      5.8386      7.0388    
  8.6295      10.789      13.803      18.004      26.184      48.783      94.993      167.45      260.56      361.41    
  615.50      670.23      670.22      615.50      517.72      396.44      273.44      167.45      90.242      44.568    
  24.319      17.442      13.487      10.695      8.6967      7.2176      6.0983      5.2562      4.6445      4.2247    
  3.9618      3.8342      3.8347      3.9624      4.2244      4.6438      5.2563      6.0991      7.2177      8.6959    
  10.694      13.488      17.443      24.318      44.567      90.242      167.45      273.44      396.44      517.72    
  762.22      794.88      762.22      671.38      541.26      396.44      260.56      151.34      77.486      37.711    
  22.163      16.723      13.147      10.639      8.8306      7.4786      6.4527      5.6893      5.1486      4.7914    
  4.5859      4.5181      4.5859      4.7914      5.1486      5.6893      6.4527      7.4786      8.8306      10.639    
  13.147      16.723      22.163      37.711      77.486      151.34      260.56      396.44      541.26      671.38    
  864.92      864.92      795.39      671.38      517.72      361.40      225.19      123.52      60.602      30.597    
  20.418      15.968      12.857      10.663      9.0561      7.8413      6.9211      6.2480      5.7857      5.4967    
  5.3556      5.3549      5.4958      5.7861      6.2490      6.9209      7.8402      9.0560      10.664      12.857    
  15.967      20.417      30.598      60.603      123.52      225.19      361.41      517.72      671.38      795.38    
  864.92      794.88      670.22      516.22      360.15      224.69      123.95      61.780      32.197      22.192    
  17.837      14.794      12.645      11.061      9.8564      8.9401      8.2688      7.8068      7.5178      7.3780    
  7.3786      7.5187      7.8064      8.2679      8.9403      9.8574      11.061      12.644      14.794      17.838    
  22.193      32.196      61.779      123.95      224.69      360.15      516.22      670.23      794.88      864.92    
  794.88      699.28      563.02      412.33      271.83      159.38      83.394      42.271      26.072      20.622    
  17.136      14.698      12.937      11.611      10.595      9.8377      9.3035      8.9547      8.7563      8.6914    
  8.7563      8.9546      9.3035      9.8379      10.596      11.611      12.937      14.698      17.136      20.622    
  26.072      42.271      83.395      159.38      271.83      412.33      563.02      699.28      794.88      829.35    
  670.22      563.02      431.10      298.43      184.79      102.07      52.748      30.517      23.195      19.382    
  16.710      14.810      13.404      12.336      11.534      10.961      10.583      10.357      10.250      10.249    
  10.356      10.583      10.962      11.534      12.335      13.404      14.811      16.710      19.381      23.194    
  30.518      52.749      102.07      184.79      298.43      431.10      563.02      670.23      730.56      730.56    
  516.22      412.33      298.43      194.03      112.90      60.696      34.633      25.319      21.327      18.528    
  16.561      15.133      14.069      13.283      12.732      12.379      12.176      12.075      12.044      12.075    
  12.176      12.379      12.732      13.283      14.069      15.133      16.561      18.528      21.327      25.319    
  34.633      60.697      112.90      194.03      298.43      412.33      516.22      589.41      615.83      589.41    
  360.15      271.83      184.79      112.90      63.660      37.135      26.806      22.769      19.986      18.047    
  16.673      15.683      14.984      14.531      14.283      14.182      14.160      14.164      14.164      14.160    
  14.181      14.282      14.531      14.984      15.683      16.673      18.047      19.987      22.769      26.806    
  37.135      63.661      112.90      184.79      271.83      360.15      432.68      473.69      473.69      432.68    
  224.69      159.38      102.07      60.696      37.135      27.353      23.537      20.934      19.133      17.894    
  17.050      16.514      16.240      16.185      16.282      16.441      16.575      16.626      16.575      16.441    
  16.283      16.185      16.240      16.513      17.050      17.894      19.133      20.934      23.537      27.353    
  37.135      60.696      102.07      159.38      224.69      285.76      329.34      345.16      329.34      285.76    
  123.95      83.394      52.748      34.633      26.806      23.537      21.262      19.707      18.682      18.047    
  17.736      17.713      17.937      18.329      18.773      19.150      19.377      19.377      19.150      18.773    
  18.329      17.937      17.713      17.735      18.047      18.682      19.707      21.262      23.537      26.807    
  34.633      52.748      83.394      123.95      167.35      204.09      225.19      225.19      204.09      167.35    
  61.780      42.271      30.517      25.319      22.769      20.934      19.707      18.954      18.574      18.528    
  18.802      19.362      20.123      20.978      21.990      22.916      23.296      22.915      21.990      20.978    
  20.123      19.363      18.801      18.528      18.574      18.954      19.707      20.934      22.769      25.320    
  30.518      42.270      61.779      86.605      111.40      129.76      136.53      129.76      111.40      86.606    
  32.197      26.072      23.195      21.327      19.986      19.133      18.682      18.574      18.803      19.382    
  20.296      21.462      23.037      25.352      27.839      29.463      29.463      27.838      25.352      23.038    
  21.463      20.296      19.381      18.802      18.574      18.682      19.133      19.986      21.327      23.195    
  26.072      32.197      42.359      54.888      66.413      73.326      73.326      66.413      54.888      42.359    
  22.192      20.622      19.382      18.528      18.047      17.894      18.047      18.528      19.382      20.622    
  22.192      24.627      28.585      33.333      37.244      38.759      37.244      33.333      28.586      24.628    
  22.193      20.621      19.381      18.528      18.047      17.895      18.047      18.528      19.381      20.621    
  22.193      24.628      28.586      33.333      37.244      38.759      37.244      33.333      28.585      24.627    
  17.837      17.136      16.710      16.561      16.673      17.050      17.736      18.802      20.296      22.192    
  25.235      30.597      37.711      44.567      48.783      48.783      44.567      37.710      30.598      25.237    
  22.193      20.296      18.801      17.735      17.050      16.673      16.561      16.710      17.136      17.837    
  18.754      19.767      20.869      22.026      22.802      22.802      22.026      20.869      19.767      18.754    
  14.794      14.698      14.810      15.133      15.683      16.514      17.713      19.362      21.462      24.627    
  30.597      39.382      49.019      56.548      59.394      56.547      49.018      39.382      30.598      24.628    
  21.463      19.362      17.713      16.513      15.683      15.133      14.811      14.699      14.794      15.083    
  15.518      16.014      16.467      16.782      16.894      16.781      16.467      16.015      15.519      15.084    
  12.645      12.937      13.404      14.069      14.984      16.240      17.937      20.123      23.037      28.585    
  37.711      49.019      59.472      65.759      65.759      59.472      49.018      37.710      28.586      23.038    
  20.123      17.937      16.240      14.984      14.069      13.404      12.937      12.645      12.516      12.532    
  12.652      12.819      12.973      13.063      13.063      12.973      12.819      12.652      12.532      12.516    
  11.061      11.611      12.336      13.283      14.531      16.185      18.329      20.978      25.352      33.333    
  44.567      56.548      65.759      69.217      65.759      56.547      44.567      33.333      25.352      20.978    
  18.329      16.185      14.531      13.282      12.335      11.610      11.061      10.668      10.412      10.274    
  10.221      10.217      10.229      10.235      10.229      10.217      10.221      10.274      10.411      10.667    
  9.8564      10.595      11.534      12.732      14.283      16.282      18.773      21.990      27.839      37.244    
  48.783      59.394      65.759      65.759      59.394      48.783      37.244      27.838      21.990      18.773    
  16.283      14.283      12.732      11.534      10.596      9.8565      9.2814      8.8495      8.5424      8.3377    
  8.2108      8.1392      8.1074      8.1075      8.1393      8.2107      8.3376      8.5423      8.8497      9.2815    
  8.9401      9.8377      10.961      12.379      14.182      16.441      19.150      22.916      29.463      38.759    
  48.783      56.547      59.472      56.547      48.783      38.758      29.463      22.915      19.150      16.441    
  14.181      12.380      10.962      9.8386      8.9403      8.2244      7.6642      7.2394      6.9294      6.7128    
  6.5706      6.4896      6.4634      6.4897      6.5705      6.7126      6.9293      7.2399      7.6651      8.2251    
  8.2688      9.3035      10.583      12.176      14.160      16.575      19.377      23.296      29.463      37.244    
  44.567      49.018      49.018      44.567      37.244      29.463      23.295      19.377      16.575      14.160    
  12.176      10.583      9.3036      8.2689      7.4330      6.7671      6.2493      5.8586      5.5731      5.3735    
  5.2461      5.1836      5.1835      5.2460      5.3736      5.5732      5.8586      6.2492      6.7671      7.4331    
  7.8068      8.9547      10.357      12.075      14.164      16.626      19.377      22.915      27.838      33.333    
  37.710      39.382      37.710      33.333      27.838      22.915      19.377      16.626      14.164      12.075    
  10.356      8.9537      7.8064      6.8687      6.1112      5.5125      5.0520      4.7080      4.4593      4.2900    
  4.1909      4.1581      4.1908      4.2900      4.4594      4.7081      5.0519      5.5118      6.1103      6.8682    
  7.5178      8.7563      10.250      12.044      14.164      16.575      19.150      21.990      25.352      28.586    
  30.598      30.598      28.586      25.352      21.990      19.150      16.575      14.164      12.044      10.250    
  8.7562      7.5178      6.4949      5.6591      4.9892      4.4656      4.0675      3.7736      3.5657      3.4316    
  3.3656      3.3657      3.4317      3.5657      3.7735      4.0675      4.4657      4.9893      5.6591      6.4948    
  7.3780      8.6914      10.249      12.075      14.160      16.441      18.773      20.978      23.038      24.628    
  25.237      24.628      23.038      20.978      18.773      16.441      14.160      12.075      10.250      8.6923    
  7.3787      6.2812      5.3760      4.6431      4.0628      3.6145      3.2773      3.0323      2.8651      2.7672    
  2.7348      2.7671      2.8651      3.0323      3.2773      3.6144      4.0630      4.6438      5.3768      6.2813    
  7.3786      8.7563      10.356      12.176      14.181      16.283      18.329      20.123      21.463      22.193    
  22.193      21.463      20.123      18.329      16.283      14.181      12.176      10.356      8.7562      7.3787    
  6.2114      5.2390      4.4449      3.8106      3.3150      2.9366      2.6554      2.4560      2.3278      2.2650    
  2.2649      2.3278      2.4560      2.6555      2.9366      3.3150      3.8106      4.4449      5.2390      6.2113    
  7.5187      8.9546      10.583      12.379      14.282      16.185      17.937      19.363      20.296      20.621    