Ge                                      
   1.00000000000000     
     3.528352    0.000000    2.037095
     1.176117    3.326562    2.037095
     0.000000    0.000000    4.074190
   Ge
     2
Direct
  0.000000  0.000000  0.000000
  0.250000  0.250000  0.250000
 
   40   40   40
 0.90189970803E+03 0.86491680630E+03 0.76222281313E+03 0.61550139286E+03 0.45254212760E+03
 0.29958587219E+03 0.17594780017E+03 0.91178987925E+02 0.44287876413E+02 0.25235394169E+02
 0.19047803139E+02 0.15296506775E+02 0.12677748562E+02 0.10797886027E+02 0.93931147136E+01
 0.83229445702E+01 0.75208196920E+01 0.69487293972E+01 0.65705677898E+01 0.63543593374E+01
 0.62835065638E+01 0.63543464027E+01 0.65705497145E+01 0.69487171032E+01 0.75208207966E+01
 0.83229584510E+01 0.93931319600E+01 0.10797894535E+02 0.12677743895E+02 0.15296497344E+02
 0.19047802241E+02 0.25235405189E+02 0.44287888317E+02 0.91178987884E+02 0.17594778850E+03
 0.29958586100E+03 0.45254212574E+03 0.61550139725E+03 0.76222281612E+03 0.86491680623E+03
 0.86491680630E+03 0.79487976495E+03 0.67022485376E+03 0.51622432891E+03 0.36015364789E+03
 0.22469174428E+03 0.12394772668E+03 0.61779933045E+02 0.32196811716E+02 0.22192045067E+02
 0.17837212606E+02 0.14794502803E+02 0.12644794799E+02 0.11061345950E+02 0.98563836057E+01
 0.89401343026E+01 0.82688388166E+01 0.78067613941E+01 0.75178334571E+01 0.73779890387E+01
 0.73786480106E+01 0.75186960170E+01 0.78063921957E+01 0.82679390347E+01 0.89403305688E+01
 0.98574032569E+01 0.11061431013E+02 0.12643699592E+02 0.14793962115E+02 0.17838027356E+02
 0.22192725264E+02 0.32196112497E+02 0.61778956902E+02 0.12394796176E+03 0.22469243270E+03
 0.36015318784E+03 0.51622346126E+03 0.67022592435E+03 0.79488272384E+03 0.86491847206E+03
 0.76222281313E+03 0.67022485376E+03 0.53910776249E+03 0.39417199820E+03 0.25924545006E+03
 0.15160368326E+03 0.79290000366E+02 0.40547239800E+02 0.25497835888E+02 0.20296309603E+02
 0.16889720740E+02 0.14500763211E+02 0.12769304883E+02 0.11462272226E+02 0.10461317749E+02
 0.97138269522E+01 0.91866051810E+01 0.88421048182E+01 0.86462095004E+01 0.85820398894E+01
 0.86462264136E+01 0.88421138459E+01 0.91865956809E+01 0.97138197575E+01 0.10461333505E+02
 0.11462299166E+02 0.12769315219E+02 0.14500752397E+02 0.16889710922E+02 0.20296316694E+02
 0.25497852670E+02 0.40547253189E+02 0.79290005477E+02 0.15160367526E+03 0.25924542454E+03
 0.39417197215E+03 0.53910777244E+03 0.67022491000E+03 0.76222287003E+03 0.79538693822E+03
 0.61550139286E+03 0.51622432891E+03 0.39417199820E+03 0.27173458420E+03 0.16742636062E+03
 0.92248959676E+02 0.48186236770E+02 0.28857594743E+02 0.22439352999E+02 0.18801981769E+02
 0.16245465106E+02 0.14415794599E+02 0.13053144107E+02 0.12014624378E+02 0.11233689886E+02
 0.10675937319E+02 0.10306463787E+02 0.10084613912E+02 0.99796477696E+01 0.99792208038E+01
 0.10084020752E+02 0.10306619125E+02 0.10676473565E+02 0.11233628967E+02 0.12014079927E+02
 0.13053145500E+02 0.14416505233E+02 0.16245833065E+02 0.18801478996E+02 0.22438893891E+02
 0.28858049891E+02 0.48187015453E+02 0.92249037366E+02 0.16742596259E+03 0.27173460002E+03
 0.39417214917E+03 0.51622342344E+03 0.61549952194E+03 0.67138389839E+03 0.67138490968E+03
 0.45254212760E+03 0.36015364789E+03 0.25924545006E+03 0.16742636062E+03 0.97026087612E+02
 0.52761256120E+02 0.31472249550E+02 0.24030974524E+02 0.20345744078E+02 0.17735874209E+02
 0.15884614730E+02 0.14526740632E+02 0.13507176954E+02 0.12750358879E+02 0.12217708835E+02
 0.11873757973E+02 0.11672982654E+02 0.11570924928E+02 0.11539740904E+02 0.11570926682E+02
 0.11672969611E+02 0.11873746685E+02 0.12217729055E+02 0.12750391917E+02 0.13507185171E+02
 0.14526741460E+02 0.15884647213E+02 0.17735914226E+02 0.20345740138E+02 0.24030945402E+02
 0.31472252836E+02 0.52761281979E+02 0.97026083109E+02 0.16742633759E+03 0.25924546203E+03
 0.36015367814E+03 0.45254211333E+03 0.51772190975E+03 0.54126441803E+03 0.51772195411E+03
 0.29958587219E+03 0.22469174428E+03 0.15160368326E+03 0.92248959676E+02 0.52761256120E+02
 0.32466447418E+02 0.24893894524E+02 0.21352570946E+02 0.18828390403E+02 0.17050087713E+02
 0.15770044622E+02 0.14834128000E+02 0.14165483196E+02 0.13724587189E+02 0.13474516746E+02
 0.13362986738E+02 0.13329382148E+02 0.13325030743E+02 0.13325204788E+02 0.13329661449E+02
 0.13363021541E+02 0.13474368775E+02 0.13724561451E+02 0.14165593566E+02 0.14834094670E+02
 0.15769803682E+02 0.17049943116E+02 0.18828538839E+02 0.21352751202E+02 0.24893718265E+02
 0.32465935354E+02 0.52760843402E+02 0.92249022660E+02 0.15160421922E+03 0.22469248920E+03
 0.29958656389E+03 0.36140520792E+03 0.39644010124E+03 0.39643993090E+03 0.36140473100E+03
 0.17594780017E+03 0.12394772668E+03 0.79290000366E+02 0.48186236770E+02 0.31472249550E+02
 0.24893894524E+02 0.21702764530E+02 0.19407639474E+02 0.17801419566E+02 0.16673090769E+02
 0.15884639089E+02 0.15367464222E+02 0.15086196403E+02 0.15003837237E+02 0.15061069805E+02
 0.15179454540E+02 0.15283912226E+02 0.15324363739E+02 0.15283930176E+02 0.15179474529E+02
 0.15061071900E+02 0.15003819099E+02 0.15086178630E+02 0.15367462891E+02 0.15884642211E+02
 0.16673078849E+02 0.17801399468E+02 0.19407634966E+02 0.21702778835E+02 0.24893905997E+02
 0.31472242431E+02 0.48186215620E+02 0.79289978105E+02 0.12394771935E+03 0.17594782651E+03
 0.22518918880E+03 0.26056412193E+03 0.27344105474E+03 0.26056406910E+03 0.22518912957E+03
 0.91178987925E+02 0.61779933045E+02 0.40547239800E+02 0.28857594743E+02 0.24030974524E+02
 0.21352570946E+02 0.19407639474E+02 0.18061236824E+02 0.17149090564E+02 0.16560864184E+02
 0.16245475340E+02 0.16179207759E+02 0.16329469377E+02 0.16631164863E+02 0.16987523181E+02
 0.17294326966E+02 0.17469334483E+02 0.17469318821E+02 0.17294267468E+02 0.16987429600E+02
 0.16631110865E+02 0.16329515971E+02 0.16179312849E+02 0.16245549678E+02 0.16560891101E+02
 0.17149107178E+02 0.18061237374E+02 0.19407637714E+02 0.21352728374E+02 0.24031419881E+02
 0.28858032650E+02 0.40547046254E+02 0.61778928599E+02 0.91177906334E+02 0.12351871612E+03
 0.15134035380E+03 0.16744856237E+03 0.16744817543E+03 0.15133979108E+03 0.12351895352E+03
 0.44287876413E+02 0.32196811716E+02 0.25497835888E+02 0.22439352999E+02 0.20345744078E+02
 0.18828390403E+02 0.17801419566E+02 0.17149090564E+02 0.16794497862E+02 0.16709890193E+02
 0.16889718347E+02 0.17312608548E+02 0.17912787095E+02 0.18577417041E+02 0.19178973475E+02
 0.19643595489E+02 0.19829027397E+02 0.19643605842E+02 0.19179003777E+02 0.18577443522E+02
 0.17912772796E+02 0.17312569158E+02 0.16889707473E+02 0.16709916777E+02 0.16794517592E+02
 0.17149080291E+02 0.17801399738E+02 0.18828372493E+02 0.20345717965E+02 0.22439330274E+02
 0.25497843935E+02 0.32196837578E+02 0.44287873958E+02 0.60601526226E+02 0.77486133609E+02
 0.90242399212E+02 0.94992728067E+02 0.90242415340E+02 0.77486173759E+02 0.60601566388E+02
 0.25235394169E+02 0.22192045067E+02 0.20296309603E+02 0.18801981769E+02 0.17735874209E+02
 0.17050087713E+02 0.16673090769E+02 0.16560864184E+02 0.16709890193E+02 0.17136373848E+02
 0.17837236725E+02 0.18754386735E+02 0.19766887304E+02 0.20869150875E+02 0.22025632182E+02
 0.22801678776E+02 0.22801697427E+02 0.22025693165E+02 0.20869231664E+02 0.19766916366E+02
 0.18754319553E+02 0.17837116998E+02 0.17136280174E+02 0.16709863574E+02 0.16560900553E+02
 0.16673120818E+02 0.17049946396E+02 0.17735441809E+02 0.18801463423E+02 0.20296230115E+02
 0.22192739298E+02 0.25236503371E+02 0.30597660644E+02 0.37710296955E+02 0.44566721452E+02
 0.48782966068E+02 0.48783380417E+02 0.44567502176E+02 0.37710544806E+02 0.30596980579E+02
 0.19047803139E+02 0.17837212606E+02 0.16889720740E+02 0.16245465106E+02 0.15884614730E+02
 0.15770044622E+02 0.15884639089E+02 0.16245475340E+02 0.16889718347E+02 0.17837236725E+02
 0.19047849343E+02 0.20417674263E+02 0.22163338514E+02 0.24318876527E+02 0.26183891616E+02
 0.26925314202E+02 0.26183869557E+02 0.24318864478E+02 0.22163337132E+02 0.20417654502E+02
 0.19047814168E+02 0.17837216186E+02 0.16889711327E+02 0.16245462272E+02 0.15884637875E+02
 0.15770081550E+02 0.15884656836E+02 0.16245460156E+02 0.16889688135E+02 0.17837211804E+02
 0.19047828392E+02 0.20417647842E+02 0.22163311567E+02 0.24318862645E+02 0.26183892567E+02
 0.26925320098E+02 0.26183875820E+02 0.24318873876E+02 0.22163345831E+02 0.20417652375E+02
 0.15296506775E+02 0.14794502803E+02 0.14500763211E+02 0.14415794599E+02 0.14526740632E+02
 0.14834128000E+02 0.15367464222E+02 0.16179207759E+02 0.17312608548E+02 0.18754386735E+02
 0.20417674263E+02 0.22659035079E+02 0.25762409802E+02 0.28953136837E+02 0.30993194404E+02
 0.30993123664E+02 0.28953052640E+02 0.25762453978E+02 0.22659096798E+02 0.20417611978E+02
 0.18754321108E+02 0.17312704343E+02 0.16179328173E+02 0.15367399358E+02 0.14834073864E+02
 0.14527117158E+02 0.14416517842E+02 0.14501109328E+02 0.14793937863E+02 0.15295396144E+02
 0.15967264246E+02 0.16723081914E+02 0.17442693184E+02 0.18004740613E+02 0.18325718160E+02
 0.18325565278E+02 0.18004311713E+02 0.17442229176E+02 0.16723091812E+02 0.15968044516E+02
 0.12677748562E+02 0.12644794799E+02 0.12769304883E+02 0.13053144107E+02 0.13507176954E+02
 0.14165483196E+02 0.15086196403E+02 0.16329469377E+02 0.17912787095E+02 0.19766887304E+02
 0.22163338514E+02 0.25762409802E+02 0.30026841726E+02 0.33538974704E+02 0.34900598650E+02
 0.33538967886E+02 0.30026852157E+02 0.25762431548E+02 0.22163340116E+02 0.19766871289E+02
 0.17912786846E+02 0.16329485431E+02 0.15086195207E+02 0.14165462510E+02 0.13507172695E+02
 0.13053165413E+02 0.12769319773E+02 0.12644788855E+02 0.12677743442E+02 0.12856814409E+02
 0.13146913523E+02 0.13487213405E+02 0.13802987527E+02 0.14024589515E+02 0.14104078490E+02
 0.14024584083E+02 0.13802994389E+02 0.13487228812E+02 0.13146917045E+02 0.12856809546E+02
 0.10797886027E+02 0.11061345950E+02 0.11462272226E+02 0.12014624378E+02 0.12750358879E+02
 0.13724587189E+02 0.15003837237E+02 0.16631164863E+02 0.18577417041E+02 0.20869150875E+02
 0.24318876527E+02 0.28953136837E+02 0.33538974704E+02 0.36406363760E+02 0.36406383825E+02
 0.33538965273E+02 0.28953041705E+02 0.24318807885E+02 0.20869214710E+02 0.18577508037E+02
 0.16631136153E+02 0.15003756117E+02 0.13724559337E+02 0.12750197581E+02 0.12014085482E+02
 0.11461660064E+02 0.11061423010E+02 0.10798898685E+02 0.10663978712E+02 0.10639237510E+02
 0.10694371042E+02 0.10788833863E+02 0.10880458513E+02 0.10935368541E+02 0.10935262990E+02
 0.10880481393E+02 0.10789348210E+02 0.10694903422E+02 0.10638935685E+02 0.10662829793E+02
 0.93931147136E+01 0.98563836057E+01 0.10461317749E+02 0.11233689886E+02 0.12217708835E+02
 0.13474516746E+02 0.15061069805E+02 0.16987523181E+02 0.19178973475E+02 0.22025632182E+02
 0.26183891616E+02 0.30993194404E+02 0.34900598650E+02 0.36406383825E+02 0.34900547753E+02
 0.30993139197E+02 0.26183863796E+02 0.22025622389E+02 0.19178968465E+02 0.16987529967E+02
 0.15061090793E+02 0.13474534582E+02 0.12217713473E+02 0.11233695497E+02 0.10461336542E+02
 0.98564043638E+01 0.93931231714E+01 0.90560846722E+01 0.88305839972E+01 0.86967094699E+01
 0.86295556831E+01 0.86036274456E+01 0.85975373781E+01 0.85971628912E+01 0.85975508019E+01
 0.86036409233E+01 0.86295558967E+01 0.86966984566E+01 0.88305755603E+01 0.90560825514E+01
 0.83229445702E+01 0.89401343026E+01 0.97138269522E+01 0.10675937319E+02 0.11873757973E+02
 0.13362986738E+02 0.15179454540E+02 0.17294326966E+02 0.19643595489E+02 0.22801678776E+02
 0.26925314202E+02 0.30993123664E+02 0.33538967886E+02 0.33538965273E+02 0.30993139197E+02
 0.26925361009E+02 0.22801705752E+02 0.19643554313E+02 0.17294244714E+02 0.15179397049E+02
 0.13363023908E+02 0.11874002499E+02 0.10676469925E+02 0.97144458360E+01 0.89403173888E+01
 0.83223300499E+01 0.78402364092E+01 0.74779021912E+01 0.72176894792E+01 0.70393624974E+01
 0.69232443411E+01 0.68539761155E+01 0.68218076273E+01 0.68219481619E+01 0.68540969531E+01
 0.69229177876E+01 0.70387747092E+01 0.72175584859E+01 0.74786121325E+01 0.78413151167E+01
 0.75208196920E+01 0.82688388166E+01 0.91866051810E+01 0.10306463787E+02 0.11672982654E+02
 0.13329382148E+02 0.15283912226E+02 0.17469334483E+02 0.19829027397E+02 0.22801697427E+02
 0.26183869557E+02 0.28953052640E+02 0.30026852157E+02 0.28953041705E+02 0.26183863796E+02
 0.22801705752E+02 0.19829045964E+02 0.17469358630E+02 0.15283933871E+02 0.13329385294E+02
 0.11672964609E+02 0.10306448279E+02 0.91866094367E+01 0.82688445629E+01 0.75208057290E+01
 0.69210494599E+01 0.64527061936E+01 0.60983394006E+01 0.58385358150E+01 0.56543425126E+01
 0.55309772964E+01 0.54595513168E+01 0.54360690180E+01 0.54595171397E+01 0.55309571785E+01
 0.56543542326E+01 0.58385467209E+01 0.60983316771E+01 0.64527042696E+01 0.69210673827E+01
 0.69487293972E+01 0.78067613941E+01 0.88421048182E+01 0.10084613912E+02 0.11570924928E+02
 0.13325030743E+02 0.15324363739E+02 0.17469318821E+02 0.19643605842E+02 0.22025693165E+02
 0.24318864478E+02 0.25762453978E+02 0.25762431548E+02 0.24318807885E+02 0.22025622389E+02
 0.19643554313E+02 0.17469358630E+02 0.15324542993E+02 0.13325218650E+02 0.11570809544E+02
 0.10084017691E+02 0.88413183547E+01 0.78064050880E+01 0.69491653059E+01 0.62489622888E+01
 0.56900593991E+01 0.52563586828E+01 0.49291714843E+01 0.46889969348E+01 0.45194986732E+01
 0.44102405789E+01 0.43563466441E+01 0.43563048462E+01 0.44101996414E+01 0.45196287487E+01
 0.46893398128E+01 0.49294711679E+01 0.52561998251E+01 0.56893040211E+01 0.62480285779E+01
 0.65705677898E+01 0.75178334571E+01 0.86462095004E+01 0.99796477696E+01 0.11539740904E+02
 0.13325204788E+02 0.15283930176E+02 0.17294267468E+02 0.19179003777E+02 0.20869231664E+02
 0.22163337132E+02 0.22659096798E+02 0.22163340116E+02 0.20869214710E+02 0.19178968465E+02
 0.17294244714E+02 0.15283933871E+02 0.13325218650E+02 0.11539753191E+02 0.99796616927E+01
 0.86462188993E+01 0.75178263216E+01 0.65705549051E+01 0.57857143051E+01 0.51485713617E+01
 0.46444706479E+01 0.42563710865E+01 0.39653996479E+01 0.37539699462E+01 0.36091744481E+01
 0.35239787479E+01 0.34957651107E+01 0.35239990522E+01 0.36091868606E+01 0.37539671126E+01
 0.39654011131E+01 0.42563797692E+01 0.46444673011E+01 0.51485559858E+01 0.57857106189E+01
 0.63543593374E+01 0.73779890387E+01 0.85820398894E+01 0.99792208038E+01 0.11570926682E+02
 0.13329661449E+02 0.15179474529E+02 0.16987429600E+02 0.18577443522E+02 0.19766916366E+02
 0.20417654502E+02 0.20417611978E+02 0.19766871289E+02 0.18577508037E+02 0.16987529967E+02
 0.15179397049E+02 0.13329385294E+02 0.11570809544E+02 0.99796616927E+01 0.85829200216E+01
 0.73786277944E+01 0.63541753122E+01 0.54958525011E+01 0.47906059575E+01 0.42244003343E+01
 0.37808947299E+01 0.34420209364E+01 0.31902419112E+01 0.30112328027E+01 0.28955417724E+01
 0.28384445878E+01 0.28383923315E+01 0.28954547644E+01 0.30111854316E+01 0.31901522375E+01
 0.34417982769E+01 0.37807295465E+01 0.42246878793E+01 0.47914383919E+01 0.54967131112E+01
 0.62835065638E+01 0.73786480106E+01 0.86462264136E+01 0.10084020752E+02 0.11672969611E+02
 0.13363021541E+02 0.15061071900E+02 0.16631110865E+02 0.17912772796E+02 0.18754319553E+02
 0.19047814168E+02 0.18754321108E+02 0.17912786846E+02 0.16631136153E+02 0.15061090793E+02
 0.13363023908E+02 0.11672964609E+02 0.10084017691E+02 0.86462188993E+01 0.73786277944E+01
 0.62834813832E+01 0.53555986466E+01 0.45859385530E+01 0.39618452514E+01 0.34670882386E+01
 0.30833227926E+01 0.27926455848E+01 0.25799803844E+01 0.24343946754E+01 0.23491939047E+01
 0.23211031527E+01 0.23491923309E+01 0.24343858796E+01 0.25799647430E+01 0.27926334235E+01
 0.30833221365E+01 0.34670942950E+01 0.39618493170E+01 0.45859433528E+01 0.53556142556E+01
 0.63543464027E+01 0.75186960170E+01 0.88421138459E+01 0.10306619125E+02 0.11873746685E+02
 0.13474368775E+02 0.15003819099E+02 0.16329515971E+02 0.17312569158E+02 0.17837116998E+02
 0.17837216186E+02 0.17312704343E+02 0.16329485431E+02 0.15003756117E+02 0.13474534582E+02
 0.11874002499E+02 0.10306448279E+02 0.88413183547E+01 0.75178263216E+01 0.63541753122E+01
 0.53555986466E+01 0.45189795796E+01 0.38346744302E+01 0.32875365264E+01 0.28589233224E+01
 0.25298522268E+01 0.22839292399E+01 0.21087935644E+01 0.19961168022E+01 0.19409489656E+01
 0.19410074074E+01 0.19962334872E+01 0.21088586237E+01 0.22839268599E+01 0.25299060009E+01
 0.28590942109E+01 0.32875888695E+01 0.38342479662E+01 0.45181212686E+01 0.53549437010E+01
 0.65705497145E+01 0.78063921957E+01 0.91865956809E+01 0.10676473565E+02 0.12217729055E+02
 0.13724561451E+02 0.15086178630E+02 0.16179312849E+02 0.16889707473E+02 0.17136280174E+02
 0.16889711327E+02 0.16179328173E+02 0.15086195207E+02 0.13724559337E+02 0.12217713473E+02
 0.10676469925E+02 0.91866094367E+01 0.78064050880E+01 0.65705549051E+01 0.54958525011E+01
 0.45859385530E+01 0.38346744302E+01 0.32287133549E+01 0.27500795216E+01 0.23792376708E+01
 0.20982329021E+01 0.18927886782E+01 0.17527302687E+01 0.16713211533E+01 0.16446196418E+01
 0.16713146721E+01 0.17527347312E+01 0.18928037093E+01 0.20982393539E+01 0.23792328933E+01
 0.27500801965E+01 0.32287218459E+01 0.38346749989E+01 0.45859283430E+01 0.54958444709E+01
 0.69487171032E+01 0.82679390347E+01 0.97138197575E+01 0.11233628967E+02 0.12750391917E+02
 0.14165593566E+02 0.15367462891E+02 0.16245549678E+02 0.16709916777E+02 0.16709863574E+02
 0.16245462272E+02 0.15367399358E+02 0.14165462510E+02 0.12750197581E+02 0.11233695497E+02
 0.97144458360E+01 0.82688445629E+01 0.69491653059E+01 0.57857143051E+01 0.47906059575E+01
 0.39618452514E+01 0.32875365264E+01 0.27500795216E+01 0.23298692538E+01 0.20081379569E+01
 0.17688662828E+01 0.15996816056E+01 0.14917634080E+01 0.14393031400E+01 0.14392846833E+01
 0.14916914933E+01 0.15995797322E+01 0.17688314411E+01 0.20081792036E+01 0.23298376800E+01
 0.27499370095E+01 0.32875826783E+01 0.39623957472E+01 0.47914339276E+01 0.57861115848E+01
 0.75208207966E+01 0.89403305688E+01 0.10461333505E+02 0.12014079927E+02 0.13507185171E+02
 0.14834094670E+02 0.15884642211E+02 0.16560891101E+02 0.16794517592E+02 0.16560900553E+02
 0.15884637875E+02 0.14834073864E+02 0.13507172695E+02 0.12014085482E+02 0.10461336542E+02
 0.89403173888E+01 0.75208057290E+01 0.62489622888E+01 0.51485713617E+01 0.42244003343E+01
 0.34670882386E+01 0.28589233224E+01 0.23792376708E+01 0.20081379569E+01 0.17283061867E+01
 0.15255446562E+01 0.13887981157E+01 0.13100557506E+01 0.12843720497E+01 0.13100559685E+01
 0.13887965546E+01 0.15255416389E+01 0.17283015326E+01 0.20081281422E+01 0.23792245312E+01
 0.28589179269E+01 0.34670950885E+01 0.42244078610E+01 0.51485713186E+01 0.62489653631E+01
 0.83229584510E+01 0.98574032569E+01 0.11462299166E+02 0.13053145500E+02 0.14526741460E+02
 0.15769803682E+02 0.16673078849E+02 0.17149107178E+02 0.17149080291E+02 0.16673120818E+02
 0.15770081550E+02 0.14527117158E+02 0.13053165413E+02 0.11461660064E+02 0.98564043638E+01
 0.83223300499E+01 0.69210494599E+01 0.56900593991E+01 0.46444706479E+01 0.37808947299E+01
 0.30833227926E+01 0.25298522268E+01 0.20982329021E+01 0.17688662828E+01 0.15255446562E+01
 0.13551879684E+01 0.12476073309E+01 0.11956601473E+01 0.11956564120E+01 0.12476357013E+01
 0.13552785957E+01 0.15256176137E+01 0.17688330264E+01 0.20981666291E+01 0.25299060196E+01
 0.30834329274E+01 0.37807290719E+01 0.46438404178E+01 0.56893158078E+01 0.69208545175E+01
 0.93931319600E+01 0.11061431013E+02 0.12769315219E+02 0.14416505233E+02 0.15884647213E+02
 0.17049943116E+02 0.17801399468E+02 0.18061237374E+02 0.17801399738E+02 0.17049946396E+02
 0.15884656836E+02 0.14416517842E+02 0.12769319773E+02 0.11061423010E+02 0.93931231714E+01
 0.78402364092E+01 0.64527061936E+01 0.52563586828E+01 0.42563710865E+01 0.34420209364E+01
 0.27926455848E+01 0.22839292399E+01 0.18927886782E+01 0.15996816056E+01 0.13887981157E+01
 0.12476073309E+01 0.11667794369E+01 0.11404989738E+01 0.11667827226E+01 0.12476055783E+01
 0.13887940103E+01 0.15996878284E+01 0.18928051721E+01 0.22839402967E+01 0.27926428822E+01
 0.34420119979E+01 0.42563618810E+01 0.52563460285E+01 0.64526921712E+01 0.78402324216E+01
 0.10797894535E+02 0.12643699592E+02 0.14500752397E+02 0.16245833065E+02 0.17735914226E+02
 0.18828538839E+02 0.19407634966E+02 0.19407637714E+02 0.18828372493E+02 0.17735441809E+02
 0.16245460156E+02 0.14501109328E+02 0.12644788855E+02 0.10798898685E+02 0.90560846722E+01
 0.74779021912E+01 0.60983394006E+01 0.49291714843E+01 0.39653996479E+01 0.31902419112E+01
 0.25799803844E+01 0.21087935644E+01 0.17527302687E+01 0.14917634080E+01 0.13100557506E+01
 0.11956601473E+01 0.11404989738E+01 0.11405043110E+01 0.11956574239E+01 0.13100114073E+01
 0.14916888889E+01 0.17527047301E+01 0.21088606963E+01 0.25800348648E+01 0.31901552231E+01
 0.39653088697E+01 0.49294525908E+01 0.60990950678E+01 0.74785902422E+01 0.90559608015E+01
 0.12677743895E+02 0.14793962115E+02 0.16889710922E+02 0.18801478996E+02 0.20345740138E+02
 0.21352751202E+02 0.21702778835E+02 0.21352728374E+02 0.20345717965E+02 0.18801463423E+02
 0.16889688135E+02 0.14793937863E+02 0.12677743442E+02 0.10663978712E+02 0.88305839972E+01
 0.72176894792E+01 0.58385358150E+01 0.46889969348E+01 0.37539699462E+01 0.30112328027E+01
 0.24343946754E+01 0.19961168022E+01 0.16713211533E+01 0.14393031400E+01 0.12843720497E+01
 0.11956564120E+01 0.11667827226E+01 0.11956574239E+01 0.12843772510E+01 0.14393069183E+01
 0.16713154037E+01 0.19961064071E+01 0.24343887948E+01 0.30112280456E+01 0.37539621342E+01
 0.46889978180E+01 0.58385529735E+01 0.72177025708E+01 0.88305713144E+01 0.10663956122E+02
 0.15296497344E+02 0.17838027356E+02 0.20296316694E+02 0.22438893891E+02 0.24030945402E+02
 0.24893718265E+02 0.24893905997E+02 0.24031419881E+02 0.22439330274E+02 0.20296230115E+02
 0.17837211804E+02 0.15295396144E+02 0.12856814409E+02 0.10639237510E+02 0.86967094699E+01
 0.70393624974E+01 0.56543425126E+01 0.45194986732E+01 0.36091744481E+01 0.28955417724E+01
 0.23491939047E+01 0.19409489656E+01 0.16446196418E+01 0.14392846833E+01 0.13100559685E+01
 0.12476357013E+01 0.12476055783E+01 0.13100114073E+01 0.14393069183E+01 0.16447136601E+01
 0.19410121732E+01 0.23491418154E+01 0.28954533742E+01 0.36092132519E+01 0.45196307235E+01
 0.56542449677E+01 0.70387879859E+01 0.86959356642E+01 0.10638949706E+02 0.12857408107E+02
 0.19047802241E+02 0.22192725264E+02 0.25497852670E+02 0.28858049891E+02 0.31472252836E+02
 0.32465935354E+02 0.31472242431E+02 0.28858032650E+02 0.25497843935E+02 0.22192739298E+02
 0.19047828392E+02 0.15967264246E+02 0.13146913523E+02 0.10694371042E+02 0.86295556831E+01
 0.69232443411E+01 0.55309772964E+01 0.44102405789E+01 0.35239787479E+01 0.28384445878E+01
 0.23211031527E+01 0.19410074074E+01 0.16713146721E+01 0.14916914933E+01 0.13887965546E+01
 0.13552785957E+01 0.13887940103E+01 0.14916888889E+01 0.16713154037E+01 0.19410121732E+01
 0.23211098895E+01 0.28384531973E+01 0.35239898280E+01 0.44102470307E+01 0.55309678557E+01
 0.69232224899E+01 0.86295427197E+01 0.10694378288E+02 0.13146922951E+02 0.15967252785E+02
 0.25235405189E+02 0.32196112497E+02 0.40547253189E+02 0.48187015453E+02 0.52761281979E+02
 0.52760843402E+02 0.48186215620E+02 0.40547046254E+02 0.32196837578E+02 0.25236503371E+02
 0.20417647842E+02 0.16723081914E+02 0.13487213405E+02 0.10788833863E+02 0.86036274456E+01
 0.68539761155E+01 0.54595513168E+01 0.43563466441E+01 0.34957651107E+01 0.28383923315E+01
 0.23491923309E+01 0.19962334872E+01 0.17527347312E+01 0.15995797322E+01 0.15255416389E+01
 0.15256176137E+01 0.15996878284E+01 0.17527047301E+01 0.19961064071E+01 0.23491418154E+01
 0.28384531973E+01 0.34958049821E+01 0.43562954204E+01 0.54595148370E+01 0.68541031700E+01
 0.86039693666E+01 0.10789322941E+02 0.13487634906E+02 0.16723071476E+02 0.20416954502E+02
 0.44287888317E+02 0.61778956902E+02 0.79290005477E+02 0.92249037366E+02 0.97026083109E+02
 0.92249022660E+02 0.79289978105E+02 0.61778928599E+02 0.44287873958E+02 0.30597660644E+02
 0.22163311567E+02 0.17442693184E+02 0.13802987527E+02 0.10880458513E+02 0.85975373781E+01
 0.68218076273E+01 0.54360690180E+01 0.43563048462E+01 0.35239990522E+01 0.28954547644E+01
 0.24343858796E+01 0.21088586237E+01 0.18928037093E+01 0.17688314411E+01 0.17283015326E+01
 0.17688330264E+01 0.18928051721E+01 0.21088606963E+01 0.24343887948E+01 0.28954533742E+01
 0.35239898280E+01 0.43562954204E+01 0.54360707031E+01 0.68218202095E+01 0.85975510965E+01
 0.10880468348E+02 0.13802994716E+02 0.17442696097E+02 0.22163308457E+02 0.30597660009E+02
 0.91178987884E+02 0.12394796176E+03 0.15160367526E+03 0.16742596259E+03 0.16742633759E+03
 0.15160421922E+03 0.12394771935E+03 0.91177906334E+02 0.60601526226E+02 0.37710296955E+02
 0.24318862645E+02 0.18004740613E+02 0.14024589515E+02 0.10935368541E+02 0.85971628912E+01
 0.68219481619E+01 0.54595171397E+01 0.44101996414E+01 0.36091868606E+01 0.30111854316E+01
 0.25799647430E+01 0.22839268599E+01 0.20982393539E+01 0.20081792036E+01 0.20081281422E+01
 0.20981666291E+01 0.22839402967E+01 0.25800348648E+01 0.30112280456E+01 0.36092132519E+01
 0.44102470307E+01 0.54595148370E+01 0.68218202095E+01 0.85969948666E+01 0.10935265960E+02
 0.14024423221E+02 0.18004329304E+02 0.24318456300E+02 0.37710512491E+02 0.60602541662E+02
 0.17594778850E+03 0.22469243270E+03 0.25924542454E+03 0.27173460002E+03 0.25924546203E+03
 0.22469248920E+03 0.17594782651E+03 0.12351871612E+03 0.77486133609E+02 0.44566721452E+02
 0.26183892567E+02 0.18325718160E+02 0.14104078490E+02 0.10935262990E+02 0.85975508019E+01
 0.68540969531E+01 0.55309571785E+01 0.45196287487E+01 0.37539671126E+01 0.31901522375E+01
 0.27926334235E+01 0.25299060009E+01 0.23792328933E+01 0.23298376800E+01 0.23792245312E+01
 0.25299060196E+01 0.27926428822E+01 0.31901552231E+01 0.37539621342E+01 0.45196307235E+01
 0.55309678557E+01 0.68541031700E+01 0.85975510965E+01 0.10935265960E+02 0.14104077876E+02
 0.18325702484E+02 0.26183876782E+02 0.44566732616E+02 0.77486163243E+02 0.12351872213E+03
 0.29958586100E+03 0.36015318784E+03 0.39417197215E+03 0.39417214917E+03 0.36015367814E+03
 0.29958656389E+03 0.22518918880E+03 0.15134035380E+03 0.90242399212E+02 0.48782966068E+02
 0.26925320098E+02 0.18325565278E+02 0.14024584083E+02 0.10880481393E+02 0.86036409233E+01
 0.69229177876E+01 0.56543542326E+01 0.46893398128E+01 0.39654011131E+01 0.34417982769E+01
 0.30833221365E+01 0.28590942109E+01 0.27500801965E+01 0.27499370095E+01 0.28589179269E+01
 0.30834329274E+01 0.34420119979E+01 0.39653088697E+01 0.46889978180E+01 0.56542449677E+01
 0.69232224899E+01 0.86039693666E+01 0.10880468348E+02 0.14024423221E+02 0.18325702484E+02
 0.26925805314E+02 0.48783374514E+02 0.90242333351E+02 0.15133980926E+03 0.22518843438E+03
 0.45254212574E+03 0.51622346126E+03 0.53910777244E+03 0.51622342344E+03 0.45254211333E+03
 0.36140520792E+03 0.26056412193E+03 0.16744856237E+03 0.94992728067E+02 0.48783380417E+02
 0.26183875820E+02 0.18004311713E+02 0.13802994389E+02 0.10789348210E+02 0.86295558967E+01
 0.70387747092E+01 0.58385467209E+01 0.49294711679E+01 0.42563797692E+01 0.37807295465E+01
 0.34670942950E+01 0.32875888695E+01 0.32287218459E+01 0.32875826783E+01 0.34670950885E+01
 0.37807290719E+01 0.42563618810E+01 0.49294525908E+01 0.58385529735E+01 0.70387879859E+01
 0.86295427197E+01 0.10789322941E+02 0.13802994716E+02 0.18004329304E+02 0.26183876782E+02
 0.48783374514E+02 0.94992746006E+02 0.16744858453E+03 0.26056410813E+03 0.36140518033E+03
 0.61550139725E+03 0.67022592435E+03 0.67022491000E+03 0.61549952194E+03 0.51772190975E+03
 0.39644010124E+03 0.27344105474E+03 0.16744817543E+03 0.90242415340E+02 0.44567502176E+02
 0.24318873876E+02 0.17442229176E+02 0.13487228812E+02 0.10694903422E+02 0.86966984566E+01
 0.72175584859E+01 0.60983316771E+01 0.52561998251E+01 0.46444673011E+01 0.42246878793E+01
 0.39618493170E+01 0.38342479662E+01 0.38346749989E+01 0.39623957472E+01 0.42244078610E+01
 0.46438404178E+01 0.52563460285E+01 0.60990950678E+01 0.72177025708E+01 0.86959356642E+01
 0.10694378288E+02 0.13487634906E+02 0.17442696097E+02 0.24318456300E+02 0.44566732616E+02
 0.90242333351E+02 0.16744858453E+03 0.27344105905E+03 0.39643996139E+03 0.51772281850E+03
 0.76222281612E+03 0.79488272384E+03 0.76222287003E+03 0.67138389839E+03 0.54126441803E+03
 0.39643993090E+03 0.26056406910E+03 0.15133979108E+03 0.77486173759E+02 0.37710544806E+02
 0.22163345831E+02 0.16723091812E+02 0.13146917045E+02 0.10638935685E+02 0.88305755603E+01
 0.74786121325E+01 0.64527042696E+01 0.56893040211E+01 0.51485559858E+01 0.47914383919E+01
 0.45859433528E+01 0.45181212686E+01 0.45859283430E+01 0.47914339276E+01 0.51485713186E+01
 0.56893158078E+01 0.64526921712E+01 0.74785902422E+01 0.88305713144E+01 0.10638949706E+02
 0.13146922951E+02 0.16723071476E+02 0.22163308457E+02 0.37710512491E+02 0.77486163243E+02
 0.15133980926E+03 0.26056410813E+03 0.39643996139E+03 0.54126440539E+03 0.67138384180E+03
 0.86491680623E+03 0.86491847206E+03 0.79538693822E+03 0.67138490968E+03 0.51772195411E+03
 0.36140473100E+03 0.22518912957E+03 0.12351895352E+03 0.60601566388E+02 0.30596980579E+02
 0.20417652375E+02 0.15968044516E+02 0.12856809546E+02 0.10662829793E+02 0.90560825514E+01
 0.78413151167E+01 0.69210673827E+01 0.62480285779E+01 0.57857106189E+01 0.54967131112E+01
 0.53556142556E+01 0.53549437010E+01 0.54958444709E+01 0.57861115848E+01 0.62489653631E+01
 0.69208545175E+01 0.78402324216E+01 0.90559608015E+01 0.10663956122E+02 0.12857408107E+02
 0.15967252785E+02 0.20416954502E+02 0.30597660009E+02 0.60602541662E+02 0.12351872213E+03
 0.22518843438E+03 0.36140518033E+03 0.51772281850E+03 0.67138384180E+03 0.79538398097E+03
 0.86491682415E+03 0.79487979455E+03 0.67022487443E+03 0.51622434024E+03 0.36015366468E+03
 0.22469176388E+03 0.12394773387E+03 0.61779930933E+02 0.32196815165E+02 0.22192049561E+02
 0.17837202358E+02 0.14794483892E+02 0.12644787752E+02 0.11061351057E+02 0.98563853191E+01
 0.89401333652E+01 0.82688474772E+01 0.78067732721E+01 0.75178313167E+01 0.73779770180E+01
 0.73786439979E+01 0.75186980204E+01 0.78063843034E+01 0.82679242172E+01 0.89403249147E+01
 0.98574038062E+01 0.11061421937E+02 0.12643684363E+02 0.14793957171E+02 0.17838029867E+02