   2   2   0   0
  0.2390996E+02  0.4074190E-09  0.4074190E-09  0.4074190E-09  0.5000000E-15
  1.000000000000000E-004
  CAR 
 Ge                                      
     49.28729842    -23.62646270  301      4.46393652      1.00000000
    -23.626  0.0000E+00  0.0000E+00
    -23.383  0.0000E+00  0.0000E+00
    -23.140  0.0000E+00  0.0000E+00
    -22.897  0.0000E+00  0.0000E+00
    -22.654  0.0000E+00  0.0000E+00
    -22.411  0.0000E+00  0.0000E+00
    -22.168  0.0000E+00  0.0000E+00
    -21.925  0.0000E+00  0.0000E+00
    -21.682  0.0000E+00  0.0000E+00
    -21.439  0.0000E+00  0.0000E+00
    -21.196  0.0000E+00  0.0000E+00
    -20.953  0.0000E+00  0.0000E+00
    -20.710  0.0000E+00  0.0000E+00
    -20.467  0.2105E-04  0.5116E-05
    -20.224  0.2385E+02  0.5797E+01
    -19.981  0.5489E+02  0.1914E+02
    -19.738  0.3543E+01  0.2000E+02
    -19.495  0.0000E+00  0.2000E+02
    -19.252  0.0000E+00  0.2000E+02
    -19.009  0.0000E+00  0.2000E+02
    -18.766  0.0000E+00  0.2000E+02
    -18.522  0.0000E+00  0.2000E+02
    -18.279  0.0000E+00  0.2000E+02
    -18.036  0.0000E+00  0.2000E+02
    -17.793  0.0000E+00  0.2000E+02
    -17.550  0.0000E+00  0.2000E+02
    -17.307  0.0000E+00  0.2000E+02
    -17.064  0.0000E+00  0.2000E+02
    -16.821  0.0000E+00  0.2000E+02
    -16.578  0.0000E+00  0.2000E+02
    -16.335  0.0000E+00  0.2000E+02
    -16.092  0.0000E+00  0.2000E+02
    -15.849  0.0000E+00  0.2000E+02
    -15.606  0.0000E+00  0.2000E+02
    -15.363  0.0000E+00  0.2000E+02
    -15.120  0.0000E+00  0.2000E+02
    -14.877  0.0000E+00  0.2000E+02
    -14.634  0.0000E+00  0.2000E+02
    -14.391  0.0000E+00  0.2000E+02
    -14.148  0.0000E+00  0.2000E+02
    -13.905  0.0000E+00  0.2000E+02
    -13.662  0.0000E+00  0.2000E+02
    -13.419  0.0000E+00  0.2000E+02
    -13.175  0.0000E+00  0.2000E+02
    -12.932  0.0000E+00  0.2000E+02
    -12.689  0.0000E+00  0.2000E+02
    -12.446  0.0000E+00  0.2000E+02
    -12.203  0.0000E+00  0.2000E+02
    -11.960  0.0000E+00  0.2000E+02
    -11.717  0.0000E+00  0.2000E+02
    -11.474  0.0000E+00  0.2000E+02
    -11.231  0.0000E+00  0.2000E+02
    -10.988  0.0000E+00  0.2000E+02
    -10.745  0.0000E+00  0.2000E+02
    -10.502  0.0000E+00  0.2000E+02
    -10.259  0.0000E+00  0.2000E+02
    -10.016  0.0000E+00  0.2000E+02
     -9.773  0.0000E+00  0.2000E+02
     -9.530  0.0000E+00  0.2000E+02
     -9.287  0.0000E+00  0.2000E+02
     -9.044  0.0000E+00  0.2000E+02
     -8.801  0.0000E+00  0.2000E+02
     -8.558  0.0000E+00  0.2000E+02
     -8.315  0.0000E+00  0.2000E+02
     -8.072  0.1421E-08  0.2000E+02
     -7.828  0.2133E-01  0.2001E+02
     -7.585  0.1988E+00  0.2005E+02
     -7.342  0.2798E+00  0.2012E+02
     -7.099  0.3107E+00  0.2020E+02
     -6.856  0.4679E+00  0.2031E+02
     -6.613  0.3878E+00  0.2041E+02
     -6.370  0.7695E+00  0.2059E+02
     -6.127  0.4761E+00  0.2071E+02
     -5.884  0.1078E+01  0.2097E+02
     -5.641  0.7726E+00  0.2116E+02
     -5.398  0.1030E+01  0.2141E+02
     -5.155  0.6043E+00  0.2155E+02
     -4.912  0.7100E+00  0.2173E+02
     -4.669  0.5829E+00  0.2187E+02
     -4.426  0.3390E+00  0.2195E+02
     -4.183  0.1679E+00  0.2199E+02
     -3.940  0.2320E+00  0.2205E+02
     -3.697  0.8515E-01  0.2207E+02
     -3.454  0.7244E+00  0.2225E+02
     -3.211  0.4318E+00  0.2235E+02
     -2.968  0.8924E+00  0.2257E+02
     -2.725  0.1187E+01  0.2286E+02
     -2.481  0.7355E+00  0.2303E+02
     -2.238  0.5280E+00  0.2316E+02
     -1.995  0.5625E+00  0.2330E+02
     -1.752  0.4354E+00  0.2341E+02
     -1.509  0.3412E+00  0.2349E+02
     -1.266  0.2423E+00  0.2355E+02
     -1.023  0.3970E+00  0.2364E+02
     -0.780  0.1188E+00  0.2367E+02
     -0.537  0.1989E+00  0.2372E+02
     -0.294  0.2659E+00  0.2379E+02
     -0.051  0.1159E+00  0.2381E+02
      0.192  0.5837E-01  0.2383E+02
      0.435  0.4034E+00  0.2393E+02
      0.678  0.1426E+01  0.2427E+02
      0.921  0.1110E+01  0.2454E+02
      1.164  0.1121E+01  0.2481E+02
      1.407  0.1087E+01  0.2508E+02
      1.650  0.1651E+01  0.2548E+02
      1.893  0.1610E+01  0.2587E+02
      2.136  0.1193E+01  0.2616E+02
      2.379  0.1596E+01  0.2655E+02
      2.622  0.1138E+01  0.2683E+02
      2.866  0.1448E+01  0.2718E+02
      3.109  0.1185E+01  0.2747E+02
      3.352  0.6926E+00  0.2763E+02
      3.595  0.5015E+00  0.2776E+02
      3.838  0.5922E+00  0.2790E+02
      4.081  0.2393E+00  0.2796E+02
      4.324  0.1059E+00  0.2798E+02
      4.567  0.1147E+00  0.2801E+02
      4.810  0.5141E-01  0.2802E+02
      5.053  0.3950E-01  0.2803E+02
      5.296  0.3768E+00  0.2813E+02
      5.539  0.6403E+00  0.2828E+02
      5.782  0.8445E+00  0.2849E+02
      6.025  0.1459E+01  0.2884E+02
      6.268  0.2020E+01  0.2933E+02
      6.511  0.1517E+01  0.2970E+02
      6.754  0.8194E+00  0.2990E+02
      6.997  0.4856E+00  0.3002E+02
      7.240  0.1079E+01  0.3028E+02
      7.483  0.1821E+01  0.3072E+02
      7.726  0.6701E+00  0.3089E+02
      7.970  0.9551E+00  0.3112E+02
      8.213  0.2043E+01  0.3161E+02
      8.456  0.1116E+01  0.3189E+02
      8.699  0.1491E+01  0.3225E+02
      8.942  0.5358E+00  0.3238E+02
      9.185  0.1881E+01  0.3284E+02
      9.428  0.2156E+01  0.3336E+02
      9.671  0.9015E+00  0.3358E+02
      9.914  0.8911E+00  0.3380E+02
     10.157  0.1119E+01  0.3407E+02
     10.400  0.1289E+01  0.3438E+02
     10.643  0.1200E+01  0.3467E+02
     10.886  0.9635E+00  0.3491E+02
     11.129  0.9246E+00  0.3513E+02
     11.372  0.7853E+00  0.3532E+02
     11.615  0.1181E+01  0.3561E+02
     11.858  0.1008E+01  0.3585E+02
     12.101  0.1072E+01  0.3611E+02
     12.344  0.1166E+01  0.3640E+02
     12.587  0.8940E+00  0.3662E+02
     12.830  0.2013E+01  0.3710E+02
     13.073  0.1299E+01  0.3742E+02
     13.317  0.1245E+01  0.3772E+02
     13.560  0.1558E+01  0.3810E+02
     13.803  0.1123E+01  0.3837E+02
     14.046  0.1310E+01  0.3869E+02
     14.289  0.1783E+01  0.3913E+02
     14.532  0.1367E+01  0.3946E+02
     14.775  0.8685E+00  0.3967E+02
     15.018  0.1318E+01  0.3999E+02
     15.261  0.1770E+01  0.4042E+02
     15.504  0.1402E+01  0.4076E+02
     15.747  0.1435E+01  0.4111E+02
     15.990  0.2188E+01  0.4164E+02
     16.233  0.1295E+01  0.4196E+02
     16.476  0.1902E+01  0.4242E+02
     16.719  0.9118E+00  0.4264E+02
     16.962  0.1365E+01  0.4297E+02
     17.205  0.1919E+01  0.4344E+02
     17.448  0.1400E+01  0.4378E+02
     17.691  0.6942E+00  0.4395E+02
     17.934  0.1921E+01  0.4441E+02
     18.177  0.1611E+01  0.4481E+02
     18.420  0.1378E+01  0.4514E+02
     18.664  0.8898E+00  0.4536E+02
     18.907  0.6887E+00  0.4552E+02
     19.150  0.9742E+00  0.4576E+02
     19.393  0.1808E+01  0.4620E+02
     19.636  0.1427E+01  0.4655E+02
     19.879  0.1816E+01  0.4699E+02
     20.122  0.1986E+01  0.4747E+02
     20.365  0.1919E+01  0.4794E+02
     20.608  0.1054E+01  0.4819E+02
     20.851  0.1530E+01  0.4857E+02
     21.094  0.1632E+01  0.4896E+02
     21.337  0.1973E+01  0.4944E+02
     21.580  0.8584E+00  0.4965E+02
     21.823  0.1874E+01  0.5011E+02
     22.066  0.2161E+01  0.5063E+02
     22.309  0.1809E+01  0.5107E+02
     22.552  0.2466E+01  0.5167E+02
     22.795  0.1149E+01  0.5195E+02
     23.038  0.1474E+01  0.5231E+02
     23.281  0.1960E+01  0.5278E+02
     23.524  0.1857E+01  0.5323E+02
     23.767  0.1918E+01  0.5370E+02
     24.011  0.1132E+01  0.5398E+02
     24.254  0.1644E+01  0.5438E+02
     24.497  0.1575E+01  0.5476E+02
     24.740  0.2170E+01  0.5529E+02
     24.983  0.1520E+01  0.5566E+02
     25.226  0.1824E+01  0.5610E+02
     25.469  0.1965E+01  0.5658E+02
     25.712  0.1379E+01  0.5691E+02
     25.955  0.1296E+01  0.5723E+02
     26.198  0.2613E+01  0.5786E+02
     26.441  0.2751E+01  0.5853E+02
     26.684  0.2431E+01  0.5912E+02
     26.927  0.1087E+01  0.5939E+02
     27.170  0.1680E+01  0.5979E+02
     27.413  0.1019E+01  0.6004E+02
     27.656  0.1913E+01  0.6051E+02
     27.899  0.1427E+01  0.6085E+02
     28.142  0.2996E+01  0.6158E+02
     28.385  0.2209E+01  0.6212E+02
     28.628  0.1683E+01  0.6253E+02
     28.871  0.1225E+01  0.6282E+02
     29.114  0.2021E+01  0.6332E+02
     29.358  0.2657E+01  0.6396E+02
     29.601  0.1596E+01  0.6435E+02
     29.844  0.2523E+01  0.6496E+02
     30.087  0.2176E+01  0.6549E+02
     30.330  0.1447E+01  0.6584E+02
     30.573  0.1415E+01  0.6619E+02
     30.816  0.2568E+01  0.6681E+02
     31.059  0.2400E+01  0.6739E+02
     31.302  0.1937E+01  0.6787E+02
     31.545  0.2105E+01  0.6838E+02
     31.788  0.2080E+01  0.6888E+02
     32.031  0.1757E+01  0.6931E+02
     32.274  0.1782E+01  0.6974E+02
     32.517  0.1170E+01  0.7003E+02
     32.760  0.1507E+01  0.7039E+02
     33.003  0.1345E+01  0.7072E+02
     33.246  0.2801E+01  0.7140E+02
     33.489  0.1629E+01  0.7180E+02
     33.732  0.1987E+01  0.7228E+02
     33.975  0.2563E+01  0.7290E+02
     34.218  0.2547E+01  0.7352E+02
     34.462  0.2149E+01  0.7404E+02
     34.705  0.2359E+01  0.7462E+02
     34.948  0.1603E+01  0.7501E+02
     35.191  0.1848E+01  0.7546E+02
     35.434  0.1444E+01  0.7581E+02
     35.677  0.2809E+01  0.7649E+02
     35.920  0.2351E+01  0.7706E+02
     36.163  0.1493E+01  0.7742E+02
     36.406  0.3050E+01  0.7817E+02
     36.649  0.2093E+01  0.7867E+02
     36.892  0.1880E+01  0.7913E+02
     37.135  0.1896E+01  0.7959E+02
     37.378  0.2400E+01  0.8018E+02
     37.621  0.2804E+01  0.8086E+02
     37.864  0.2127E+01  0.8137E+02
     38.107  0.2410E+01  0.8196E+02
     38.350  0.2080E+01  0.8247E+02
     38.593  0.2016E+01  0.8296E+02
     38.836  0.1183E+01  0.8324E+02
     39.079  0.2196E+01  0.8378E+02
     39.322  0.2148E+01  0.8430E+02
     39.565  0.2659E+01  0.8494E+02
     39.809  0.2826E+01  0.8563E+02
     40.052  0.2162E+01  0.8616E+02
     40.295  0.2044E+01  0.8665E+02
     40.538  0.2197E+01  0.8719E+02
     40.781  0.2336E+01  0.8776E+02
     41.024  0.1966E+01  0.8823E+02
     41.267  0.2115E+01  0.8875E+02
     41.510  0.1908E+01  0.8921E+02
     41.753  0.2393E+01  0.8979E+02
     41.996  0.2138E+01  0.9031E+02
     42.239  0.2486E+01  0.9092E+02
     42.482  0.2269E+01  0.9147E+02
     42.725  0.2394E+01  0.9205E+02
     42.968  0.2355E+01  0.9262E+02
     43.211  0.2076E+01  0.9313E+02
     43.454  0.2308E+01  0.9369E+02
     43.697  0.1789E+01  0.9412E+02
     43.940  0.9010E+00  0.9434E+02
     44.183  0.1058E+01  0.9460E+02
     44.426  0.1518E+01  0.9497E+02
     44.669  0.3498E+00  0.9505E+02
     44.912  0.1286E+01  0.9537E+02
     45.156  0.1103E+01  0.9563E+02
     45.399  0.6709E+00  0.9580E+02
     45.642  0.7355E+00  0.9598E+02
     45.885  0.4476E-01  0.9599E+02
     46.128  0.5679E-01  0.9600E+02
     46.371  0.3476E-06  0.9600E+02
     46.614  0.0000E+00  0.9600E+02
     46.857  0.0000E+00  0.9600E+02
     47.100  0.0000E+00  0.9600E+02
     47.343  0.0000E+00  0.9600E+02
     47.586  0.0000E+00  0.9600E+02
     47.829  0.0000E+00  0.9600E+02
     48.072  0.0000E+00  0.9600E+02
     48.315  0.0000E+00  0.9600E+02
     48.558  0.0000E+00  0.9600E+02
     48.801  0.0000E+00  0.9600E+02
     49.044  0.0000E+00  0.9600E+02
     49.287  0.0000E+00  0.9600E+02
