Ge                                      
           1
     3.528352    0.000000    2.037095
     1.176117    3.326562    2.037095
     0.000000    0.000000    4.074190
   Ge
     2
Direct configuration=     1
   0.00000000  0.00000000  0.00000000
   0.25000000  0.25000000  0.25000000
