 DBCSR| CPU Multiplication driver                                           BLAS (U)
 DBCSR| Multrec recursion limit                                              512 (U)
 DBCSR| Multiplication stack size                                           1000 (D)
 DBCSR| Maximum elements for images                                    UNLIMITED (U)
 DBCSR| Multiplicative factor virtual images                                   1 (U)
 DBCSR| Use multiplication densification                                       T (D)
 DBCSR| Multiplication size stacks                                             3 (U)
 DBCSR| Use memory pool for CPU allocation                                     F (U)
 DBCSR| Number of 3D layers                                               SINGLE (U)
 DBCSR| Use MPI memory allocation                                              F (U)
 DBCSR| Use RMA algorithm                                                      F (U)
 DBCSR| Use Communication thread                                               T (U)
 DBCSR| Communication thread load                                             45 (D)
 DBCSR| MPI: My process id                                                     0
 DBCSR| MPI: Number of processes                                               8
 DBCSR| OMP: Current number of threads                                        12
 DBCSR| OMP: Max number of threads                                            12
 DBCSR| Split modifier for TAS multiplication algorithm                  1.0E+00 (U)


  **** **** ******  **  PROGRAM STARTED AT               2025-08-03 17:52:51.158
 ***** ** ***  *** **   PROGRAM STARTED ON                          i06r01c05s07
 **    ****   ******    PROGRAM STARTED BY                               di38fab
 ***** **    ** ** **   PROGRAM PROCESS ID                               3129527
  **** **  *******  **  PROGRAM STARTED IN /hppfs/scratch/04/di38fab/09_GTH/Delt
                                           a_Set/Ga/DZVP-MOLOPT-PBE-GTH/8x8x8

 CP2K| version string:                 CP2K version 2025.1 (Development Version)
 CP2K| source code revision number:                                  git:3130539
 CP2K| cp2kflags: omp libint fftw3 libxc parallel scalapack max_contr=4         
 CP2K| is freely available from                            https://www.cp2k.org/
 CP2K| Program compiled at                         Tue Jun  3 16:14:32 CEST 2025
 CP2K| Program compiled on                                               login01
 CP2K| Program compiled for                                        Supermuc-foss
 CP2K| Data directory path                  /hppfs/work/pn36zo/di38fab/cp2k/data
 CP2K| Input file name                                                    GW.inp

 GLOBAL| Force Environment number                                              1
 GLOBAL| Basis set file name            /hppfs/scratch/04/di38fab/09_GTH/BASIS_A
 GLOBAL| Potential file name            /hppfs/work/pn36zo/di38fab/cp2k/data/GTH
 GLOBAL| MM Potential file name                                     MM_POTENTIAL
 GLOBAL| Coordinate file name                                             Ga.cif
 GLOBAL| Method name                                                        CP2K
 GLOBAL| Project name                                                       WSe2
 GLOBAL| Run type                                                         ENERGY
 GLOBAL| FFT library                                                       FFTW3
 GLOBAL| Diagonalization library                                       ScaLAPACK
 GLOBAL| Cholesky decomposition library                                ScaLAPACK
 GLOBAL| DGEMM library                                                      BLAS
 GLOBAL| Orthonormality check for eigenvectors                          DISABLED
 GLOBAL| Matrix multiplication library                                 ScaLAPACK
 GLOBAL| All-to-all communication in single precision                          F
 GLOBAL| FFTs using library dependent lengths                                  F
 GLOBAL| Grid backend                                                       AUTO
 GLOBAL| Global print level                                               MEDIUM
 GLOBAL| MPI I/O enabled                                                       T
 GLOBAL| Total number of message passing processes                             8
 GLOBAL| Number of threads for this process                                   12
 GLOBAL| This output is from process                                           0
 GLOBAL| OpenMP stack size per thread (OMP_STACKSIZE)                    default
 GLOBAL| CPU model name             Intel(R) Xeon(R) Platinum 8174 CPU @ 3.10GHz

 MEMORY| system memory details [Kb]
 MEMORY|                        rank 0           min           max       average
 MEMORY| MemTotal             98436708      98436664      98436708      98436686
 MEMORY| MemFree              85035632      84907576      85035632      84971604
 MEMORY| Buffers                     0             0             0             0
 MEMORY| Cached                2370644       2370644       2378796       2374720
 MEMORY| Slab                  1227236       1225732       1227236       1226484
 MEMORY| SReclaimable           275820        272828        275820        274324
 MEMORY| MemLikelyFree        87682096      87559200      87682096      87620648


 *** Fundamental physical constants (SI units) ***

 *** Literature: B. J. Mohr and B. N. Taylor,
 ***             CODATA recommended values of the fundamental physical
 ***             constants: 2006, Web Version 5.1
 ***             http://physics.nist.gov/constants

 Speed of light in vacuum [m/s]                             2.99792458000000E+08
 Magnetic constant or permeability of vacuum [N/A**2]       1.25663706143592E-06
 Electric constant or permittivity of vacuum [F/m]          8.85418781762039E-12
 Planck constant (h) [J*s]                                  6.62606896000000E-34
 Planck constant (h-bar) [J*s]                              1.05457162825177E-34
 Elementary charge [C]                                      1.60217648700000E-19
 Electron mass [kg]                                         9.10938215000000E-31
 Electron g factor [ ]                                     -2.00231930436220E+00
 Proton mass [kg]                                           1.67262163700000E-27
 Fine-structure constant                                    7.29735253760000E-03
 Rydberg constant [1/m]                                     1.09737315685270E+07
 Avogadro constant [1/mol]                                  6.02214179000000E+23
 Boltzmann constant [J/K]                                   1.38065040000000E-23
 Atomic mass unit [kg]                                      1.66053878200000E-27
 Bohr radius [m]                                            5.29177208590000E-11

 *** Conversion factors ***

 [u] -> [a.u.]                                              1.82288848426455E+03
 [Angstrom] -> [Bohr] = [a.u.]                              1.88972613288564E+00
 [a.u.] = [Bohr] -> [Angstrom]                              5.29177208590000E-01
 [a.u.] -> [s]                                              2.41888432650478E-17
 [a.u.] -> [fs]                                             2.41888432650478E-02
 [a.u.] -> [J]                                              4.35974393937059E-18
 [a.u.] -> [N]                                              8.23872205491840E-08
 [a.u.] -> [K]                                              3.15774647902944E+05
 [a.u.] -> [kJ/mol]                                         2.62549961709828E+03
 [a.u.] -> [kcal/mol]                                       6.27509468713739E+02
 [a.u.] -> [Pa]                                             2.94210107994716E+13
 [a.u.] -> [bar]                                            2.94210107994716E+08
 [a.u.] -> [atm]                                            2.90362800883016E+08
 [a.u.] -> [eV]                                             2.72113838565563E+01
 [a.u.] -> [Hz]                                             6.57968392072181E+15
 [a.u.] -> [1/cm] (wave numbers)                            2.19474631370540E+05
 [a.u./Bohr**2] -> [1/cm]                                   5.14048714338585E+03
 

 CELL_TOP| Volume [angstrom^3]:                                       162.871164
 CELL_TOP| Vector a [angstrom     4.567     0.000     0.000   |a| =     4.566890
 CELL_TOP| Vector b [angstrom     0.000     7.753     0.000   |b| =     7.753300
 CELL_TOP| Vector c [angstrom     0.000     0.000     4.600   |c| =     4.599780
 CELL_TOP| Angle (b,c), alpha [degree]:                                90.000000
 CELL_TOP| Angle (a,c), beta  [degree]:                                90.000000
 CELL_TOP| Angle (a,b), gamma [degree]:                                90.000000
 CELL_TOP| Numerically orthorhombic:                                         YES
 CELL_TOP| Periodicity                                                       XYZ

 CELL_CIF| Volume [angstrom^3]:                                       162.871164
 CELL_CIF| Vector a [angstrom     4.567     0.000     0.000   |a| =     4.566890
 CELL_CIF| Vector b [angstrom     0.000     7.753     0.000   |b| =     7.753300
 CELL_CIF| Vector c [angstrom     0.000     0.000     4.600   |c| =     4.599780
 CELL_CIF| Angle (b,c), alpha [degree]:                                90.000000
 CELL_CIF| Angle (a,c), beta  [degree]:                                90.000000
 CELL_CIF| Angle (a,b), gamma [degree]:                                90.000000
 CELL_CIF| Numerically orthorhombic:                                         YES
 CELL_CIF| Periodicity                                                       XYZ

 GENERATE|  Preliminary Number of Bonds generated:                             0
 GENERATE|  Achieved consistency in connectivity generation.

 CELL| Volume [angstrom^3]:                                           162.871164
 CELL| Vector a [angstrom]:       4.567     0.000     0.000   |a| =     4.566890
 CELL| Vector b [angstrom]:       0.000     7.753     0.000   |b| =     7.753300
 CELL| Vector c [angstrom]:       0.000     0.000     4.600   |c| =     4.599780
 CELL| Angle (b,c), alpha [degree]:                                    90.000000
 CELL| Angle (a,c), beta  [degree]:                                    90.000000
 CELL| Angle (a,b), gamma [degree]:                                    90.000000
 CELL| Numerically orthorhombic:                                             YES
 CELL| Periodicity                                                           XYZ

 CELL_REF| Volume [angstrom^3]:                                       162.871164
 CELL_REF| Vector a [angstrom     4.567     0.000     0.000   |a| =     4.566890
 CELL_REF| Vector b [angstrom     0.000     7.753     0.000   |b| =     7.753300
 CELL_REF| Vector c [angstrom     0.000     0.000     4.600   |c| =     4.599780
 CELL_REF| Angle (b,c), alpha [degree]:                                90.000000
 CELL_REF| Angle (a,c), beta  [degree]:                                90.000000
 CELL_REF| Angle (a,b), gamma [degree]:                                90.000000
 CELL_REF| Numerically orthorhombic:                                         YES
 CELL_REF| Periodicity                                                       XYZ

 *** WARNING in cryssym.F:180 :: Symmetry library SPGLIB not available ***


 *******************************************************************************
                                    Kpoints
 *******************************************************************************
 BRILLOUIN| K-point scheme                                        Monkhorst-Pack
 BRILLOUIN| K-Point grid                                             8    8    8
 BRILLOUIN| Accuracy in Symmetry determination                      0.100000E-05
 BRILLOUIN| K-Point point group symmetrization                               OFF
 BRILLOUIN| Wavefunction type                                            COMPLEX
 BRILLOUIN| List of Kpoints [2 Pi/Bohr]                                      256
 BRILLOUIN| Number           Weight            X              Y              Z
 BRILLOUIN|     1           0.00391       -0.43750       -0.43750       -0.43750
 BRILLOUIN|     2           0.00391       -0.43750       -0.43750       -0.31250
 BRILLOUIN|     3           0.00391       -0.43750       -0.43750       -0.18750
 BRILLOUIN|     4           0.00391       -0.43750       -0.43750       -0.06250
 BRILLOUIN|     5           0.00391       -0.43750       -0.43750        0.06250
 BRILLOUIN|     6           0.00391       -0.43750       -0.43750        0.18750
 BRILLOUIN|     7           0.00391       -0.43750       -0.43750        0.31250
 BRILLOUIN|     8           0.00391       -0.43750       -0.43750        0.43750
 BRILLOUIN|     9           0.00391       -0.43750       -0.31250       -0.43750
 BRILLOUIN|    10           0.00391       -0.43750       -0.31250       -0.31250
 BRILLOUIN|    11           0.00391       -0.43750       -0.31250       -0.18750
 BRILLOUIN|    12           0.00391       -0.43750       -0.31250       -0.06250
 BRILLOUIN|    13           0.00391       -0.43750       -0.31250        0.06250
 BRILLOUIN|    14           0.00391       -0.43750       -0.31250        0.18750
 BRILLOUIN|    15           0.00391       -0.43750       -0.31250        0.31250
 BRILLOUIN|    16           0.00391       -0.43750       -0.31250        0.43750
 BRILLOUIN|    17           0.00391       -0.43750       -0.18750       -0.43750
 BRILLOUIN|    18           0.00391       -0.43750       -0.18750       -0.31250
 BRILLOUIN|    19           0.00391       -0.43750       -0.18750       -0.18750
 BRILLOUIN|    20           0.00391       -0.43750       -0.18750       -0.06250
 BRILLOUIN|    21           0.00391       -0.43750       -0.18750        0.06250
 BRILLOUIN|    22           0.00391       -0.43750       -0.18750        0.18750
 BRILLOUIN|    23           0.00391       -0.43750       -0.18750        0.31250
 BRILLOUIN|    24           0.00391       -0.43750       -0.18750        0.43750
 BRILLOUIN|    25           0.00391       -0.43750       -0.06250       -0.43750
 BRILLOUIN|    26           0.00391       -0.43750       -0.06250       -0.31250
 BRILLOUIN|    27           0.00391       -0.43750       -0.06250       -0.18750
 BRILLOUIN|    28           0.00391       -0.43750       -0.06250       -0.06250
 BRILLOUIN|    29           0.00391       -0.43750       -0.06250        0.06250
 BRILLOUIN|    30           0.00391       -0.43750       -0.06250        0.18750
 BRILLOUIN|    31           0.00391       -0.43750       -0.06250        0.31250
 BRILLOUIN|    32           0.00391       -0.43750       -0.06250        0.43750
 BRILLOUIN|    33           0.00391       -0.43750        0.06250       -0.43750
 BRILLOUIN|    34           0.00391       -0.43750        0.06250       -0.31250
 BRILLOUIN|    35           0.00391       -0.43750        0.06250       -0.18750
 BRILLOUIN|    36           0.00391       -0.43750        0.06250       -0.06250
 BRILLOUIN|    37           0.00391       -0.43750        0.06250        0.06250
 BRILLOUIN|    38           0.00391       -0.43750        0.06250        0.18750
 BRILLOUIN|    39           0.00391       -0.43750        0.06250        0.31250
 BRILLOUIN|    40           0.00391       -0.43750        0.06250        0.43750
 BRILLOUIN|    41           0.00391       -0.43750        0.18750       -0.43750
 BRILLOUIN|    42           0.00391       -0.43750        0.18750       -0.31250
 BRILLOUIN|    43           0.00391       -0.43750        0.18750       -0.18750
 BRILLOUIN|    44           0.00391       -0.43750        0.18750       -0.06250
 BRILLOUIN|    45           0.00391       -0.43750        0.18750        0.06250
 BRILLOUIN|    46           0.00391       -0.43750        0.18750        0.18750
 BRILLOUIN|    47           0.00391       -0.43750        0.18750        0.31250
 BRILLOUIN|    48           0.00391       -0.43750        0.18750        0.43750
 BRILLOUIN|    49           0.00391       -0.43750        0.31250       -0.43750
 BRILLOUIN|    50           0.00391       -0.43750        0.31250       -0.31250
 BRILLOUIN|    51           0.00391       -0.43750        0.31250       -0.18750
 BRILLOUIN|    52           0.00391       -0.43750        0.31250       -0.06250
 BRILLOUIN|    53           0.00391       -0.43750        0.31250        0.06250
 BRILLOUIN|    54           0.00391       -0.43750        0.31250        0.18750
 BRILLOUIN|    55           0.00391       -0.43750        0.31250        0.31250
 BRILLOUIN|    56           0.00391       -0.43750        0.31250        0.43750
 BRILLOUIN|    57           0.00391       -0.43750        0.43750       -0.43750
 BRILLOUIN|    58           0.00391       -0.43750        0.43750       -0.31250
 BRILLOUIN|    59           0.00391       -0.43750        0.43750       -0.18750
 BRILLOUIN|    60           0.00391       -0.43750        0.43750       -0.06250
 BRILLOUIN|    61           0.00391       -0.43750        0.43750        0.06250
 BRILLOUIN|    62           0.00391       -0.43750        0.43750        0.18750
 BRILLOUIN|    63           0.00391       -0.43750        0.43750        0.31250
 BRILLOUIN|    64           0.00391       -0.43750        0.43750        0.43750
 BRILLOUIN|    65           0.00391       -0.31250       -0.43750       -0.43750
 BRILLOUIN|    66           0.00391       -0.31250       -0.43750       -0.31250
 BRILLOUIN|    67           0.00391       -0.31250       -0.43750       -0.18750
 BRILLOUIN|    68           0.00391       -0.31250       -0.43750       -0.06250
 BRILLOUIN|    69           0.00391       -0.31250       -0.43750        0.06250
 BRILLOUIN|    70           0.00391       -0.31250       -0.43750        0.18750
 BRILLOUIN|    71           0.00391       -0.31250       -0.43750        0.31250
 BRILLOUIN|    72           0.00391       -0.31250       -0.43750        0.43750
 BRILLOUIN|    73           0.00391       -0.31250       -0.31250       -0.43750
 BRILLOUIN|    74           0.00391       -0.31250       -0.31250       -0.31250
 BRILLOUIN|    75           0.00391       -0.31250       -0.31250       -0.18750
 BRILLOUIN|    76           0.00391       -0.31250       -0.31250       -0.06250
 BRILLOUIN|    77           0.00391       -0.31250       -0.31250        0.06250
 BRILLOUIN|    78           0.00391       -0.31250       -0.31250        0.18750
 BRILLOUIN|    79           0.00391       -0.31250       -0.31250        0.31250
 BRILLOUIN|    80           0.00391       -0.31250       -0.31250        0.43750
 BRILLOUIN|    81           0.00391       -0.31250       -0.18750       -0.43750
 BRILLOUIN|    82           0.00391       -0.31250       -0.18750       -0.31250
 BRILLOUIN|    83           0.00391       -0.31250       -0.18750       -0.18750
 BRILLOUIN|    84           0.00391       -0.31250       -0.18750       -0.06250
 BRILLOUIN|    85           0.00391       -0.31250       -0.18750        0.06250
 BRILLOUIN|    86           0.00391       -0.31250       -0.18750        0.18750
 BRILLOUIN|    87           0.00391       -0.31250       -0.18750        0.31250
 BRILLOUIN|    88           0.00391       -0.31250       -0.18750        0.43750
 BRILLOUIN|    89           0.00391       -0.31250       -0.06250       -0.43750
 BRILLOUIN|    90           0.00391       -0.31250       -0.06250       -0.31250
 BRILLOUIN|    91           0.00391       -0.31250       -0.06250       -0.18750
 BRILLOUIN|    92           0.00391       -0.31250       -0.06250       -0.06250
 BRILLOUIN|    93           0.00391       -0.31250       -0.06250        0.06250
 BRILLOUIN|    94           0.00391       -0.31250       -0.06250        0.18750
 BRILLOUIN|    95           0.00391       -0.31250       -0.06250        0.31250
 BRILLOUIN|    96           0.00391       -0.31250       -0.06250        0.43750
 BRILLOUIN|    97           0.00391       -0.31250        0.06250       -0.43750
 BRILLOUIN|    98           0.00391       -0.31250        0.06250       -0.31250
 BRILLOUIN|    99           0.00391       -0.31250        0.06250       -0.18750
 BRILLOUIN|   100           0.00391       -0.31250        0.06250       -0.06250
 BRILLOUIN|   101           0.00391       -0.31250        0.06250        0.06250
 BRILLOUIN|   102           0.00391       -0.31250        0.06250        0.18750
 BRILLOUIN|   103           0.00391       -0.31250        0.06250        0.31250
 BRILLOUIN|   104           0.00391       -0.31250        0.06250        0.43750
 BRILLOUIN|   105           0.00391       -0.31250        0.18750       -0.43750
 BRILLOUIN|   106           0.00391       -0.31250        0.18750       -0.31250
 BRILLOUIN|   107           0.00391       -0.31250        0.18750       -0.18750
 BRILLOUIN|   108           0.00391       -0.31250        0.18750       -0.06250
 BRILLOUIN|   109           0.00391       -0.31250        0.18750        0.06250
 BRILLOUIN|   110           0.00391       -0.31250        0.18750        0.18750
 BRILLOUIN|   111           0.00391       -0.31250        0.18750        0.31250
 BRILLOUIN|   112           0.00391       -0.31250        0.18750        0.43750
 BRILLOUIN|   113           0.00391       -0.31250        0.31250       -0.43750
 BRILLOUIN|   114           0.00391       -0.31250        0.31250       -0.31250
 BRILLOUIN|   115           0.00391       -0.31250        0.31250       -0.18750
 BRILLOUIN|   116           0.00391       -0.31250        0.31250       -0.06250
 BRILLOUIN|   117           0.00391       -0.31250        0.31250        0.06250
 BRILLOUIN|   118           0.00391       -0.31250        0.31250        0.18750
 BRILLOUIN|   119           0.00391       -0.31250        0.31250        0.31250
 BRILLOUIN|   120           0.00391       -0.31250        0.31250        0.43750
 BRILLOUIN|   121           0.00391       -0.31250        0.43750       -0.43750
 BRILLOUIN|   122           0.00391       -0.31250        0.43750       -0.31250
 BRILLOUIN|   123           0.00391       -0.31250        0.43750       -0.18750
 BRILLOUIN|   124           0.00391       -0.31250        0.43750       -0.06250
 BRILLOUIN|   125           0.00391       -0.31250        0.43750        0.06250
 BRILLOUIN|   126           0.00391       -0.31250        0.43750        0.18750
 BRILLOUIN|   127           0.00391       -0.31250        0.43750        0.31250
 BRILLOUIN|   128           0.00391       -0.31250        0.43750        0.43750
 BRILLOUIN|   129           0.00391       -0.18750       -0.43750       -0.43750
 BRILLOUIN|   130           0.00391       -0.18750       -0.43750       -0.31250
 BRILLOUIN|   131           0.00391       -0.18750       -0.43750       -0.18750
 BRILLOUIN|   132           0.00391       -0.18750       -0.43750       -0.06250
 BRILLOUIN|   133           0.00391       -0.18750       -0.43750        0.06250
 BRILLOUIN|   134           0.00391       -0.18750       -0.43750        0.18750
 BRILLOUIN|   135           0.00391       -0.18750       -0.43750        0.31250
 BRILLOUIN|   136           0.00391       -0.18750       -0.43750        0.43750
 BRILLOUIN|   137           0.00391       -0.18750       -0.31250       -0.43750
 BRILLOUIN|   138           0.00391       -0.18750       -0.31250       -0.31250
 BRILLOUIN|   139           0.00391       -0.18750       -0.31250       -0.18750
 BRILLOUIN|   140           0.00391       -0.18750       -0.31250       -0.06250
 BRILLOUIN|   141           0.00391       -0.18750       -0.31250        0.06250
 BRILLOUIN|   142           0.00391       -0.18750       -0.31250        0.18750
 BRILLOUIN|   143           0.00391       -0.18750       -0.31250        0.31250
 BRILLOUIN|   144           0.00391       -0.18750       -0.31250        0.43750
 BRILLOUIN|   145           0.00391       -0.18750       -0.18750       -0.43750
 BRILLOUIN|   146           0.00391       -0.18750       -0.18750       -0.31250
 BRILLOUIN|   147           0.00391       -0.18750       -0.18750       -0.18750
 BRILLOUIN|   148           0.00391       -0.18750       -0.18750       -0.06250
 BRILLOUIN|   149           0.00391       -0.18750       -0.18750        0.06250
 BRILLOUIN|   150           0.00391       -0.18750       -0.18750        0.18750
 BRILLOUIN|   151           0.00391       -0.18750       -0.18750        0.31250
 BRILLOUIN|   152           0.00391       -0.18750       -0.18750        0.43750
 BRILLOUIN|   153           0.00391       -0.18750       -0.06250       -0.43750
 BRILLOUIN|   154           0.00391       -0.18750       -0.06250       -0.31250
 BRILLOUIN|   155           0.00391       -0.18750       -0.06250       -0.18750
 BRILLOUIN|   156           0.00391       -0.18750       -0.06250       -0.06250
 BRILLOUIN|   157           0.00391       -0.18750       -0.06250        0.06250
 BRILLOUIN|   158           0.00391       -0.18750       -0.06250        0.18750
 BRILLOUIN|   159           0.00391       -0.18750       -0.06250        0.31250
 BRILLOUIN|   160           0.00391       -0.18750       -0.06250        0.43750
 BRILLOUIN|   161           0.00391       -0.18750        0.06250       -0.43750
 BRILLOUIN|   162           0.00391       -0.18750        0.06250       -0.31250
 BRILLOUIN|   163           0.00391       -0.18750        0.06250       -0.18750
 BRILLOUIN|   164           0.00391       -0.18750        0.06250       -0.06250
 BRILLOUIN|   165           0.00391       -0.18750        0.06250        0.06250
 BRILLOUIN|   166           0.00391       -0.18750        0.06250        0.18750
 BRILLOUIN|   167           0.00391       -0.18750        0.06250        0.31250
 BRILLOUIN|   168           0.00391       -0.18750        0.06250        0.43750
 BRILLOUIN|   169           0.00391       -0.18750        0.18750       -0.43750
 BRILLOUIN|   170           0.00391       -0.18750        0.18750       -0.31250
 BRILLOUIN|   171           0.00391       -0.18750        0.18750       -0.18750
 BRILLOUIN|   172           0.00391       -0.18750        0.18750       -0.06250
 BRILLOUIN|   173           0.00391       -0.18750        0.18750        0.06250
 BRILLOUIN|   174           0.00391       -0.18750        0.18750        0.18750
 BRILLOUIN|   175           0.00391       -0.18750        0.18750        0.31250
 BRILLOUIN|   176           0.00391       -0.18750        0.18750        0.43750
 BRILLOUIN|   177           0.00391       -0.18750        0.31250       -0.43750
 BRILLOUIN|   178           0.00391       -0.18750        0.31250       -0.31250
 BRILLOUIN|   179           0.00391       -0.18750        0.31250       -0.18750
 BRILLOUIN|   180           0.00391       -0.18750        0.31250       -0.06250
 BRILLOUIN|   181           0.00391       -0.18750        0.31250        0.06250
 BRILLOUIN|   182           0.00391       -0.18750        0.31250        0.18750
 BRILLOUIN|   183           0.00391       -0.18750        0.31250        0.31250
 BRILLOUIN|   184           0.00391       -0.18750        0.31250        0.43750
 BRILLOUIN|   185           0.00391       -0.18750        0.43750       -0.43750
 BRILLOUIN|   186           0.00391       -0.18750        0.43750       -0.31250
 BRILLOUIN|   187           0.00391       -0.18750        0.43750       -0.18750
 BRILLOUIN|   188           0.00391       -0.18750        0.43750       -0.06250
 BRILLOUIN|   189           0.00391       -0.18750        0.43750        0.06250
 BRILLOUIN|   190           0.00391       -0.18750        0.43750        0.18750
 BRILLOUIN|   191           0.00391       -0.18750        0.43750        0.31250
 BRILLOUIN|   192           0.00391       -0.18750        0.43750        0.43750
 BRILLOUIN|   193           0.00391       -0.06250       -0.43750       -0.43750
 BRILLOUIN|   194           0.00391       -0.06250       -0.43750       -0.31250
 BRILLOUIN|   195           0.00391       -0.06250       -0.43750       -0.18750
 BRILLOUIN|   196           0.00391       -0.06250       -0.43750       -0.06250
 BRILLOUIN|   197           0.00391       -0.06250       -0.43750        0.06250
 BRILLOUIN|   198           0.00391       -0.06250       -0.43750        0.18750
 BRILLOUIN|   199           0.00391       -0.06250       -0.43750        0.31250
 BRILLOUIN|   200           0.00391       -0.06250       -0.43750        0.43750
 BRILLOUIN|   201           0.00391       -0.06250       -0.31250       -0.43750
 BRILLOUIN|   202           0.00391       -0.06250       -0.31250       -0.31250
 BRILLOUIN|   203           0.00391       -0.06250       -0.31250       -0.18750
 BRILLOUIN|   204           0.00391       -0.06250       -0.31250       -0.06250
 BRILLOUIN|   205           0.00391       -0.06250       -0.31250        0.06250
 BRILLOUIN|   206           0.00391       -0.06250       -0.31250        0.18750
 BRILLOUIN|   207           0.00391       -0.06250       -0.31250        0.31250
 BRILLOUIN|   208           0.00391       -0.06250       -0.31250        0.43750
 BRILLOUIN|   209           0.00391       -0.06250       -0.18750       -0.43750
 BRILLOUIN|   210           0.00391       -0.06250       -0.18750       -0.31250
 BRILLOUIN|   211           0.00391       -0.06250       -0.18750       -0.18750
 BRILLOUIN|   212           0.00391       -0.06250       -0.18750       -0.06250
 BRILLOUIN|   213           0.00391       -0.06250       -0.18750        0.06250
 BRILLOUIN|   214           0.00391       -0.06250       -0.18750        0.18750
 BRILLOUIN|   215           0.00391       -0.06250       -0.18750        0.31250
 BRILLOUIN|   216           0.00391       -0.06250       -0.18750        0.43750
 BRILLOUIN|   217           0.00391       -0.06250       -0.06250       -0.43750
 BRILLOUIN|   218           0.00391       -0.06250       -0.06250       -0.31250
 BRILLOUIN|   219           0.00391       -0.06250       -0.06250       -0.18750
 BRILLOUIN|   220           0.00391       -0.06250       -0.06250       -0.06250
 BRILLOUIN|   221           0.00391       -0.06250       -0.06250        0.06250
 BRILLOUIN|   222           0.00391       -0.06250       -0.06250        0.18750
 BRILLOUIN|   223           0.00391       -0.06250       -0.06250        0.31250
 BRILLOUIN|   224           0.00391       -0.06250       -0.06250        0.43750
 BRILLOUIN|   225           0.00391       -0.06250        0.06250       -0.43750
 BRILLOUIN|   226           0.00391       -0.06250        0.06250       -0.31250
 BRILLOUIN|   227           0.00391       -0.06250        0.06250       -0.18750
 BRILLOUIN|   228           0.00391       -0.06250        0.06250       -0.06250
 BRILLOUIN|   229           0.00391       -0.06250        0.06250        0.06250
 BRILLOUIN|   230           0.00391       -0.06250        0.06250        0.18750
 BRILLOUIN|   231           0.00391       -0.06250        0.06250        0.31250
 BRILLOUIN|   232           0.00391       -0.06250        0.06250        0.43750
 BRILLOUIN|   233           0.00391       -0.06250        0.18750       -0.43750
 BRILLOUIN|   234           0.00391       -0.06250        0.18750       -0.31250
 BRILLOUIN|   235           0.00391       -0.06250        0.18750       -0.18750
 BRILLOUIN|   236           0.00391       -0.06250        0.18750       -0.06250
 BRILLOUIN|   237           0.00391       -0.06250        0.18750        0.06250
 BRILLOUIN|   238           0.00391       -0.06250        0.18750        0.18750
 BRILLOUIN|   239           0.00391       -0.06250        0.18750        0.31250
 BRILLOUIN|   240           0.00391       -0.06250        0.18750        0.43750
 BRILLOUIN|   241           0.00391       -0.06250        0.31250       -0.43750
 BRILLOUIN|   242           0.00391       -0.06250        0.31250       -0.31250
 BRILLOUIN|   243           0.00391       -0.06250        0.31250       -0.18750
 BRILLOUIN|   244           0.00391       -0.06250        0.31250       -0.06250
 BRILLOUIN|   245           0.00391       -0.06250        0.31250        0.06250
 BRILLOUIN|   246           0.00391       -0.06250        0.31250        0.18750
 BRILLOUIN|   247           0.00391       -0.06250        0.31250        0.31250
 BRILLOUIN|   248           0.00391       -0.06250        0.31250        0.43750
 BRILLOUIN|   249           0.00391       -0.06250        0.43750       -0.43750
 BRILLOUIN|   250           0.00391       -0.06250        0.43750       -0.31250
 BRILLOUIN|   251           0.00391       -0.06250        0.43750       -0.18750
 BRILLOUIN|   252           0.00391       -0.06250        0.43750       -0.06250
 BRILLOUIN|   253           0.00391       -0.06250        0.43750        0.06250
 BRILLOUIN|   254           0.00391       -0.06250        0.43750        0.18750
 BRILLOUIN|   255           0.00391       -0.06250        0.43750        0.31250
 BRILLOUIN|   256           0.00391       -0.06250        0.43750        0.43750
 *******************************************************************************

 *******************************************************************************
 *******************************************************************************
 **                                                                           **
 **     #####                         ##              ##                      **
 **    ##   ##            ##          ##              ##                      **
 **   ##     ##                       ##            ######                    **
 **   ##     ##  ##   ##  ##   #####  ##  ##   ####   ##    #####    #####    **
 **   ##     ##  ##   ##  ##  ##      ## ##   ##      ##   ##   ##  ##   ##   **
 **   ##  ## ##  ##   ##  ##  ##      ####     ###    ##   ######   ######    **
 **    ##  ###   ##   ##  ##  ##      ## ##      ##   ##   ##       ##        **
 **     #######   #####   ##   #####  ##  ##  ####    ##    #####   ##        **
 **           ##                                                    ##        **
 **                                                                           **
 **                                                ... make the atoms dance   **
 **                                                                           **
 **            Copyright (C) by CP2K developers group (2000-2025)             **
 **                      J. Chem. Phys. 152, 194103 (2020)                    **
 **                                                                           **
 *******************************************************************************

 DFT| Spin restricted Kohn-Sham (RKS) calculation                            RKS
 DFT| Multiplicity                                                             1
 DFT| Number of spin states                                                    1
 DFT| Charge                                                                   0
 DFT| Self-interaction correction (SIC)                                       NO
 DFT| Cutoffs: density                                              1.000000E-10
 DFT|          gradient                                             1.000000E-10
 DFT|          tau                                                  1.000000E-10
 DFT|          cutoff_smoothing_range                               0.000000E+00
 DFT| XC density smoothing                                                  NONE
 DFT| XC derivatives                                                          PW

 FUNCTIONAL| PBE:
 FUNCTIONAL| J.P.Perdew, K.Burke, M.Ernzerhof, Phys. Rev. Letter, vol. 77, n 18,
 FUNCTIONAL|  pp. 3865-3868, (1996) {spin unpolarized}                          


 QS| Method:                                                                 GPW
 QS| Density plane wave grid type                        NON-SPHERICAL FULLSPACE
 QS| Number of grid levels:                                                    4
 QS| Density cutoff [a.u.]:                                                500.0
 QS| Multi grid cutoff [a.u.]: 1) grid level                               500.0
 QS|                           2) grid level                               166.7
 QS|                           3) grid level                                55.6
 QS|                           4) grid level                                18.5
 QS| Grid level progression factor:                                          3.0
 QS| Relative density cutoff [a.u.]:                                        50.0
 QS| Interaction thresholds: eps_pgf_orb:                                1.0E-16
 QS|                         eps_filter_matrix:                          0.0E+00
 QS|                         eps_core_charge:                            1.0E-18
 QS|                         eps_rho_gspace:                             1.0E-16
 QS|                         eps_rho_rspace:                             1.0E-16
 QS|                         eps_gvg_rspace:                             1.0E-08
 QS|                         eps_ppl:                                    1.0E-02
 QS|                         eps_ppnl:                                   1.0E-10


 ATOMIC KIND INFORMATION

  1. Atomic kind: Ga                                    Number of atoms:       8

     Orbital Basis Set                                   DZVP-MOLOPT-GGA-GTH-q13

       Number of orbital shell sets:                                           1
       Number of orbital shells:                                               7
       Number of primitive Cartesian functions:                                6
       Number of Cartesian basis functions:                                   30
       Number of spherical basis functions:                                   25
       Norm type:                                                              2

       Normalised Cartesian orbitals:

                        Set   Shell   Orbital            Exponent    Coefficient

                          1       1    2s                6.931811      -0.014284
                                                         3.016564      -0.021627
                                                         1.101545       0.274295
                                                         0.404299      -0.086407
                                                         0.157457      -0.131381
                                                         0.056923      -0.021402

                          1       2    3s                6.931811       0.028592
                                                         3.016564      -0.107854
                                                         1.101545       0.369736
                                                         0.404299      -0.214870
                                                         0.157457       0.005790
                                                         0.056923       0.094038

                          1       3    3px               6.931811      -0.028607
                                                         3.016564       0.081664
                                                         1.101545       0.152403
                                                         0.404299      -0.118378
                                                         0.157457      -0.073895
                                                         0.056923      -0.015619
                          1       3    3py               6.931811      -0.028607
                                                         3.016564       0.081664
                                                         1.101545       0.152403
                                                         0.404299      -0.118378
                                                         0.157457      -0.073895
                                                         0.056923      -0.015619
                          1       3    3pz               6.931811      -0.028607
                                                         3.016564       0.081664
                                                         1.101545       0.152403
                                                         0.404299      -0.118378
                                                         0.157457      -0.073895
                                                         0.056923      -0.015619

                          1       4    4px               6.931811       0.011928
                                                         3.016564      -0.175873
                                                         1.101545      -0.404655
                                                         0.404299       0.347469
                                                         0.157457       0.062030
                                                         0.056923      -0.045091
                          1       4    4py               6.931811       0.011928
                                                         3.016564      -0.175873
                                                         1.101545      -0.404655
                                                         0.404299       0.347469
                                                         0.157457       0.062030
                                                         0.056923      -0.045091
                          1       4    4pz               6.931811       0.011928
                                                         3.016564      -0.175873
                                                         1.101545      -0.404655
                                                         0.404299       0.347469
                                                         0.157457       0.062030
                                                         0.056923      -0.045091

                          1       5    4dx2              6.931811     -15.360036
                                                         3.016564      -4.441537
                                                         1.101545      -0.600359
                                                         0.404299      -0.078539
                                                         0.157457      -0.005748
                                                         0.056923      -0.000348
                          1       5    4dxy              6.931811     -26.604362
                                                         3.016564      -7.692968
                                                         1.101545      -1.039853
                                                         0.404299      -0.136034
                                                         0.157457      -0.009956
                                                         0.056923      -0.000603
                          1       5    4dxz              6.931811     -26.604362
                                                         3.016564      -7.692968
                                                         1.101545      -1.039853
                                                         0.404299      -0.136034
                                                         0.157457      -0.009956
                                                         0.056923      -0.000603
                          1       5    4dy2              6.931811     -15.360036
                                                         3.016564      -4.441537
                                                         1.101545      -0.600359
                                                         0.404299      -0.078539
                                                         0.157457      -0.005748
                                                         0.056923      -0.000348
                          1       5    4dyz              6.931811     -26.604362
                                                         3.016564      -7.692968
                                                         1.101545      -1.039853
                                                         0.404299      -0.136034
                                                         0.157457      -0.009956
                                                         0.056923      -0.000603
                          1       5    4dz2              6.931811     -15.360036
                                                         3.016564      -4.441537
                                                         1.101545      -0.600359
                                                         0.404299      -0.078539
                                                         0.157457      -0.005748
                                                         0.056923      -0.000348

                          1       6    5dx2              6.931811      -5.844272
                                                         3.016564      -2.347771
                                                         1.101545      -0.359714
                                                         0.404299       0.187421
                                                         0.157457       0.028903
                                                         0.056923       0.002210
                          1       6    5dxy              6.931811     -10.122576
                                                         3.016564      -4.066458
                                                         1.101545      -0.623042
                                                         0.404299       0.324623
                                                         0.157457       0.050062
                                                         0.056923       0.003828
                          1       6    5dxz              6.931811     -10.122576
                                                         3.016564      -4.066458
                                                         1.101545      -0.623042
                                                         0.404299       0.324623
                                                         0.157457       0.050062
                                                         0.056923       0.003828
                          1       6    5dy2              6.931811      -5.844272
                                                         3.016564      -2.347771
                                                         1.101545      -0.359714
                                                         0.404299       0.187421
                                                         0.157457       0.028903
                                                         0.056923       0.002210
                          1       6    5dyz              6.931811     -10.122576
                                                         3.016564      -4.066458
                                                         1.101545      -0.623042
                                                         0.404299       0.324623
                                                         0.157457       0.050062
                                                         0.056923       0.003828
                          1       6    5dz2              6.931811      -5.844272
                                                         3.016564      -2.347771
                                                         1.101545      -0.359714
                                                         0.404299       0.187421
                                                         0.157457       0.028903
                                                         0.056923       0.002210

                          1       7    5fx3              6.931811       0.002760
                                                         3.016564       0.007511
                                                         1.101545       0.184763
                                                         0.404299       0.131279
                                                         0.157457       0.007170
                                                         0.056923       0.000245
                          1       7    5fx2y             6.931811       0.006170
                                                         3.016564       0.016796
                                                         1.101545       0.413142
                                                         0.404299       0.293550
                                                         0.157457       0.016032
                                                         0.056923       0.000548
                          1       7    5fx2z             6.931811       0.006170
                                                         3.016564       0.016796
                                                         1.101545       0.413142
                                                         0.404299       0.293550
                                                         0.157457       0.016032
                                                         0.056923       0.000548
                          1       7    5fxy2             6.931811       0.006170
                                                         3.016564       0.016796
                                                         1.101545       0.413142
                                                         0.404299       0.293550
                                                         0.157457       0.016032
                                                         0.056923       0.000548
                          1       7    5fxyz             6.931811       0.010688
                                                         3.016564       0.029092
                                                         1.101545       0.715583
                                                         0.404299       0.508443
                                                         0.157457       0.027769
                                                         0.056923       0.000949
                          1       7    5fxz2             6.931811       0.006170
                                                         3.016564       0.016796
                                                         1.101545       0.413142
                                                         0.404299       0.293550
                                                         0.157457       0.016032
                                                         0.056923       0.000548
                          1       7    5fy3              6.931811       0.002760
                                                         3.016564       0.007511
                                                         1.101545       0.184763
                                                         0.404299       0.131279
                                                         0.157457       0.007170
                                                         0.056923       0.000245
                          1       7    5fy2z             6.931811       0.006170
                                                         3.016564       0.016796
                                                         1.101545       0.413142
                                                         0.404299       0.293550
                                                         0.157457       0.016032
                                                         0.056923       0.000548
                          1       7    5fyz2             6.931811       0.006170
                                                         3.016564       0.016796
                                                         1.101545       0.413142
                                                         0.404299       0.293550
                                                         0.157457       0.016032
                                                         0.056923       0.000548
                          1       7    5fz3              6.931811       0.002760
                                                         3.016564       0.007511
                                                         1.101545       0.184763
                                                         0.404299       0.131279
                                                         0.157457       0.007170
                                                         0.056923       0.000245

       Atomic covalent radius [Angstrom]:                                  1.260

       Atomic van der Waals radius [Angstrom]:                             1.870

     GTH Potential information for                                   GTH-PBE-q13

       Description:                       Goedecker-Teter-Hutter pseudopotential
                                           Goedecker et al., PRB 54, 1703 (1996)
                                          Hartwigsen et al., PRB 58, 3641 (1998)
                                                      Krack, TCA 114, 145 (2005)

       Gaussian exponent of the core charge distribution:               2.082466
       Electronic configuration (s p d ...):                           2   1  10

       Parameters of the local part of the GTH pseudopotential:

                          rloc        C1          C2          C3          C4
                        0.490000

       Parameters of the non-local part of the GTH (SOC) pseudopotential:

                   l      r(l)      h(i,j,l)
                                    k(i,j,l)
                   0    0.416777   10.475690   -4.921768    0.870706
                                   -4.921768    7.770178   -2.248152
                                    0.870706   -2.248152    1.784415
                   1    0.569627    1.777985    0.195860
                                    0.195860   -0.231744
                                    0.079222   -0.052777
                                   -0.052777    0.062447
                   2    0.238126  -16.248680
                                    0.015457


 MOLECULE KIND INFORMATION


 All atoms are their own molecule, skipping detailed information


 TOTAL NUMBERS AND MAXIMUM NUMBERS

  Total number of            - Atomic kinds:                                   1
                             - Atoms:                                          8
                             - Shell sets:                                     8
                             - Shells:                                        56
                             - Primitive Cartesian functions:                 48
                             - Cartesian basis functions:                    240
                             - Spherical basis functions:                    200

  Maximum angular momentum of the orbital basis functions:                     3


 MODULE QUICKSTEP: ATOMIC COORDINATES IN ANGSTROM

   Atom Kind Element         X             Y             Z       Z(eff)     Mass
      1    1 Ga   31      0.000000      1.212771      0.373502  13.0000  69.7230
      2    1 Ga   31      0.000000      6.540529      4.226278  13.0000  69.7230
      3    1 Ga   31      0.000000      2.663879      2.673392  13.0000  69.7230
      4    1 Ga   31      0.000000      5.089421      1.926388  13.0000  69.7230
      5    1 Ga   31      2.283445      5.089421      0.373502  13.0000  69.7230
      6    1 Ga   31      2.283445      2.663879      4.226278  13.0000  69.7230
      7    1 Ga   31      2.283445      6.540529      2.673392  13.0000  69.7230
      8    1 Ga   31      2.283445      1.212771      1.926388  13.0000  69.7230



 SCF PARAMETERS         Density guess:                                    ATOMIC
                        --------------------------------------------------------
                        max_scf:                                             500
                        max_scf_history:                                       0
                        max_diis:                                              4
                        --------------------------------------------------------
                        eps_scf:                                        1.00E-09
                        eps_scf_history:                                0.00E+00
                        eps_diis:                                       1.00E-01
                        eps_eigval:                                     1.00E-05
                        --------------------------------------------------------
                        level_shift [a.u.]:                             0.000000
                        added MOs                                       148    0
                        --------------------------------------------------------
                        Mixing method:                            BROYDEN_MIXING
                                                charge density mixing in g-space
                        --------------------------------------------------------
                        Smear method:                                FERMI_DIRAC
                        Electronic temperature [K]:                        300.0
                        Electronic temperature [a.u.]:                  9.50E-04
                        Accuracy threshold:                             1.00E-10
                        --------------------------------------------------------
                        No outer SCF

 PW_GRID| Information for grid number                                          1
 PW_GRID| Grid distributed over                                     8 processors
 PW_GRID| Real space group dimensions                                     8    1
 PW_GRID| the grid is blocked:                                                NO
 PW_GRID| Cutoff [a.u.]                                                    500.0
 PW_GRID| spherical cutoff:                                                   NO
 PW_GRID|   Bounds   1            -45      44                Points:          90
 PW_GRID|   Bounds   2            -75      74                Points:         150
 PW_GRID|   Bounds   3            -45      44                Points:          90
 PW_GRID| Volume element (a.u.^3)  0.9046E-03     Volume (a.u.^3)      1099.1091
 PW_GRID| Grid span                                                    FULLSPACE
 PW_GRID|   Distribution                         Average         Max         Min
 PW_GRID|   G-Vectors                           151875.0      151920      151830
 PW_GRID|   G-Rays                                1687.5        1688        1687
 PW_GRID|   Real Space Points                   151875.0      162000      148500

 PW_GRID| Information for grid number                                          2
 PW_GRID| Number of the reference grid                                         1
 PW_GRID| Grid distributed over                                     8 processors
 PW_GRID| Real space group dimensions                                     8    1
 PW_GRID| the grid is blocked:                                                NO
 PW_GRID| Cutoff [a.u.]                                                    166.7
 PW_GRID| spherical cutoff:                                                   NO
 PW_GRID|   Bounds   1            -27      26                Points:          54
 PW_GRID|   Bounds   2            -45      44                Points:          90
 PW_GRID|   Bounds   3            -27      26                Points:          54
 PW_GRID| Volume element (a.u.^3)  0.4188E-02     Volume (a.u.^3)      1099.1091
 PW_GRID| Grid span                                                    FULLSPACE
 PW_GRID|   Distribution                         Average         Max         Min
 PW_GRID|   G-Vectors                            32805.0       32940       32670
 PW_GRID|   G-Rays                                 607.5         610         605
 PW_GRID|   Real Space Points                    32805.0       34020       29160

 PW_GRID| Information for grid number                                          3
 PW_GRID| Number of the reference grid                                         1
 PW_GRID| Grid distributed over                                     8 processors
 PW_GRID| Real space group dimensions                                     8    1
 PW_GRID| the grid is blocked:                                                NO
 PW_GRID| Cutoff [a.u.]                                                     55.6
 PW_GRID| spherical cutoff:                                                   NO
 PW_GRID|   Bounds   1            -15      14                Points:          30
 PW_GRID|   Bounds   2            -27      26                Points:          54
 PW_GRID|   Bounds   3            -15      14                Points:          30
 PW_GRID| Volume element (a.u.^3)  0.2262E-01     Volume (a.u.^3)      1099.1091
 PW_GRID| Grid span                                                    FULLSPACE
 PW_GRID|   Distribution                         Average         Max         Min
 PW_GRID|   G-Vectors                             6075.0        6150        6000
 PW_GRID|   G-Rays                                 202.5         205         200
 PW_GRID|   Real Space Points                     6075.0        6480        4860

 PW_GRID| Information for grid number                                          4
 PW_GRID| Number of the reference grid                                         1
 PW_GRID| Grid distributed over                                     8 processors
 PW_GRID| Real space group dimensions                                     8    1
 PW_GRID| the grid is blocked:                                                NO
 PW_GRID| Cutoff [a.u.]                                                     18.5
 PW_GRID| spherical cutoff:                                                   NO
 PW_GRID|   Bounds   1             -9       8                Points:          18
 PW_GRID|   Bounds   2            -15      14                Points:          30
 PW_GRID|   Bounds   3             -9       8                Points:          18
 PW_GRID| Volume element (a.u.^3)  0.1131         Volume (a.u.^3)      1099.1091
 PW_GRID| Grid span                                                    FULLSPACE
 PW_GRID|   Distribution                         Average         Max         Min
 PW_GRID|   G-Vectors                             1215.0        1278        1188
 PW_GRID|   G-Rays                                  67.5          71          66
 PW_GRID|   Real Space Points                     1215.0        1620        1080

 POISSON| Solver                                                        PERIODIC
 POISSON| Periodicity                                                        XYZ

 RS_GRID| Information for grid number                                          1
 RS_GRID|   Bounds   1            -45      44                Points:          90
 RS_GRID|   Bounds   2            -75      74                Points:         150
 RS_GRID|   Bounds   3            -45      44                Points:          90
 RS_GRID| Real space fully replicated
 RS_GRID| Group size                                                           1

 RS_GRID| Information for grid number                                          2
 RS_GRID|   Bounds   1            -27      26                Points:          54
 RS_GRID|   Bounds   2            -45      44                Points:          90
 RS_GRID|   Bounds   3            -27      26                Points:          54
 RS_GRID| Real space fully replicated
 RS_GRID| Group size                                                           1

 RS_GRID| Information for grid number                                          3
 RS_GRID|   Bounds   1            -15      14                Points:          30
 RS_GRID|   Bounds   2            -27      26                Points:          54
 RS_GRID|   Bounds   3            -15      14                Points:          30
 RS_GRID| Real space fully replicated
 RS_GRID| Group size                                                           1

 RS_GRID| Information for grid number                                          4
 RS_GRID|   Bounds   1             -9       8                Points:          18
 RS_GRID|   Bounds   2            -15      14                Points:          30
 RS_GRID|   Bounds   3             -9       8                Points:          18
 RS_GRID| Real space fully replicated
 RS_GRID| Group size                                                           1

 Number of electrons:                                                        104
 Number of occupied orbitals:                                                 52
 Number of molecular orbitals:                                               200

 Number of orbital functions:                                                200
 Number of independent orbital functions:                                    200

 Extrapolation method: initial_guess

 Atomic guess: The first density matrix is obtained in terms of atomic orbitals
               and electronic configurations assigned to each atomic kind

 Guess for atomic kind: Ga

 Electronic structure
    Total number of core electrons                                         18.00
    Total number of valence electrons                                      13.00
    Total number of electrons                                              31.00
    Multiplicity                                                   not specified
    S   [  2.00  2.00  2.00] 2.00
    P   [  6.00  6.00] 1.00
    D     10.00


 *******************************************************************************
                  Iteration          Convergence                     Energy [au]
 *******************************************************************************
                          1         22.9610                     -48.567690197117
                          2         2.59104                     -73.076109754963
                          3        0.690710E-01                 -74.144615434518
                          4        0.104473E-01                 -74.144859749769
                          5        0.169889E-03                 -74.144866577963
                          6        0.109155E-03                 -74.144866607822
                          7        0.121454E-03                 -74.144866609120
                          8        0.641842E-07                 -74.144866609931

 Energy components [Hartree]           Total Energy ::          -74.144866609931
                                        Band Energy ::           -7.423046905497
                                     Kinetic Energy ::           99.780346718914
                                   Potential Energy ::         -173.925213328845
                                      Virial (-V/T) ::            1.743080867606
                                        Core Energy ::         -134.173005982351
                                          XC Energy ::           -9.775181693139
                                     Coulomb Energy ::           69.803321065559
                       Total Pseudopotential Energy ::         -234.020146159507
                       Local Pseudopotential Energy ::         -163.326493521561
                    Nonlocal Pseudopotential Energy ::          -70.693652637946
                                        Confinement ::            0.667934582422

 Orbital energies  State     L     Occupation   Energy[a.u.]          Energy[eV]

                       1     0          2.000      -0.311870           -8.486405

                       1     1          1.000      -0.065497           -1.782255

                       1     2         10.000      -0.673381          -18.323631


 Total Electron Density at R=0:                                         0.000000
 Re-scaling the density matrix to get the right number of electrons
                  # Electrons              Trace(P)               Scaling factor
                          104               104.000                        1.000


 SCF WAVEFUNCTION OPTIMIZATION

  Step     Update method      Time    Convergence         Total energy    Change
  ------------------------------------------------------------------------------
     1 NoMix/Diag. 0.10E+00    9.3     0.77171563      -597.3344521973 -5.97E+02
     2 Broy./Diag. 0.10E+00    9.4     0.00087760      -597.3605108497 -2.61E-02
     3 Broy./Diag. 0.10E+00    9.4     0.01541786      -596.8798626544  4.81E-01
     4 Broy./Diag. 0.10E+00    9.4     0.00068599      -596.4979069097  3.82E-01
     5 Broy./Diag. 0.10E+00    9.4     0.00338043      -596.5890889115 -9.12E-02
     6 Broy./Diag. 0.10E+00    9.4     0.00021347      -596.6617462646 -7.27E-02
     7 Broy./Diag. 0.10E+00    9.4     0.00170660      -596.6631486835 -1.40E-03
     8 Broy./Diag. 0.10E+00    9.4     0.00004033      -596.6635380272 -3.89E-04
     9 Broy./Diag. 0.10E+00    9.4     0.00022844      -596.6660368704 -2.50E-03
    10 Broy./Diag. 0.10E+00    9.4     0.00000315      -596.6682175464 -2.18E-03
    11 Broy./Diag. 0.10E+00    9.4     0.00002329      -596.6684480334 -2.30E-04
    12 Broy./Diag. 0.10E+00    9.4     0.00000142      -596.6686078489 -1.60E-04
    13 Broy./Diag. 0.10E+00    9.4     0.00001480      -596.6686628610 -5.50E-05
    14 Broy./Diag. 0.10E+00    9.4     0.00000033      -596.6686935820 -3.07E-05
    15 Broy./Diag. 0.10E+00    9.4     0.00000206      -596.6687219802 -2.84E-05
    16 Broy./Diag. 0.10E+00    9.4     0.00000012      -596.6687421960 -2.02E-05
    17 Broy./Diag. 0.10E+00    9.4     0.00000062      -596.6687259662  1.62E-05
    18 Broy./Diag. 0.10E+00    9.4     0.00000002      -596.6687140364  1.19E-05
    19 Broy./Diag. 0.10E+00    9.4     0.00000014      -596.6687180104 -3.97E-06
    20 Broy./Diag. 0.10E+00    9.4     0.00000001      -596.6687213698 -3.36E-06
    21 Broy./Diag. 0.10E+00    9.4     0.00000003      -596.6687211100  2.60E-07
    22 Broy./Diag. 0.10E+00    9.4     3.4153E-09      -596.6687208230  2.87E-07
    23 Broy./Diag. 0.10E+00    9.4     7.8584E-09      -596.6687208067  1.64E-08
    24 Broy./Diag. 0.10E+00    9.4     9.1532E-09      -596.6687208007  5.99E-09
    25 Broy./Diag. 0.10E+00    9.4     2.6895E-09      -596.6687207919  8.74E-09
    26 Broy./Diag. 0.10E+00    9.4     2.3943E-09      -596.6687207755  1.64E-08
    27 Broy./Diag. 0.10E+00    9.4     3.6755E-09      -596.6687208057 -3.01E-08
    28 Broy./Diag. 0.10E+00    9.4     5.0408E-09      -596.6687209097 -1.04E-07
    29 Broy./Diag. 0.10E+00    9.4     5.9831E-10      -596.6687209403 -3.06E-08

  *** SCF run converged in    29 steps ***


  Electronic density on regular grids:       -104.0000000000       -0.0000000000
  Core density on regular grids:              104.0000000000        0.0000000000
  Total charge density on r-space grids:       -0.0000000000
  Total charge density g-space grids:          -0.0000000000

  Overlap energy of the core charge distribution:               0.00000000068162
  Self energy of the core charge distribution:               -778.35134383323123
  Core Hamiltonian energy:                                    233.76228087037012
  Hartree energy:                                              29.41446876451690
  Exchange-correlation energy:                                -81.49401415880521
  Electronic entropic energy:                                  -0.00011258382912
  Fermi energy:                                                 0.17781229652684

  Total energy:                                              -596.66872094029713

 !-----------------------------------------------------------------------------!
                     Mulliken Population Analysis

 #  Atom  Element  Kind  Atomic population                           Net charge
       1     Ga       1         13.000000                             -0.000000
       2     Ga       1         13.000000                             -0.000000
       3     Ga       1         13.000000                             -0.000000
       4     Ga       1         13.000000                             -0.000000
       5     Ga       1         13.000000                              0.000000
       6     Ga       1         13.000000                              0.000000
       7     Ga       1         13.000000                              0.000000
       8     Ga       1         13.000000                              0.000000
 # Total charge                            104.000000                 -0.000000

 !-----------------------------------------------------------------------------!

 !-----------------------------------------------------------------------------!
                           Hirshfeld Charges

  #Atom  Element  Kind  Ref Charge     Population                    Net charge
      1       Ga     1      13.000         13.000                        -0.000
      2       Ga     1      13.000         13.000                        -0.000
      3       Ga     1      13.000         13.000                        -0.000
      4       Ga     1      13.000         13.000                        -0.000
      5       Ga     1      13.000         13.000                         0.000
      6       Ga     1      13.000         13.000                         0.000
      7       Ga     1      13.000         13.000                         0.000
      8       Ga     1      13.000         13.000                         0.000

  Total Charge                                                           -0.000
 !-----------------------------------------------------------------------------!

 KPOINTS| Band Structure Calculation
 KPOINTS| Number of k-point sets                                               1
 KPOINTS| Number of added MOs/bands                                           -1
 KPOINTS| Number of k-points in set    1                                     148
 KPOINTS| In units of b-vector [2pi/Bohr]
 KPOINTS| Special point     1 not specifi     0.000000     0.000000     0.000000
 KPOINTS| Special point     2 not specifi    -0.500000     0.500000     0.000000
 KPOINTS| Special point     3 not specifi    -0.336738     0.663262     0.000000
 KPOINTS| Special point     4 not specifi     0.000000     0.000000     0.000000
 KPOINTS| Time for k-point line                                            4.599

 ENERGY| Total FORCE_EVAL ( QS ) energy [hartree]           -596.668720940297135

 -------------------------------------------------------------------------------
 -                                                                             -
 -                                DBCSR STATISTICS                             -
 -                                                                             -
 -------------------------------------------------------------------------------
 COUNTER                                    TOTAL       BLAS       SMM       ACC
 flops inhomo. stacks                           0       0.0%      0.0%      0.0%
 flops total                         0.000000E+00       0.0%      0.0%      0.0%
 flops max/rank                      0.000000E+00       0.0%      0.0%      0.0%
 matmuls inhomo. stacks                         0       0.0%      0.0%      0.0%
 matmuls total                                  0       0.0%      0.0%      0.0%
 number of processed stacks                     0       0.0%      0.0%      0.0%
 average stack size                                     0.0       0.0       0.0
 marketing flops                     0.000000E+00
 -------------------------------------------------------------------------------
 -                                                                             -
 -                      DBCSR MESSAGE PASSING PERFORMANCE                      -
 -                                                                             -
 -------------------------------------------------------------------------------
 ROUTINE             CALLS      AVE VOLUME [Bytes]
 MP_Bcast                1                     12.
 MP_Allreduce           19                     21.
 MP_Alltoall        639616                  20477.
 -------------------------------------------------------------------------------

 -------------------------------------------------------------------------------
 -                                                                             -
 -                                DBM STATISTICS                               -
 -                                                                             -
 -------------------------------------------------------------------------------
    M  x    N  x    K                                          COUNT     PERCENT
 -------------------------------------------------------------------------------

 -------------------------------------------------------------------------------
 -                                                                             -
 -                                GRID STATISTICS                              -
 -                                                                             -
 -------------------------------------------------------------------------------
 LP    KERNEL             BACKEND                              COUNT     PERCENT
 6     collocate ortho    CPU                                1969320      50.85%
 6     integrate ortho    CPU                                1903676      49.15%
 0     collocate general  CPU                                     16       0.00%
 0     integrate general  CPU                                      8       0.00%
 -------------------------------------------------------------------------------

 MEMORY| Estimated peak process memory [MiB]                                 772

 -------------------------------------------------------------------------------
 ----                             MULTIGRID INFO                            ----
 -------------------------------------------------------------------------------
 count for grid        1:          35696          cutoff [a.u.]          500.00
 count for grid        2:          41360          cutoff [a.u.]          166.67
 count for grid        3:          28524          cutoff [a.u.]           55.56
 count for grid        4:          53540          cutoff [a.u.]           18.52
 total gridlevel count  :         159120

 -------------------------------------------------------------------------------
 -                                                                             -
 -                         MESSAGE PASSING PERFORMANCE                         -
 -                                                                             -
 -------------------------------------------------------------------------------

 ROUTINE             CALLS      AVE VOLUME [Bytes]
 MP_Group                6
 MP_Bcast           271916                  15962.
 MP_Allreduce        76442                    173.
 MP_Sync                 4
 MP_Alltoall           527                6675985.
 MP_SendRecv           854                 422793.
 MP_ISendRecv          819                 415828.
 MP_Wait            187079
 MP_comm_split           4
 MP_ISend           198284                   9117.
 MP_IRecv           316544                   5734.
 -------------------------------------------------------------------------------


 -------------------------------------------------------------------------------
 -                                                                             -
 -                           R E F E R E N C E S                               -
 -                                                                             -
 -------------------------------------------------------------------------------
 
 CP2K version 2025.1 (Development Version), the CP2K developers group (2025).
 CP2K is freely available from https://www.cp2k.org/ .
 
 T. D. Kuehne, M. Iannuzzi, M. Del Ben, V. V. Rybkin, P. Seewald, F. Stein, T. 
 Laino, R. Z. Khaliullin, O. Schuett, F. Schiffmann, D. Golze, J. Wilhelm, S. 
 Chulkov, M. H. Bani-Hashemian, V. Weber, U. Borstnik, M. Taillefumier, A. S. 
 Jakobovits, A. Lazzaro, H. Pabst, T. Mueller, R. Schade, M. Guidon, S. 
 Andermatt, N. Holmberg, G. K. Schenter, A. Hehn, A. Bussy, F. Belleflamme, G. 
 Tabacchi, A. Gloess, M. Lass, I. Bethune, C. J. Mundy, C. Plessl, M. Watkins, 
 J. VandeVondele, M. Krack, J. Hutter.
 J. Chem. Phys. 152, 194103 (2020).
 CP2K: An electronic structure and molecular dynamics software package - 
 Quickstep: Efficient and accurate electronic structure calculations.
 https://doi.org/10.1063/5.0007045

 O. Schuett, P. Messmer, J. Hutter, J. VandeVondele.
 Electronic Structure Calculations on Graphics Processing Units, 173-190 (2016).
 GPU-Accelerated Sparse Matrix-Matrix Multiplication for Linear Scaling Density 
 Functional Theory.
 https://doi.org/10.1002/9781118670712.ch8

 J. Hutter, M. Iannuzzi, F. Schiffmann, J. VandeVondele.
 WIREs Comput Mol Sci. 4, 15-25 (2014).
 CP2K: atomistic simulations of condensed matter systems.
 https://doi.org/10.1002/wcms.1159

 U. Borstnik, J. VandeVondele, V. Weber, J. Hutter.
 Parallel Comput. 40, 47-58 (2014).
 Sparse matrix multiplication: The distributed block-compressed sparse row 
 library.
 https://doi.org/10.1016/j.parco.2014.03.012

 J. VandeVondele, J. Hutter.
 J. Chem. Phys. 127, 114105 (2007).
 Gaussian basis sets for accurate calculations on molecular systems in gas and 
 condensed phases.
 https://doi.org/10.1063/1.2770708

 J. VandeVondele, M. Krack, F. Mohamed, M. Parrinello, T. Chassaing, J. Hutter.
 Comput. Phys. Commun. 167, 103-128 (2005).
 QUICKSTEP: Fast and accurate density functional calculations using a mixed 
 Gaussian and plane waves approach.
 https://doi.org/10.1016/j.cpc.2004.12.014

 M. Krack.
 Theor. Chem. Acc. 114, 145-152 (2005).
 Pseudopotentials for H to Kr optimized for gradient-corrected 
 exchange-correlation functionals.
 https://doi.org/10.1007/s00214-005-0655-y

 M. Frigo, S. G. Johnson.
 Proc. IEEE 93, 216-231 (2005).
 The design and implementation of FFTW3.
 https://doi.org/10.1109/JPROC.2004.840301

 C. Hartwigsen, S. Goedecker, J. Hutter.
 Phys. Rev. B 58, 3641-3662 (1998).
 Relativistic separable dual-space Gaussian pseudopotentials from H to Rn.
 https://doi.org/10.1103/PhysRevB.58.3641

 G. Lippert, J. Hutter, M. Parrinello.
 Mol. Phys. 92, 477-487 (1997).
 A hybrid Gaussian and plane wave density functional scheme.
 https://doi.org/10.1080/002689797170220

 S. Goedecker, M. Teter, J. Hutter.
 Phys. Rev. B 54, 1703-1710 (1996).
 Separable dual-space Gaussian pseudopotentials.
 https://doi.org/10.1103/PhysRevB.54.1703

 J. P. Perdew, K. Burke, M. Ernzerhof.
 Phys. Rev. Lett. 77, 3865-3868 (1996).
 Generalized gradient approximation made simple.
 https://doi.org/10.1103/PhysRevLett.77.3865


 -------------------------------------------------------------------------------
 -                                                                             -
 -                                T I M I N G                                  -
 -                                                                             -
 -------------------------------------------------------------------------------
 SUBROUTINE                       CALLS  ASD         SELF TIME        TOTAL TIME
                                MAXIMUM       AVERAGE  MAXIMUM  AVERAGE  MAXIMUM
 CP2K                                 1  1.0    0.013    0.017  283.104  283.104
 qs_energies                          1  2.0    0.013    0.076  281.820  281.857
 scf_env_do_scf                       1  3.0    0.000    0.000  275.347  275.347
 scf_env_do_scf_inner_loop           29  4.0    0.024    0.025  275.346  275.347
 do_general_diag_kp                  30  5.9    0.213    0.232  254.900  258.136
 qs_scf_new_mos_kp                   29  5.0    0.000    0.000  250.464  253.749
 rskp_transform                   15144  6.9  104.842  117.922  104.842  117.922
 mp_alltoall_i22                 109176  8.8   23.464   78.245   23.464   78.245
 kpoint_density_transform            29  7.0    0.085    0.093   68.053   68.637
 dbcsr_desymmetrize_deep          62308  7.4    1.535    1.604   24.141   62.331
 transform_dmat                    7424  8.0   47.872   54.068   47.872   54.068
 dbcsr_complete_redistribute      46868  8.2    2.802    2.955   23.883   40.270
 cp_cfm_geeig_canon                 965  6.9    0.013    0.014   28.428   28.780
 copy_fm_to_dbcsr                 14848  8.0    0.099    0.105   12.027   28.365
 cp_cfm_heevd                      1930  7.9    0.003    0.004   24.267   24.572
 cp_cfm_heevd_base                 1930  8.9   24.263   24.569   24.263   24.569
 copy_dbcsr_to_fm                 32020  6.9    0.373    0.392   19.446   19.926
 cp_fm_start_copy_general         45136  7.3    2.417    2.710   13.529   14.119
 qs_ks_update_qs_env                 29  5.0    0.000    0.000   12.661   14.001
 rebuild_ks_matrix                   29  6.0    0.000    0.000   11.671   13.011
 qs_ks_build_kohn_sham_matrix        29  7.0    0.044    0.045   11.671   13.011
 sum_up_and_integrate                29  8.0    0.000    0.000   10.373   11.705
 integrate_v_rspace                  29  9.0    0.099    0.157   10.371   11.703
 grid_integrate_task_list            29 10.0    9.831   11.163    9.831   11.163
 mp_allgather_i                   90272  8.3    9.232    9.865    9.232    9.865
 qs_rho_update_rho_low               30  5.0    0.000    0.000    8.724    8.734
 calculate_rho_elec                  30  6.0    0.058    0.068    8.723    8.734
 grid_collocate_task_list            30  7.0    7.063    7.963    7.063    7.963
 mp_alltoall_d11v                327528  9.3    6.326    6.808    6.326    6.808
 kpoint_density_matrices             29  7.0    0.051    0.055    4.371    4.839
 parallel_gemm_fm                  3712  8.0    0.005    0.005    4.258    4.722
 parallel_gemm_fm_gemm             3712  9.0    0.005    0.005    4.253    4.717
 cp_fm_gemm                        3712 10.0    4.249    4.712    4.249    4.712
 dbcsr_finalize                  123384  8.5    0.574    0.641    4.230    4.503
 cp_cfm_gemm                       2895  7.9    4.006    4.051    4.006    4.051
 transfer_rs2pw                     122  8.0    0.002    0.002    1.447    3.932
 hybrid_alltoall_any              62308  8.4    0.273    0.293    3.571    3.907
 density_rs2pw                       30  7.0    0.001    0.002    1.597    3.887
 transfer_rs2pw_500                  32  8.9    0.151    0.162    1.349    3.840
 mp_sendrecv_dv                     854 10.0    1.258    3.732    1.258    3.732
 mp_cart_sub                      64042  8.9    2.817    2.831    2.817    2.831
 dbcsr_merge_all                  46868 10.2    1.183    1.399    2.378    2.605
 mp_alltoall_i11v                202912  9.0    2.274    2.602    2.274    2.602
 kpoint_set_mo_occupation            29  7.0    1.897    1.923    2.327    2.566
 cp_fm_finish_copy_general        18708  7.8    2.291    2.313    2.338    2.359
 write_kpoints_restart               29  5.0    0.007    0.009    2.187    2.187
 mp_cart_create                   32027  8.9    1.739    1.780    1.739    1.780
 mp_bcast_iv                     180698  8.3    1.122    1.267    1.122    1.267
 fft_wrap_pw1pw2                    527 10.0    0.006    0.007    1.231    1.253
 dbcsr_create_new                212541  8.1    0.916    0.965    1.106    1.167
 fft_wrap_pw1pw2_500                350 11.3    0.090    0.091    1.140    1.162
 dbcsr_copy                       65942  7.0    0.347    0.382    0.994    1.137
 dbcsr_work_create               109176  8.8    0.693    0.710    1.101    1.130
 cp_fm_write_unformatted           1732  6.0    0.491    0.986    0.652    1.125
 qs_energies_init_hamiltonians        1  3.0    0.000    0.000    1.072    1.072
 dbcsr_dot                        50229  8.0    0.492    0.529    0.975    1.047
 create_qs_kind_set                   1  2.0    0.000    0.000    1.011    1.011
 read_qs_kind                         1  3.0    0.617    0.623    1.011    1.011
 fft3d_ps                           527 12.0    0.440    0.452    0.982    1.011
 evaluate_core_matrix_traces         29  6.0    0.000    0.000    0.990    0.990
 calculate_ptrace_kp                 58  7.0    0.040    0.044    0.989    0.990
 cp_dbcsr_alloc_block_from_nbl     6238  5.1    0.683    0.796    0.815    0.946
 copy_dbcsr_to_fm_bc              32020  7.9    0.528    0.560    0.906    0.937
 qs_vxc_create                       29  8.0    0.000    0.001    0.868    0.870
 xc_vxc_pw_create                    29  9.0    0.034    0.036    0.867    0.870
 dbcsr_work_destroy_all          109176  9.8    0.520    0.525    0.858    0.866
 copy_fm_to_dbcsr_bc              14848  9.0    0.244    0.259    0.818    0.856
 build_core_hamiltonian_matrix        1  4.0    0.003    0.004    0.758    0.848
 dbcsr_iterator_start            372859  8.9    0.704    0.709    0.831    0.845
 tree_to_linear_d                 46868 11.2    0.750    0.766    0.750    0.766
 gspace_mixing                       28  5.0    0.030    0.032    0.746    0.746
 dbcsr_data_new                 1177422  9.7    0.714    0.743    0.714    0.743
 dbcsr_data_release             1674897 10.1    0.712    0.726    0.712    0.726
 self_consistency_check              29  5.0    0.038    0.040    0.634    0.699
 mp_sum_dm3                          29  8.0    0.430    0.677    0.430    0.677
 dbcsr_copy_into_existing         15714  9.8    0.465    0.573    0.558    0.667
 mp_sum_d                         50879  8.9    0.406    0.634    0.406    0.634
 broyden_mixing                      28  6.0    0.590    0.605    0.608    0.614
 cp_sm_mix                        25114  6.0    0.227    0.248    0.495    0.583
 mp_send_dv                        1732  7.0    0.144    0.576    0.144    0.576
 dbcsr_destroy                   162313  8.1    0.281    0.285    0.552    0.575
 xc_pw_derive                       174 11.0    0.001    0.001    0.557    0.565
 dbcsr_iterator_stop             372859  8.9    0.441    0.444    0.521    0.526
 mp_alltoall_z22v                   527 14.0    0.474    0.511    0.474    0.511
 parser_read_line                134949  4.0    0.045    0.048    0.484    0.493
 xc_rho_set_and_dset_create          29 10.0    0.023    0.026    0.459    0.472
 potential_pw2rs                     29 10.0    0.003    0.003    0.441    0.452
 parser_read_line_low               153  5.2    0.048    0.202    0.439    0.451
 init_scf_run                         1  3.0    0.000    0.000    0.377    0.449
 scf_env_initial_rho_setup            1  4.0    0.000    0.000    0.377    0.449
 broadcast_input_information        153  6.2    0.099    0.102    0.391    0.425
 mp_waitall_1                    187079  8.3    0.257    0.421    0.257    0.421
 dbcsr_set                       132697  7.7    0.135    0.138    0.389    0.420
 qs_env_update_s_mstruct              1  4.0    0.000    0.000    0.263    0.407
 quick_finalize                   62308  9.4    0.215    0.220    0.372    0.385
 mp_bcast_im                      90272  8.3    0.336    0.375    0.336    0.375
 xc_pw_divergence                    29 10.0    0.000    0.000    0.367    0.374
 mp_max_d                         25116  7.0    0.209    0.350    0.209    0.350
 build_core_ppnl                      1  5.0    0.304    0.345    0.304    0.345
 mp_isend_dv                      45728  8.2    0.291    0.328    0.291    0.328
 mp_comm_free                     96105  8.9    0.284    0.309    0.284    0.309
 x_to_yz                            290 13.2    0.039    0.043    0.290    0.306
 calculate_rho_core                   1  5.0    0.002    0.003    0.113    0.306
 transfer_pw2rs                     117 11.0    0.001    0.001    0.300    0.300
 dbcsr_reserve_blocks             21086  9.5    0.260    0.276    0.281    0.298
 dbcsr_zero                      132697  8.7    0.254    0.282    0.254    0.282
 dbcsr_data_copy_aa2              46868 11.2    0.230    0.271    0.230    0.271
 yz_to_x                            237 12.8    0.024    0.026    0.247    0.270
 mixing_allocate                      1  3.0    0.005    0.005    0.238    0.263
 cp_cfm_scale_and_add_fm           3860  6.9    0.225    0.229    0.225    0.229
 transfer_pw2rs_500                  30 11.9    0.119    0.124    0.221    0.225
 mp_bcast_i_src                     612  7.2    0.179    0.213    0.179    0.213
 mp_sum_dv                          324  3.3    0.109    0.207    0.109    0.207
 dbcsr_sort_indices              130262 10.7    0.187    0.201    0.187    0.201
 dbcsr_reserve_all_blocks         14848 10.0    0.028    0.030    0.179    0.186
 build_overlap_matrix_low             1  5.0    0.032    0.036    0.152    0.168
 build_kinetic_matrix_low             1  5.0    0.030    0.034    0.145    0.165
 xc_functional_eval                  29 11.0    0.000    0.000    0.152    0.163
 pbe_lda_eval                        29 12.0    0.152    0.163    0.152    0.163
 qs_env_rebuild_rho                   1  5.0    0.000    0.000    0.122    0.159
 qs_rho_rebuild                       1  6.0    0.003    0.003    0.122    0.159
 mp_recv_dv                        5196  7.0    0.017    0.139    0.017    0.139
 dbcsr_iterator_seek             372859  9.9    0.127    0.136    0.127    0.136
 dbcsr_make_index_exist          212541  9.1    0.122    0.130    0.122    0.130
 cp_cfm_to_fm                       965  6.9    0.114    0.117    0.114    0.117
 mp_bcast_am_src                    153  7.2    0.100    0.105    0.112    0.117
 merge_index                      46868 11.2    0.094    0.110    0.094    0.110
 calculate_first_density_matrix       1  5.0    0.001    0.001    0.033    0.104
 topology_control                     1  2.0    0.000    0.000    0.101    0.101
 calculate_atomic_block_dm            1  6.0    0.001    0.001    0.029    0.101
 mp_irecv_iv                     180544  8.3    0.012    0.096    0.012    0.096
 calculate_ecore_overlap              1  4.0    0.000    0.000    0.041    0.091
 read_cell_cif                        2  4.5    0.007    0.044    0.081    0.082
 pw_scatter_p                       290 12.2    0.080    0.082    0.080    0.082
 transfer_rs2pw_170                  30  9.0    0.029    0.031    0.072    0.078
 cp_fm_cleanup_copy_general       32144  7.0    0.051    0.051    0.075    0.076
 dbcsr_switch_data_area           62308 10.4    0.055    0.056    0.073    0.074
 mp_isendrecv_dv                    819 13.0    0.029    0.074    0.029    0.074
 cp_cfm_column_scale                965  7.9    0.073    0.074    0.073    0.074
 restraint_control                    1  2.0    0.000    0.000    0.036    0.072
 mp_sum_i                             4  2.8    0.036    0.072    0.036    0.072
 pw_poisson_solve                    29  8.0    0.000    0.000    0.071    0.072
 cp_cfm_zscale                      965  7.9    0.069    0.069    0.069    0.069
 mp_isend_iv                     101704  8.3    0.019    0.069    0.019    0.069
 transfer_pw2rs_170                  29 12.0    0.028    0.028    0.059    0.066
 qs_init_subsys                       1  2.0    0.002    0.002    0.064    0.065
 mp_sum_iv                           24  5.3    0.027    0.064    0.027    0.064
 qs_scf_ensure_work_matrices          1  3.0    0.000    0.000    0.026    0.064
 cp_fm_to_fm_matrix                1856  8.0    0.060    0.062    0.060    0.062
 qs_env_setup                         1  3.0    0.000    0.000    0.061    0.062
 fft_wrap_pw1pw2_170                 59 10.5    0.004    0.004    0.058    0.062
 qs_env_rebuild_pw_env                2  3.5    0.000    0.000    0.061    0.061
 pw_env_rebuild                       1  5.0    0.001    0.001    0.060    0.061
 cp_fm_create                       452  4.0    0.052    0.055    0.052    0.055
 scf_post_calculation_gpw             1  3.0    0.000    0.000    0.054    0.055
 write_available_results              1  4.0    0.000    0.000    0.054    0.054
 write_mo_free_results                1  5.0    0.002    0.002    0.054    0.054
 pw_grid_setup                        4  6.0    0.000    0.000    0.051    0.051
 pw_grid_setup_internal               4  7.0    0.001    0.002    0.051    0.051
 dbcsr_get_data_size_used        109176  9.8    0.048    0.050    0.048    0.050
 dbcsr_distribution_new           46870  8.6    0.046    0.048    0.046    0.048
 pw_integral_ab_c1d_c1d_gs           29  9.0    0.044    0.045    0.046    0.047
 mp_irecv_im2                     90272  8.3    0.006    0.045    0.006    0.045
 pw_gather_p                        237 11.8    0.040    0.041    0.040    0.041
 dbcsr_make_dbcsr_index          130262 10.7    0.038    0.039    0.038    0.039
 coordinate_control                   1  3.0    0.001    0.001    0.038    0.038
 coordinate_control_READ_COORDI       1  4.0    0.000    0.000    0.037    0.038
 read_coordinate_cif                  1  5.0    0.002    0.002    0.037    0.037
 kpoint_initialize_mos                2  2.5    0.001    0.001    0.035    0.037
 pw_grid_sort                         4  8.0    0.022    0.023    0.034    0.035
 qs_create_task_list                  1  5.0    0.000    0.000    0.029    0.033
 generate_qs_task_list                1  6.0    0.023    0.026    0.029    0.033
 mp_isend_im2                     50852  8.3    0.008    0.030    0.008    0.030
 mp_irecv_dv                      45728  8.2    0.028    0.030    0.028    0.030
 pw_copy                            435 10.5    0.027    0.029    0.027    0.029
 -------------------------------------------------------------------------------

 The number of warnings for this run is : 1
 
 -------------------------------------------------------------------------------
  **** **** ******  **  PROGRAM ENDED AT                 2025-08-03 17:57:34.585
 ***** ** ***  *** **   PROGRAM RAN ON                              i06r01c05s07
 **    ****   ******    PROGRAM RAN BY                                   di38fab
 ***** **    ** ** **   PROGRAM PROCESS ID                               3129527
  **** **  *******  **  PROGRAM STOPPED IN /hppfs/scratch/04/di38fab/09_GTH/Delt
                                           a_Set/Ga/DZVP-MOLOPT-PBE-GTH/8x8x8
