 DBCSR| CPU Multiplication driver                                           BLAS (U)
 DBCSR| Multrec recursion limit                                              512 (U)
 DBCSR| Multiplication stack size                                           1000 (D)
 DBCSR| Maximum elements for images                                    UNLIMITED (U)
 DBCSR| Multiplicative factor virtual images                                   1 (U)
 DBCSR| Use multiplication densification                                       T (D)
 DBCSR| Multiplication size stacks                                             3 (U)
 DBCSR| Use memory pool for CPU allocation                                     F (U)
 DBCSR| Number of 3D layers                                               SINGLE (U)
 DBCSR| Use MPI memory allocation                                              F (U)
 DBCSR| Use RMA algorithm                                                      F (U)
 DBCSR| Use Communication thread                                               T (U)
 DBCSR| Communication thread load                                             45 (D)
 DBCSR| MPI: My process id                                                     0
 DBCSR| MPI: Number of processes                                               8
 DBCSR| OMP: Current number of threads                                        12
 DBCSR| OMP: Max number of threads                                            12
 DBCSR| Split modifier for TAS multiplication algorithm                  1.0E+00 (U)


  **** **** ******  **  PROGRAM STARTED AT               2025-08-04 17:57:02.278
 ***** ** ***  *** **   PROGRAM STARTED ON                          i04r10c01s12
 **    ****   ******    PROGRAM STARTED BY                               di38fab
 ***** **    ** ** **   PROGRAM PROCESS ID                               3994157
  **** **  *******  **  PROGRAM STARTED IN /hppfs/scratch/04/di38fab/09_GTH/Delt
                                           a_Set/Ga/aug-SZV-MOLOPT-GTH-tier-1/12
                                           x12x12

 CP2K| version string:                 CP2K version 2025.1 (Development Version)
 CP2K| source code revision number:                                  git:3130539
 CP2K| cp2kflags: omp libint fftw3 libxc parallel scalapack max_contr=4         
 CP2K| is freely available from                            https://www.cp2k.org/
 CP2K| Program compiled at                         Tue Jun  3 16:14:32 CEST 2025
 CP2K| Program compiled on                                               login01
 CP2K| Program compiled for                                        Supermuc-foss
 CP2K| Data directory path                  /hppfs/work/pn36zo/di38fab/cp2k/data
 CP2K| Input file name                                                    GW.inp

 GLOBAL| Force Environment number                                              1
 GLOBAL| Basis set file name            /hppfs/scratch/04/di38fab/09_GTH/BASIS_A
 GLOBAL| Potential file name            /hppfs/work/pn36zo/di38fab/cp2k/data/GTH
 GLOBAL| MM Potential file name                                     MM_POTENTIAL
 GLOBAL| Coordinate file name                                             Ga.cif
 GLOBAL| Method name                                                        CP2K
 GLOBAL| Project name                                                       WSe2
 GLOBAL| Run type                                                         ENERGY
 GLOBAL| FFT library                                                       FFTW3
 GLOBAL| Diagonalization library                                       ScaLAPACK
 GLOBAL| Cholesky decomposition library                                ScaLAPACK
 GLOBAL| DGEMM library                                                      BLAS
 GLOBAL| Orthonormality check for eigenvectors                          DISABLED
 GLOBAL| Matrix multiplication library                                 ScaLAPACK
 GLOBAL| All-to-all communication in single precision                          F
 GLOBAL| FFTs using library dependent lengths                                  F
 GLOBAL| Grid backend                                                       AUTO
 GLOBAL| Global print level                                               MEDIUM
 GLOBAL| MPI I/O enabled                                                       T
 GLOBAL| Total number of message passing processes                             8
 GLOBAL| Number of threads for this process                                   12
 GLOBAL| This output is from process                                           0
 GLOBAL| OpenMP stack size per thread (OMP_STACKSIZE)                    default
 GLOBAL| CPU model name             Intel(R) Xeon(R) Platinum 8174 CPU @ 3.10GHz

 MEMORY| system memory details [Kb]
 MEMORY|                        rank 0           min           max       average
 MEMORY| MemTotal             98436664      98436664      98436664      98436664
 MEMORY| MemFree              84249928      84249928      84491856      84370892
 MEMORY| Buffers                     0             0             0             0
 MEMORY| Cached                2367308       2367308       2376640       2371974
 MEMORY| Slab                  1297684       1297684       1299572       1298628
 MEMORY| SReclaimable           275156        271704        275156        273430
 MEMORY| MemLikelyFree        86892392      86892392      87140200      87016296


 *** Fundamental physical constants (SI units) ***

 *** Literature: B. J. Mohr and B. N. Taylor,
 ***             CODATA recommended values of the fundamental physical
 ***             constants: 2006, Web Version 5.1
 ***             http://physics.nist.gov/constants

 Speed of light in vacuum [m/s]                             2.99792458000000E+08
 Magnetic constant or permeability of vacuum [N/A**2]       1.25663706143592E-06
 Electric constant or permittivity of vacuum [F/m]          8.85418781762039E-12
 Planck constant (h) [J*s]                                  6.62606896000000E-34
 Planck constant (h-bar) [J*s]                              1.05457162825177E-34
 Elementary charge [C]                                      1.60217648700000E-19
 Electron mass [kg]                                         9.10938215000000E-31
 Electron g factor [ ]                                     -2.00231930436220E+00
 Proton mass [kg]                                           1.67262163700000E-27
 Fine-structure constant                                    7.29735253760000E-03
 Rydberg constant [1/m]                                     1.09737315685270E+07
 Avogadro constant [1/mol]                                  6.02214179000000E+23
 Boltzmann constant [J/K]                                   1.38065040000000E-23
 Atomic mass unit [kg]                                      1.66053878200000E-27
 Bohr radius [m]                                            5.29177208590000E-11

 *** Conversion factors ***

 [u] -> [a.u.]                                              1.82288848426455E+03
 [Angstrom] -> [Bohr] = [a.u.]                              1.88972613288564E+00
 [a.u.] = [Bohr] -> [Angstrom]                              5.29177208590000E-01
 [a.u.] -> [s]                                              2.41888432650478E-17
 [a.u.] -> [fs]                                             2.41888432650478E-02
 [a.u.] -> [J]                                              4.35974393937059E-18
 [a.u.] -> [N]                                              8.23872205491840E-08
 [a.u.] -> [K]                                              3.15774647902944E+05
 [a.u.] -> [kJ/mol]                                         2.62549961709828E+03
 [a.u.] -> [kcal/mol]                                       6.27509468713739E+02
 [a.u.] -> [Pa]                                             2.94210107994716E+13
 [a.u.] -> [bar]                                            2.94210107994716E+08
 [a.u.] -> [atm]                                            2.90362800883016E+08
 [a.u.] -> [eV]                                             2.72113838565563E+01
 [a.u.] -> [Hz]                                             6.57968392072181E+15
 [a.u.] -> [1/cm] (wave numbers)                            2.19474631370540E+05
 [a.u./Bohr**2] -> [1/cm]                                   5.14048714338585E+03
 

 CELL_TOP| Volume [angstrom^3]:                                       162.871164
 CELL_TOP| Vector a [angstrom     4.567     0.000     0.000   |a| =     4.566890
 CELL_TOP| Vector b [angstrom     0.000     7.753     0.000   |b| =     7.753300
 CELL_TOP| Vector c [angstrom     0.000     0.000     4.600   |c| =     4.599780
 CELL_TOP| Angle (b,c), alpha [degree]:                                90.000000
 CELL_TOP| Angle (a,c), beta  [degree]:                                90.000000
 CELL_TOP| Angle (a,b), gamma [degree]:                                90.000000
 CELL_TOP| Numerically orthorhombic:                                         YES
 CELL_TOP| Periodicity                                                       XYZ

 CELL_CIF| Volume [angstrom^3]:                                       162.871164
 CELL_CIF| Vector a [angstrom     4.567     0.000     0.000   |a| =     4.566890
 CELL_CIF| Vector b [angstrom     0.000     7.753     0.000   |b| =     7.753300
 CELL_CIF| Vector c [angstrom     0.000     0.000     4.600   |c| =     4.599780
 CELL_CIF| Angle (b,c), alpha [degree]:                                90.000000
 CELL_CIF| Angle (a,c), beta  [degree]:                                90.000000
 CELL_CIF| Angle (a,b), gamma [degree]:                                90.000000
 CELL_CIF| Numerically orthorhombic:                                         YES
 CELL_CIF| Periodicity                                                       XYZ

 GENERATE|  Preliminary Number of Bonds generated:                             0
 GENERATE|  Achieved consistency in connectivity generation.

 CELL| Volume [angstrom^3]:                                           162.871164
 CELL| Vector a [angstrom]:       4.567     0.000     0.000   |a| =     4.566890
 CELL| Vector b [angstrom]:       0.000     7.753     0.000   |b| =     7.753300
 CELL| Vector c [angstrom]:       0.000     0.000     4.600   |c| =     4.599780
 CELL| Angle (b,c), alpha [degree]:                                    90.000000
 CELL| Angle (a,c), beta  [degree]:                                    90.000000
 CELL| Angle (a,b), gamma [degree]:                                    90.000000
 CELL| Numerically orthorhombic:                                             YES
 CELL| Periodicity                                                           XYZ

 CELL_REF| Volume [angstrom^3]:                                       162.871164
 CELL_REF| Vector a [angstrom     4.567     0.000     0.000   |a| =     4.566890
 CELL_REF| Vector b [angstrom     0.000     7.753     0.000   |b| =     7.753300
 CELL_REF| Vector c [angstrom     0.000     0.000     4.600   |c| =     4.599780
 CELL_REF| Angle (b,c), alpha [degree]:                                90.000000
 CELL_REF| Angle (a,c), beta  [degree]:                                90.000000
 CELL_REF| Angle (a,b), gamma [degree]:                                90.000000
 CELL_REF| Numerically orthorhombic:                                         YES
 CELL_REF| Periodicity                                                       XYZ

 *** WARNING in cryssym.F:180 :: Symmetry library SPGLIB not available ***


 *******************************************************************************
                                    Kpoints
 *******************************************************************************
 BRILLOUIN| K-point scheme                                        Monkhorst-Pack
 BRILLOUIN| K-Point grid                                            12   12   12
 BRILLOUIN| Accuracy in Symmetry determination                      0.100000E-05
 BRILLOUIN| K-Point point group symmetrization                               OFF
 BRILLOUIN| Wavefunction type                                            COMPLEX
 BRILLOUIN| List of Kpoints [2 Pi/Bohr]                                      864
 BRILLOUIN| Number           Weight            X              Y              Z
 BRILLOUIN|     1           0.00116       -0.45833       -0.45833       -0.45833
 BRILLOUIN|     2           0.00116       -0.45833       -0.45833       -0.37500
 BRILLOUIN|     3           0.00116       -0.45833       -0.45833       -0.29167
 BRILLOUIN|     4           0.00116       -0.45833       -0.45833       -0.20833
 BRILLOUIN|     5           0.00116       -0.45833       -0.45833       -0.12500
 BRILLOUIN|     6           0.00116       -0.45833       -0.45833       -0.04167
 BRILLOUIN|     7           0.00116       -0.45833       -0.45833        0.04167
 BRILLOUIN|     8           0.00116       -0.45833       -0.45833        0.12500
 BRILLOUIN|     9           0.00116       -0.45833       -0.45833        0.20833
 BRILLOUIN|    10           0.00116       -0.45833       -0.45833        0.29167
 BRILLOUIN|    11           0.00116       -0.45833       -0.45833        0.37500
 BRILLOUIN|    12           0.00116       -0.45833       -0.45833        0.45833
 BRILLOUIN|    13           0.00116       -0.45833       -0.37500       -0.45833
 BRILLOUIN|    14           0.00116       -0.45833       -0.37500       -0.37500
 BRILLOUIN|    15           0.00116       -0.45833       -0.37500       -0.29167
 BRILLOUIN|    16           0.00116       -0.45833       -0.37500       -0.20833
 BRILLOUIN|    17           0.00116       -0.45833       -0.37500       -0.12500
 BRILLOUIN|    18           0.00116       -0.45833       -0.37500       -0.04167
 BRILLOUIN|    19           0.00116       -0.45833       -0.37500        0.04167
 BRILLOUIN|    20           0.00116       -0.45833       -0.37500        0.12500
 BRILLOUIN|    21           0.00116       -0.45833       -0.37500        0.20833
 BRILLOUIN|    22           0.00116       -0.45833       -0.37500        0.29167
 BRILLOUIN|    23           0.00116       -0.45833       -0.37500        0.37500
 BRILLOUIN|    24           0.00116       -0.45833       -0.37500        0.45833
 BRILLOUIN|    25           0.00116       -0.45833       -0.29167       -0.45833
 BRILLOUIN|    26           0.00116       -0.45833       -0.29167       -0.37500
 BRILLOUIN|    27           0.00116       -0.45833       -0.29167       -0.29167
 BRILLOUIN|    28           0.00116       -0.45833       -0.29167       -0.20833
 BRILLOUIN|    29           0.00116       -0.45833       -0.29167       -0.12500
 BRILLOUIN|    30           0.00116       -0.45833       -0.29167       -0.04167
 BRILLOUIN|    31           0.00116       -0.45833       -0.29167        0.04167
 BRILLOUIN|    32           0.00116       -0.45833       -0.29167        0.12500
 BRILLOUIN|    33           0.00116       -0.45833       -0.29167        0.20833
 BRILLOUIN|    34           0.00116       -0.45833       -0.29167        0.29167
 BRILLOUIN|    35           0.00116       -0.45833       -0.29167        0.37500
 BRILLOUIN|    36           0.00116       -0.45833       -0.29167        0.45833
 BRILLOUIN|    37           0.00116       -0.45833       -0.20833       -0.45833
 BRILLOUIN|    38           0.00116       -0.45833       -0.20833       -0.37500
 BRILLOUIN|    39           0.00116       -0.45833       -0.20833       -0.29167
 BRILLOUIN|    40           0.00116       -0.45833       -0.20833       -0.20833
 BRILLOUIN|    41           0.00116       -0.45833       -0.20833       -0.12500
 BRILLOUIN|    42           0.00116       -0.45833       -0.20833       -0.04167
 BRILLOUIN|    43           0.00116       -0.45833       -0.20833        0.04167
 BRILLOUIN|    44           0.00116       -0.45833       -0.20833        0.12500
 BRILLOUIN|    45           0.00116       -0.45833       -0.20833        0.20833
 BRILLOUIN|    46           0.00116       -0.45833       -0.20833        0.29167
 BRILLOUIN|    47           0.00116       -0.45833       -0.20833        0.37500
 BRILLOUIN|    48           0.00116       -0.45833       -0.20833        0.45833
 BRILLOUIN|    49           0.00116       -0.45833       -0.12500       -0.45833
 BRILLOUIN|    50           0.00116       -0.45833       -0.12500       -0.37500
 BRILLOUIN|    51           0.00116       -0.45833       -0.12500       -0.29167
 BRILLOUIN|    52           0.00116       -0.45833       -0.12500       -0.20833
 BRILLOUIN|    53           0.00116       -0.45833       -0.12500       -0.12500
 BRILLOUIN|    54           0.00116       -0.45833       -0.12500       -0.04167
 BRILLOUIN|    55           0.00116       -0.45833       -0.12500        0.04167
 BRILLOUIN|    56           0.00116       -0.45833       -0.12500        0.12500
 BRILLOUIN|    57           0.00116       -0.45833       -0.12500        0.20833
 BRILLOUIN|    58           0.00116       -0.45833       -0.12500        0.29167
 BRILLOUIN|    59           0.00116       -0.45833       -0.12500        0.37500
 BRILLOUIN|    60           0.00116       -0.45833       -0.12500        0.45833
 BRILLOUIN|    61           0.00116       -0.45833       -0.04167       -0.45833
 BRILLOUIN|    62           0.00116       -0.45833       -0.04167       -0.37500
 BRILLOUIN|    63           0.00116       -0.45833       -0.04167       -0.29167
 BRILLOUIN|    64           0.00116       -0.45833       -0.04167       -0.20833
 BRILLOUIN|    65           0.00116       -0.45833       -0.04167       -0.12500
 BRILLOUIN|    66           0.00116       -0.45833       -0.04167       -0.04167
 BRILLOUIN|    67           0.00116       -0.45833       -0.04167        0.04167
 BRILLOUIN|    68           0.00116       -0.45833       -0.04167        0.12500
 BRILLOUIN|    69           0.00116       -0.45833       -0.04167        0.20833
 BRILLOUIN|    70           0.00116       -0.45833       -0.04167        0.29167
 BRILLOUIN|    71           0.00116       -0.45833       -0.04167        0.37500
 BRILLOUIN|    72           0.00116       -0.45833       -0.04167        0.45833
 BRILLOUIN|    73           0.00116       -0.45833        0.04167       -0.45833
 BRILLOUIN|    74           0.00116       -0.45833        0.04167       -0.37500
 BRILLOUIN|    75           0.00116       -0.45833        0.04167       -0.29167
 BRILLOUIN|    76           0.00116       -0.45833        0.04167       -0.20833
 BRILLOUIN|    77           0.00116       -0.45833        0.04167       -0.12500
 BRILLOUIN|    78           0.00116       -0.45833        0.04167       -0.04167
 BRILLOUIN|    79           0.00116       -0.45833        0.04167        0.04167
 BRILLOUIN|    80           0.00116       -0.45833        0.04167        0.12500
 BRILLOUIN|    81           0.00116       -0.45833        0.04167        0.20833
 BRILLOUIN|    82           0.00116       -0.45833        0.04167        0.29167
 BRILLOUIN|    83           0.00116       -0.45833        0.04167        0.37500
 BRILLOUIN|    84           0.00116       -0.45833        0.04167        0.45833
 BRILLOUIN|    85           0.00116       -0.45833        0.12500       -0.45833
 BRILLOUIN|    86           0.00116       -0.45833        0.12500       -0.37500
 BRILLOUIN|    87           0.00116       -0.45833        0.12500       -0.29167
 BRILLOUIN|    88           0.00116       -0.45833        0.12500       -0.20833
 BRILLOUIN|    89           0.00116       -0.45833        0.12500       -0.12500
 BRILLOUIN|    90           0.00116       -0.45833        0.12500       -0.04167
 BRILLOUIN|    91           0.00116       -0.45833        0.12500        0.04167
 BRILLOUIN|    92           0.00116       -0.45833        0.12500        0.12500
 BRILLOUIN|    93           0.00116       -0.45833        0.12500        0.20833
 BRILLOUIN|    94           0.00116       -0.45833        0.12500        0.29167
 BRILLOUIN|    95           0.00116       -0.45833        0.12500        0.37500
 BRILLOUIN|    96           0.00116       -0.45833        0.12500        0.45833
 BRILLOUIN|    97           0.00116       -0.45833        0.20833       -0.45833
 BRILLOUIN|    98           0.00116       -0.45833        0.20833       -0.37500
 BRILLOUIN|    99           0.00116       -0.45833        0.20833       -0.29167
 BRILLOUIN|   100           0.00116       -0.45833        0.20833       -0.20833
 BRILLOUIN|   101           0.00116       -0.45833        0.20833       -0.12500
 BRILLOUIN|   102           0.00116       -0.45833        0.20833       -0.04167
 BRILLOUIN|   103           0.00116       -0.45833        0.20833        0.04167
 BRILLOUIN|   104           0.00116       -0.45833        0.20833        0.12500
 BRILLOUIN|   105           0.00116       -0.45833        0.20833        0.20833
 BRILLOUIN|   106           0.00116       -0.45833        0.20833        0.29167
 BRILLOUIN|   107           0.00116       -0.45833        0.20833        0.37500
 BRILLOUIN|   108           0.00116       -0.45833        0.20833        0.45833
 BRILLOUIN|   109           0.00116       -0.45833        0.29167       -0.45833
 BRILLOUIN|   110           0.00116       -0.45833        0.29167       -0.37500
 BRILLOUIN|   111           0.00116       -0.45833        0.29167       -0.29167
 BRILLOUIN|   112           0.00116       -0.45833        0.29167       -0.20833
 BRILLOUIN|   113           0.00116       -0.45833        0.29167       -0.12500
 BRILLOUIN|   114           0.00116       -0.45833        0.29167       -0.04167
 BRILLOUIN|   115           0.00116       -0.45833        0.29167        0.04167
 BRILLOUIN|   116           0.00116       -0.45833        0.29167        0.12500
 BRILLOUIN|   117           0.00116       -0.45833        0.29167        0.20833
 BRILLOUIN|   118           0.00116       -0.45833        0.29167        0.29167
 BRILLOUIN|   119           0.00116       -0.45833        0.29167        0.37500
 BRILLOUIN|   120           0.00116       -0.45833        0.29167        0.45833
 BRILLOUIN|   121           0.00116       -0.45833        0.37500       -0.45833
 BRILLOUIN|   122           0.00116       -0.45833        0.37500       -0.37500
 BRILLOUIN|   123           0.00116       -0.45833        0.37500       -0.29167
 BRILLOUIN|   124           0.00116       -0.45833        0.37500       -0.20833
 BRILLOUIN|   125           0.00116       -0.45833        0.37500       -0.12500
 BRILLOUIN|   126           0.00116       -0.45833        0.37500       -0.04167
 BRILLOUIN|   127           0.00116       -0.45833        0.37500        0.04167
 BRILLOUIN|   128           0.00116       -0.45833        0.37500        0.12500
 BRILLOUIN|   129           0.00116       -0.45833        0.37500        0.20833
 BRILLOUIN|   130           0.00116       -0.45833        0.37500        0.29167
 BRILLOUIN|   131           0.00116       -0.45833        0.37500        0.37500
 BRILLOUIN|   132           0.00116       -0.45833        0.37500        0.45833
 BRILLOUIN|   133           0.00116       -0.45833        0.45833       -0.45833
 BRILLOUIN|   134           0.00116       -0.45833        0.45833       -0.37500
 BRILLOUIN|   135           0.00116       -0.45833        0.45833       -0.29167
 BRILLOUIN|   136           0.00116       -0.45833        0.45833       -0.20833
 BRILLOUIN|   137           0.00116       -0.45833        0.45833       -0.12500
 BRILLOUIN|   138           0.00116       -0.45833        0.45833       -0.04167
 BRILLOUIN|   139           0.00116       -0.45833        0.45833        0.04167
 BRILLOUIN|   140           0.00116       -0.45833        0.45833        0.12500
 BRILLOUIN|   141           0.00116       -0.45833        0.45833        0.20833
 BRILLOUIN|   142           0.00116       -0.45833        0.45833        0.29167
 BRILLOUIN|   143           0.00116       -0.45833        0.45833        0.37500
 BRILLOUIN|   144           0.00116       -0.45833        0.45833        0.45833
 BRILLOUIN|   145           0.00116       -0.37500       -0.45833       -0.45833
 BRILLOUIN|   146           0.00116       -0.37500       -0.45833       -0.37500
 BRILLOUIN|   147           0.00116       -0.37500       -0.45833       -0.29167
 BRILLOUIN|   148           0.00116       -0.37500       -0.45833       -0.20833
 BRILLOUIN|   149           0.00116       -0.37500       -0.45833       -0.12500
 BRILLOUIN|   150           0.00116       -0.37500       -0.45833       -0.04167
 BRILLOUIN|   151           0.00116       -0.37500       -0.45833        0.04167
 BRILLOUIN|   152           0.00116       -0.37500       -0.45833        0.12500
 BRILLOUIN|   153           0.00116       -0.37500       -0.45833        0.20833
 BRILLOUIN|   154           0.00116       -0.37500       -0.45833        0.29167
 BRILLOUIN|   155           0.00116       -0.37500       -0.45833        0.37500
 BRILLOUIN|   156           0.00116       -0.37500       -0.45833        0.45833
 BRILLOUIN|   157           0.00116       -0.37500       -0.37500       -0.45833
 BRILLOUIN|   158           0.00116       -0.37500       -0.37500       -0.37500
 BRILLOUIN|   159           0.00116       -0.37500       -0.37500       -0.29167
 BRILLOUIN|   160           0.00116       -0.37500       -0.37500       -0.20833
 BRILLOUIN|   161           0.00116       -0.37500       -0.37500       -0.12500
 BRILLOUIN|   162           0.00116       -0.37500       -0.37500       -0.04167
 BRILLOUIN|   163           0.00116       -0.37500       -0.37500        0.04167
 BRILLOUIN|   164           0.00116       -0.37500       -0.37500        0.12500
 BRILLOUIN|   165           0.00116       -0.37500       -0.37500        0.20833
 BRILLOUIN|   166           0.00116       -0.37500       -0.37500        0.29167
 BRILLOUIN|   167           0.00116       -0.37500       -0.37500        0.37500
 BRILLOUIN|   168           0.00116       -0.37500       -0.37500        0.45833
 BRILLOUIN|   169           0.00116       -0.37500       -0.29167       -0.45833
 BRILLOUIN|   170           0.00116       -0.37500       -0.29167       -0.37500
 BRILLOUIN|   171           0.00116       -0.37500       -0.29167       -0.29167
 BRILLOUIN|   172           0.00116       -0.37500       -0.29167       -0.20833
 BRILLOUIN|   173           0.00116       -0.37500       -0.29167       -0.12500
 BRILLOUIN|   174           0.00116       -0.37500       -0.29167       -0.04167
 BRILLOUIN|   175           0.00116       -0.37500       -0.29167        0.04167
 BRILLOUIN|   176           0.00116       -0.37500       -0.29167        0.12500
 BRILLOUIN|   177           0.00116       -0.37500       -0.29167        0.20833
 BRILLOUIN|   178           0.00116       -0.37500       -0.29167        0.29167
 BRILLOUIN|   179           0.00116       -0.37500       -0.29167        0.37500
 BRILLOUIN|   180           0.00116       -0.37500       -0.29167        0.45833
 BRILLOUIN|   181           0.00116       -0.37500       -0.20833       -0.45833
 BRILLOUIN|   182           0.00116       -0.37500       -0.20833       -0.37500
 BRILLOUIN|   183           0.00116       -0.37500       -0.20833       -0.29167
 BRILLOUIN|   184           0.00116       -0.37500       -0.20833       -0.20833
 BRILLOUIN|   185           0.00116       -0.37500       -0.20833       -0.12500
 BRILLOUIN|   186           0.00116       -0.37500       -0.20833       -0.04167
 BRILLOUIN|   187           0.00116       -0.37500       -0.20833        0.04167
 BRILLOUIN|   188           0.00116       -0.37500       -0.20833        0.12500
 BRILLOUIN|   189           0.00116       -0.37500       -0.20833        0.20833
 BRILLOUIN|   190           0.00116       -0.37500       -0.20833        0.29167
 BRILLOUIN|   191           0.00116       -0.37500       -0.20833        0.37500
 BRILLOUIN|   192           0.00116       -0.37500       -0.20833        0.45833
 BRILLOUIN|   193           0.00116       -0.37500       -0.12500       -0.45833
 BRILLOUIN|   194           0.00116       -0.37500       -0.12500       -0.37500
 BRILLOUIN|   195           0.00116       -0.37500       -0.12500       -0.29167
 BRILLOUIN|   196           0.00116       -0.37500       -0.12500       -0.20833
 BRILLOUIN|   197           0.00116       -0.37500       -0.12500       -0.12500
 BRILLOUIN|   198           0.00116       -0.37500       -0.12500       -0.04167
 BRILLOUIN|   199           0.00116       -0.37500       -0.12500        0.04167
 BRILLOUIN|   200           0.00116       -0.37500       -0.12500        0.12500
 BRILLOUIN|   201           0.00116       -0.37500       -0.12500        0.20833
 BRILLOUIN|   202           0.00116       -0.37500       -0.12500        0.29167
 BRILLOUIN|   203           0.00116       -0.37500       -0.12500        0.37500
 BRILLOUIN|   204           0.00116       -0.37500       -0.12500        0.45833
 BRILLOUIN|   205           0.00116       -0.37500       -0.04167       -0.45833
 BRILLOUIN|   206           0.00116       -0.37500       -0.04167       -0.37500
 BRILLOUIN|   207           0.00116       -0.37500       -0.04167       -0.29167
 BRILLOUIN|   208           0.00116       -0.37500       -0.04167       -0.20833
 BRILLOUIN|   209           0.00116       -0.37500       -0.04167       -0.12500
 BRILLOUIN|   210           0.00116       -0.37500       -0.04167       -0.04167
 BRILLOUIN|   211           0.00116       -0.37500       -0.04167        0.04167
 BRILLOUIN|   212           0.00116       -0.37500       -0.04167        0.12500
 BRILLOUIN|   213           0.00116       -0.37500       -0.04167        0.20833
 BRILLOUIN|   214           0.00116       -0.37500       -0.04167        0.29167
 BRILLOUIN|   215           0.00116       -0.37500       -0.04167        0.37500
 BRILLOUIN|   216           0.00116       -0.37500       -0.04167        0.45833
 BRILLOUIN|   217           0.00116       -0.37500        0.04167       -0.45833
 BRILLOUIN|   218           0.00116       -0.37500        0.04167       -0.37500
 BRILLOUIN|   219           0.00116       -0.37500        0.04167       -0.29167
 BRILLOUIN|   220           0.00116       -0.37500        0.04167       -0.20833
 BRILLOUIN|   221           0.00116       -0.37500        0.04167       -0.12500
 BRILLOUIN|   222           0.00116       -0.37500        0.04167       -0.04167
 BRILLOUIN|   223           0.00116       -0.37500        0.04167        0.04167
 BRILLOUIN|   224           0.00116       -0.37500        0.04167        0.12500
 BRILLOUIN|   225           0.00116       -0.37500        0.04167        0.20833
 BRILLOUIN|   226           0.00116       -0.37500        0.04167        0.29167
 BRILLOUIN|   227           0.00116       -0.37500        0.04167        0.37500
 BRILLOUIN|   228           0.00116       -0.37500        0.04167        0.45833
 BRILLOUIN|   229           0.00116       -0.37500        0.12500       -0.45833
 BRILLOUIN|   230           0.00116       -0.37500        0.12500       -0.37500
 BRILLOUIN|   231           0.00116       -0.37500        0.12500       -0.29167
 BRILLOUIN|   232           0.00116       -0.37500        0.12500       -0.20833
 BRILLOUIN|   233           0.00116       -0.37500        0.12500       -0.12500
 BRILLOUIN|   234           0.00116       -0.37500        0.12500       -0.04167
 BRILLOUIN|   235           0.00116       -0.37500        0.12500        0.04167
 BRILLOUIN|   236           0.00116       -0.37500        0.12500        0.12500
 BRILLOUIN|   237           0.00116       -0.37500        0.12500        0.20833
 BRILLOUIN|   238           0.00116       -0.37500        0.12500        0.29167
 BRILLOUIN|   239           0.00116       -0.37500        0.12500        0.37500
 BRILLOUIN|   240           0.00116       -0.37500        0.12500        0.45833
 BRILLOUIN|   241           0.00116       -0.37500        0.20833       -0.45833
 BRILLOUIN|   242           0.00116       -0.37500        0.20833       -0.37500
 BRILLOUIN|   243           0.00116       -0.37500        0.20833       -0.29167
 BRILLOUIN|   244           0.00116       -0.37500        0.20833       -0.20833
 BRILLOUIN|   245           0.00116       -0.37500        0.20833       -0.12500
 BRILLOUIN|   246           0.00116       -0.37500        0.20833       -0.04167
 BRILLOUIN|   247           0.00116       -0.37500        0.20833        0.04167
 BRILLOUIN|   248           0.00116       -0.37500        0.20833        0.12500
 BRILLOUIN|   249           0.00116       -0.37500        0.20833        0.20833
 BRILLOUIN|   250           0.00116       -0.37500        0.20833        0.29167
 BRILLOUIN|   251           0.00116       -0.37500        0.20833        0.37500
 BRILLOUIN|   252           0.00116       -0.37500        0.20833        0.45833
 BRILLOUIN|   253           0.00116       -0.37500        0.29167       -0.45833
 BRILLOUIN|   254           0.00116       -0.37500        0.29167       -0.37500
 BRILLOUIN|   255           0.00116       -0.37500        0.29167       -0.29167
 BRILLOUIN|   256           0.00116       -0.37500        0.29167       -0.20833
 BRILLOUIN|   257           0.00116       -0.37500        0.29167       -0.12500
 BRILLOUIN|   258           0.00116       -0.37500        0.29167       -0.04167
 BRILLOUIN|   259           0.00116       -0.37500        0.29167        0.04167
 BRILLOUIN|   260           0.00116       -0.37500        0.29167        0.12500
 BRILLOUIN|   261           0.00116       -0.37500        0.29167        0.20833
 BRILLOUIN|   262           0.00116       -0.37500        0.29167        0.29167
 BRILLOUIN|   263           0.00116       -0.37500        0.29167        0.37500
 BRILLOUIN|   264           0.00116       -0.37500        0.29167        0.45833
 BRILLOUIN|   265           0.00116       -0.37500        0.37500       -0.45833
 BRILLOUIN|   266           0.00116       -0.37500        0.37500       -0.37500
 BRILLOUIN|   267           0.00116       -0.37500        0.37500       -0.29167
 BRILLOUIN|   268           0.00116       -0.37500        0.37500       -0.20833
 BRILLOUIN|   269           0.00116       -0.37500        0.37500       -0.12500
 BRILLOUIN|   270           0.00116       -0.37500        0.37500       -0.04167
 BRILLOUIN|   271           0.00116       -0.37500        0.37500        0.04167
 BRILLOUIN|   272           0.00116       -0.37500        0.37500        0.12500
 BRILLOUIN|   273           0.00116       -0.37500        0.37500        0.20833
 BRILLOUIN|   274           0.00116       -0.37500        0.37500        0.29167
 BRILLOUIN|   275           0.00116       -0.37500        0.37500        0.37500
 BRILLOUIN|   276           0.00116       -0.37500        0.37500        0.45833
 BRILLOUIN|   277           0.00116       -0.37500        0.45833       -0.45833
 BRILLOUIN|   278           0.00116       -0.37500        0.45833       -0.37500
 BRILLOUIN|   279           0.00116       -0.37500        0.45833       -0.29167
 BRILLOUIN|   280           0.00116       -0.37500        0.45833       -0.20833
 BRILLOUIN|   281           0.00116       -0.37500        0.45833       -0.12500
 BRILLOUIN|   282           0.00116       -0.37500        0.45833       -0.04167
 BRILLOUIN|   283           0.00116       -0.37500        0.45833        0.04167
 BRILLOUIN|   284           0.00116       -0.37500        0.45833        0.12500
 BRILLOUIN|   285           0.00116       -0.37500        0.45833        0.20833
 BRILLOUIN|   286           0.00116       -0.37500        0.45833        0.29167
 BRILLOUIN|   287           0.00116       -0.37500        0.45833        0.37500
 BRILLOUIN|   288           0.00116       -0.37500        0.45833        0.45833
 BRILLOUIN|   289           0.00116       -0.29167       -0.45833       -0.45833
 BRILLOUIN|   290           0.00116       -0.29167       -0.45833       -0.37500
 BRILLOUIN|   291           0.00116       -0.29167       -0.45833       -0.29167
 BRILLOUIN|   292           0.00116       -0.29167       -0.45833       -0.20833
 BRILLOUIN|   293           0.00116       -0.29167       -0.45833       -0.12500
 BRILLOUIN|   294           0.00116       -0.29167       -0.45833       -0.04167
 BRILLOUIN|   295           0.00116       -0.29167       -0.45833        0.04167
 BRILLOUIN|   296           0.00116       -0.29167       -0.45833        0.12500
 BRILLOUIN|   297           0.00116       -0.29167       -0.45833        0.20833
 BRILLOUIN|   298           0.00116       -0.29167       -0.45833        0.29167
 BRILLOUIN|   299           0.00116       -0.29167       -0.45833        0.37500
 BRILLOUIN|   300           0.00116       -0.29167       -0.45833        0.45833
 BRILLOUIN|   301           0.00116       -0.29167       -0.37500       -0.45833
 BRILLOUIN|   302           0.00116       -0.29167       -0.37500       -0.37500
 BRILLOUIN|   303           0.00116       -0.29167       -0.37500       -0.29167
 BRILLOUIN|   304           0.00116       -0.29167       -0.37500       -0.20833
 BRILLOUIN|   305           0.00116       -0.29167       -0.37500       -0.12500
 BRILLOUIN|   306           0.00116       -0.29167       -0.37500       -0.04167
 BRILLOUIN|   307           0.00116       -0.29167       -0.37500        0.04167
 BRILLOUIN|   308           0.00116       -0.29167       -0.37500        0.12500
 BRILLOUIN|   309           0.00116       -0.29167       -0.37500        0.20833
 BRILLOUIN|   310           0.00116       -0.29167       -0.37500        0.29167
 BRILLOUIN|   311           0.00116       -0.29167       -0.37500        0.37500
 BRILLOUIN|   312           0.00116       -0.29167       -0.37500        0.45833
 BRILLOUIN|   313           0.00116       -0.29167       -0.29167       -0.45833
 BRILLOUIN|   314           0.00116       -0.29167       -0.29167       -0.37500
 BRILLOUIN|   315           0.00116       -0.29167       -0.29167       -0.29167
 BRILLOUIN|   316           0.00116       -0.29167       -0.29167       -0.20833
 BRILLOUIN|   317           0.00116       -0.29167       -0.29167       -0.12500
 BRILLOUIN|   318           0.00116       -0.29167       -0.29167       -0.04167
 BRILLOUIN|   319           0.00116       -0.29167       -0.29167        0.04167
 BRILLOUIN|   320           0.00116       -0.29167       -0.29167        0.12500
 BRILLOUIN|   321           0.00116       -0.29167       -0.29167        0.20833
 BRILLOUIN|   322           0.00116       -0.29167       -0.29167        0.29167
 BRILLOUIN|   323           0.00116       -0.29167       -0.29167        0.37500
 BRILLOUIN|   324           0.00116       -0.29167       -0.29167        0.45833
 BRILLOUIN|   325           0.00116       -0.29167       -0.20833       -0.45833
 BRILLOUIN|   326           0.00116       -0.29167       -0.20833       -0.37500
 BRILLOUIN|   327           0.00116       -0.29167       -0.20833       -0.29167
 BRILLOUIN|   328           0.00116       -0.29167       -0.20833       -0.20833
 BRILLOUIN|   329           0.00116       -0.29167       -0.20833       -0.12500
 BRILLOUIN|   330           0.00116       -0.29167       -0.20833       -0.04167
 BRILLOUIN|   331           0.00116       -0.29167       -0.20833        0.04167
 BRILLOUIN|   332           0.00116       -0.29167       -0.20833        0.12500
 BRILLOUIN|   333           0.00116       -0.29167       -0.20833        0.20833
 BRILLOUIN|   334           0.00116       -0.29167       -0.20833        0.29167
 BRILLOUIN|   335           0.00116       -0.29167       -0.20833        0.37500
 BRILLOUIN|   336           0.00116       -0.29167       -0.20833        0.45833
 BRILLOUIN|   337           0.00116       -0.29167       -0.12500       -0.45833
 BRILLOUIN|   338           0.00116       -0.29167       -0.12500       -0.37500
 BRILLOUIN|   339           0.00116       -0.29167       -0.12500       -0.29167
 BRILLOUIN|   340           0.00116       -0.29167       -0.12500       -0.20833
 BRILLOUIN|   341           0.00116       -0.29167       -0.12500       -0.12500
 BRILLOUIN|   342           0.00116       -0.29167       -0.12500       -0.04167
 BRILLOUIN|   343           0.00116       -0.29167       -0.12500        0.04167
 BRILLOUIN|   344           0.00116       -0.29167       -0.12500        0.12500
 BRILLOUIN|   345           0.00116       -0.29167       -0.12500        0.20833
 BRILLOUIN|   346           0.00116       -0.29167       -0.12500        0.29167
 BRILLOUIN|   347           0.00116       -0.29167       -0.12500        0.37500
 BRILLOUIN|   348           0.00116       -0.29167       -0.12500        0.45833
 BRILLOUIN|   349           0.00116       -0.29167       -0.04167       -0.45833
 BRILLOUIN|   350           0.00116       -0.29167       -0.04167       -0.37500
 BRILLOUIN|   351           0.00116       -0.29167       -0.04167       -0.29167
 BRILLOUIN|   352           0.00116       -0.29167       -0.04167       -0.20833
 BRILLOUIN|   353           0.00116       -0.29167       -0.04167       -0.12500
 BRILLOUIN|   354           0.00116       -0.29167       -0.04167       -0.04167
 BRILLOUIN|   355           0.00116       -0.29167       -0.04167        0.04167
 BRILLOUIN|   356           0.00116       -0.29167       -0.04167        0.12500
 BRILLOUIN|   357           0.00116       -0.29167       -0.04167        0.20833
 BRILLOUIN|   358           0.00116       -0.29167       -0.04167        0.29167
 BRILLOUIN|   359           0.00116       -0.29167       -0.04167        0.37500
 BRILLOUIN|   360           0.00116       -0.29167       -0.04167        0.45833
 BRILLOUIN|   361           0.00116       -0.29167        0.04167       -0.45833
 BRILLOUIN|   362           0.00116       -0.29167        0.04167       -0.37500
 BRILLOUIN|   363           0.00116       -0.29167        0.04167       -0.29167
 BRILLOUIN|   364           0.00116       -0.29167        0.04167       -0.20833
 BRILLOUIN|   365           0.00116       -0.29167        0.04167       -0.12500
 BRILLOUIN|   366           0.00116       -0.29167        0.04167       -0.04167
 BRILLOUIN|   367           0.00116       -0.29167        0.04167        0.04167
 BRILLOUIN|   368           0.00116       -0.29167        0.04167        0.12500
 BRILLOUIN|   369           0.00116       -0.29167        0.04167        0.20833
 BRILLOUIN|   370           0.00116       -0.29167        0.04167        0.29167
 BRILLOUIN|   371           0.00116       -0.29167        0.04167        0.37500
 BRILLOUIN|   372           0.00116       -0.29167        0.04167        0.45833
 BRILLOUIN|   373           0.00116       -0.29167        0.12500       -0.45833
 BRILLOUIN|   374           0.00116       -0.29167        0.12500       -0.37500
 BRILLOUIN|   375           0.00116       -0.29167        0.12500       -0.29167
 BRILLOUIN|   376           0.00116       -0.29167        0.12500       -0.20833
 BRILLOUIN|   377           0.00116       -0.29167        0.12500       -0.12500
 BRILLOUIN|   378           0.00116       -0.29167        0.12500       -0.04167
 BRILLOUIN|   379           0.00116       -0.29167        0.12500        0.04167
 BRILLOUIN|   380           0.00116       -0.29167        0.12500        0.12500
 BRILLOUIN|   381           0.00116       -0.29167        0.12500        0.20833
 BRILLOUIN|   382           0.00116       -0.29167        0.12500        0.29167
 BRILLOUIN|   383           0.00116       -0.29167        0.12500        0.37500
 BRILLOUIN|   384           0.00116       -0.29167        0.12500        0.45833
 BRILLOUIN|   385           0.00116       -0.29167        0.20833       -0.45833
 BRILLOUIN|   386           0.00116       -0.29167        0.20833       -0.37500
 BRILLOUIN|   387           0.00116       -0.29167        0.20833       -0.29167
 BRILLOUIN|   388           0.00116       -0.29167        0.20833       -0.20833
 BRILLOUIN|   389           0.00116       -0.29167        0.20833       -0.12500
 BRILLOUIN|   390           0.00116       -0.29167        0.20833       -0.04167
 BRILLOUIN|   391           0.00116       -0.29167        0.20833        0.04167
 BRILLOUIN|   392           0.00116       -0.29167        0.20833        0.12500
 BRILLOUIN|   393           0.00116       -0.29167        0.20833        0.20833
 BRILLOUIN|   394           0.00116       -0.29167        0.20833        0.29167
 BRILLOUIN|   395           0.00116       -0.29167        0.20833        0.37500
 BRILLOUIN|   396           0.00116       -0.29167        0.20833        0.45833
 BRILLOUIN|   397           0.00116       -0.29167        0.29167       -0.45833
 BRILLOUIN|   398           0.00116       -0.29167        0.29167       -0.37500
 BRILLOUIN|   399           0.00116       -0.29167        0.29167       -0.29167
 BRILLOUIN|   400           0.00116       -0.29167        0.29167       -0.20833
 BRILLOUIN|   401           0.00116       -0.29167        0.29167       -0.12500
 BRILLOUIN|   402           0.00116       -0.29167        0.29167       -0.04167
 BRILLOUIN|   403           0.00116       -0.29167        0.29167        0.04167
 BRILLOUIN|   404           0.00116       -0.29167        0.29167        0.12500
 BRILLOUIN|   405           0.00116       -0.29167        0.29167        0.20833
 BRILLOUIN|   406           0.00116       -0.29167        0.29167        0.29167
 BRILLOUIN|   407           0.00116       -0.29167        0.29167        0.37500
 BRILLOUIN|   408           0.00116       -0.29167        0.29167        0.45833
 BRILLOUIN|   409           0.00116       -0.29167        0.37500       -0.45833
 BRILLOUIN|   410           0.00116       -0.29167        0.37500       -0.37500
 BRILLOUIN|   411           0.00116       -0.29167        0.37500       -0.29167
 BRILLOUIN|   412           0.00116       -0.29167        0.37500       -0.20833
 BRILLOUIN|   413           0.00116       -0.29167        0.37500       -0.12500
 BRILLOUIN|   414           0.00116       -0.29167        0.37500       -0.04167
 BRILLOUIN|   415           0.00116       -0.29167        0.37500        0.04167
 BRILLOUIN|   416           0.00116       -0.29167        0.37500        0.12500
 BRILLOUIN|   417           0.00116       -0.29167        0.37500        0.20833
 BRILLOUIN|   418           0.00116       -0.29167        0.37500        0.29167
 BRILLOUIN|   419           0.00116       -0.29167        0.37500        0.37500
 BRILLOUIN|   420           0.00116       -0.29167        0.37500        0.45833
 BRILLOUIN|   421           0.00116       -0.29167        0.45833       -0.45833
 BRILLOUIN|   422           0.00116       -0.29167        0.45833       -0.37500
 BRILLOUIN|   423           0.00116       -0.29167        0.45833       -0.29167
 BRILLOUIN|   424           0.00116       -0.29167        0.45833       -0.20833
 BRILLOUIN|   425           0.00116       -0.29167        0.45833       -0.12500
 BRILLOUIN|   426           0.00116       -0.29167        0.45833       -0.04167
 BRILLOUIN|   427           0.00116       -0.29167        0.45833        0.04167
 BRILLOUIN|   428           0.00116       -0.29167        0.45833        0.12500
 BRILLOUIN|   429           0.00116       -0.29167        0.45833        0.20833
 BRILLOUIN|   430           0.00116       -0.29167        0.45833        0.29167
 BRILLOUIN|   431           0.00116       -0.29167        0.45833        0.37500
 BRILLOUIN|   432           0.00116       -0.29167        0.45833        0.45833
 BRILLOUIN|   433           0.00116       -0.20833       -0.45833       -0.45833
 BRILLOUIN|   434           0.00116       -0.20833       -0.45833       -0.37500
 BRILLOUIN|   435           0.00116       -0.20833       -0.45833       -0.29167
 BRILLOUIN|   436           0.00116       -0.20833       -0.45833       -0.20833
 BRILLOUIN|   437           0.00116       -0.20833       -0.45833       -0.12500
 BRILLOUIN|   438           0.00116       -0.20833       -0.45833       -0.04167
 BRILLOUIN|   439           0.00116       -0.20833       -0.45833        0.04167
 BRILLOUIN|   440           0.00116       -0.20833       -0.45833        0.12500
 BRILLOUIN|   441           0.00116       -0.20833       -0.45833        0.20833
 BRILLOUIN|   442           0.00116       -0.20833       -0.45833        0.29167
 BRILLOUIN|   443           0.00116       -0.20833       -0.45833        0.37500
 BRILLOUIN|   444           0.00116       -0.20833       -0.45833        0.45833
 BRILLOUIN|   445           0.00116       -0.20833       -0.37500       -0.45833
 BRILLOUIN|   446           0.00116       -0.20833       -0.37500       -0.37500
 BRILLOUIN|   447           0.00116       -0.20833       -0.37500       -0.29167
 BRILLOUIN|   448           0.00116       -0.20833       -0.37500       -0.20833
 BRILLOUIN|   449           0.00116       -0.20833       -0.37500       -0.12500
 BRILLOUIN|   450           0.00116       -0.20833       -0.37500       -0.04167
 BRILLOUIN|   451           0.00116       -0.20833       -0.37500        0.04167
 BRILLOUIN|   452           0.00116       -0.20833       -0.37500        0.12500
 BRILLOUIN|   453           0.00116       -0.20833       -0.37500        0.20833
 BRILLOUIN|   454           0.00116       -0.20833       -0.37500        0.29167
 BRILLOUIN|   455           0.00116       -0.20833       -0.37500        0.37500
 BRILLOUIN|   456           0.00116       -0.20833       -0.37500        0.45833
 BRILLOUIN|   457           0.00116       -0.20833       -0.29167       -0.45833
 BRILLOUIN|   458           0.00116       -0.20833       -0.29167       -0.37500
 BRILLOUIN|   459           0.00116       -0.20833       -0.29167       -0.29167
 BRILLOUIN|   460           0.00116       -0.20833       -0.29167       -0.20833
 BRILLOUIN|   461           0.00116       -0.20833       -0.29167       -0.12500
 BRILLOUIN|   462           0.00116       -0.20833       -0.29167       -0.04167
 BRILLOUIN|   463           0.00116       -0.20833       -0.29167        0.04167
 BRILLOUIN|   464           0.00116       -0.20833       -0.29167        0.12500
 BRILLOUIN|   465           0.00116       -0.20833       -0.29167        0.20833
 BRILLOUIN|   466           0.00116       -0.20833       -0.29167        0.29167
 BRILLOUIN|   467           0.00116       -0.20833       -0.29167        0.37500
 BRILLOUIN|   468           0.00116       -0.20833       -0.29167        0.45833
 BRILLOUIN|   469           0.00116       -0.20833       -0.20833       -0.45833
 BRILLOUIN|   470           0.00116       -0.20833       -0.20833       -0.37500
 BRILLOUIN|   471           0.00116       -0.20833       -0.20833       -0.29167
 BRILLOUIN|   472           0.00116       -0.20833       -0.20833       -0.20833
 BRILLOUIN|   473           0.00116       -0.20833       -0.20833       -0.12500
 BRILLOUIN|   474           0.00116       -0.20833       -0.20833       -0.04167
 BRILLOUIN|   475           0.00116       -0.20833       -0.20833        0.04167
 BRILLOUIN|   476           0.00116       -0.20833       -0.20833        0.12500
 BRILLOUIN|   477           0.00116       -0.20833       -0.20833        0.20833
 BRILLOUIN|   478           0.00116       -0.20833       -0.20833        0.29167
 BRILLOUIN|   479           0.00116       -0.20833       -0.20833        0.37500
 BRILLOUIN|   480           0.00116       -0.20833       -0.20833        0.45833
 BRILLOUIN|   481           0.00116       -0.20833       -0.12500       -0.45833
 BRILLOUIN|   482           0.00116       -0.20833       -0.12500       -0.37500
 BRILLOUIN|   483           0.00116       -0.20833       -0.12500       -0.29167
 BRILLOUIN|   484           0.00116       -0.20833       -0.12500       -0.20833
 BRILLOUIN|   485           0.00116       -0.20833       -0.12500       -0.12500
 BRILLOUIN|   486           0.00116       -0.20833       -0.12500       -0.04167
 BRILLOUIN|   487           0.00116       -0.20833       -0.12500        0.04167
 BRILLOUIN|   488           0.00116       -0.20833       -0.12500        0.12500
 BRILLOUIN|   489           0.00116       -0.20833       -0.12500        0.20833
 BRILLOUIN|   490           0.00116       -0.20833       -0.12500        0.29167
 BRILLOUIN|   491           0.00116       -0.20833       -0.12500        0.37500
 BRILLOUIN|   492           0.00116       -0.20833       -0.12500        0.45833
 BRILLOUIN|   493           0.00116       -0.20833       -0.04167       -0.45833
 BRILLOUIN|   494           0.00116       -0.20833       -0.04167       -0.37500
 BRILLOUIN|   495           0.00116       -0.20833       -0.04167       -0.29167
 BRILLOUIN|   496           0.00116       -0.20833       -0.04167       -0.20833
 BRILLOUIN|   497           0.00116       -0.20833       -0.04167       -0.12500
 BRILLOUIN|   498           0.00116       -0.20833       -0.04167       -0.04167
 BRILLOUIN|   499           0.00116       -0.20833       -0.04167        0.04167
 BRILLOUIN|   500           0.00116       -0.20833       -0.04167        0.12500
 BRILLOUIN|   501           0.00116       -0.20833       -0.04167        0.20833
 BRILLOUIN|   502           0.00116       -0.20833       -0.04167        0.29167
 BRILLOUIN|   503           0.00116       -0.20833       -0.04167        0.37500
 BRILLOUIN|   504           0.00116       -0.20833       -0.04167        0.45833
 BRILLOUIN|   505           0.00116       -0.20833        0.04167       -0.45833
 BRILLOUIN|   506           0.00116       -0.20833        0.04167       -0.37500
 BRILLOUIN|   507           0.00116       -0.20833        0.04167       -0.29167
 BRILLOUIN|   508           0.00116       -0.20833        0.04167       -0.20833
 BRILLOUIN|   509           0.00116       -0.20833        0.04167       -0.12500
 BRILLOUIN|   510           0.00116       -0.20833        0.04167       -0.04167
 BRILLOUIN|   511           0.00116       -0.20833        0.04167        0.04167
 BRILLOUIN|   512           0.00116       -0.20833        0.04167        0.12500
 BRILLOUIN|   513           0.00116       -0.20833        0.04167        0.20833
 BRILLOUIN|   514           0.00116       -0.20833        0.04167        0.29167
 BRILLOUIN|   515           0.00116       -0.20833        0.04167        0.37500
 BRILLOUIN|   516           0.00116       -0.20833        0.04167        0.45833
 BRILLOUIN|   517           0.00116       -0.20833        0.12500       -0.45833
 BRILLOUIN|   518           0.00116       -0.20833        0.12500       -0.37500
 BRILLOUIN|   519           0.00116       -0.20833        0.12500       -0.29167
 BRILLOUIN|   520           0.00116       -0.20833        0.12500       -0.20833
 BRILLOUIN|   521           0.00116       -0.20833        0.12500       -0.12500
 BRILLOUIN|   522           0.00116       -0.20833        0.12500       -0.04167
 BRILLOUIN|   523           0.00116       -0.20833        0.12500        0.04167
 BRILLOUIN|   524           0.00116       -0.20833        0.12500        0.12500
 BRILLOUIN|   525           0.00116       -0.20833        0.12500        0.20833
 BRILLOUIN|   526           0.00116       -0.20833        0.12500        0.29167
 BRILLOUIN|   527           0.00116       -0.20833        0.12500        0.37500
 BRILLOUIN|   528           0.00116       -0.20833        0.12500        0.45833
 BRILLOUIN|   529           0.00116       -0.20833        0.20833       -0.45833
 BRILLOUIN|   530           0.00116       -0.20833        0.20833       -0.37500
 BRILLOUIN|   531           0.00116       -0.20833        0.20833       -0.29167
 BRILLOUIN|   532           0.00116       -0.20833        0.20833       -0.20833
 BRILLOUIN|   533           0.00116       -0.20833        0.20833       -0.12500
 BRILLOUIN|   534           0.00116       -0.20833        0.20833       -0.04167
 BRILLOUIN|   535           0.00116       -0.20833        0.20833        0.04167
 BRILLOUIN|   536           0.00116       -0.20833        0.20833        0.12500
 BRILLOUIN|   537           0.00116       -0.20833        0.20833        0.20833
 BRILLOUIN|   538           0.00116       -0.20833        0.20833        0.29167
 BRILLOUIN|   539           0.00116       -0.20833        0.20833        0.37500
 BRILLOUIN|   540           0.00116       -0.20833        0.20833        0.45833
 BRILLOUIN|   541           0.00116       -0.20833        0.29167       -0.45833
 BRILLOUIN|   542           0.00116       -0.20833        0.29167       -0.37500
 BRILLOUIN|   543           0.00116       -0.20833        0.29167       -0.29167
 BRILLOUIN|   544           0.00116       -0.20833        0.29167       -0.20833
 BRILLOUIN|   545           0.00116       -0.20833        0.29167       -0.12500
 BRILLOUIN|   546           0.00116       -0.20833        0.29167       -0.04167
 BRILLOUIN|   547           0.00116       -0.20833        0.29167        0.04167
 BRILLOUIN|   548           0.00116       -0.20833        0.29167        0.12500
 BRILLOUIN|   549           0.00116       -0.20833        0.29167        0.20833
 BRILLOUIN|   550           0.00116       -0.20833        0.29167        0.29167
 BRILLOUIN|   551           0.00116       -0.20833        0.29167        0.37500
 BRILLOUIN|   552           0.00116       -0.20833        0.29167        0.45833
 BRILLOUIN|   553           0.00116       -0.20833        0.37500       -0.45833
 BRILLOUIN|   554           0.00116       -0.20833        0.37500       -0.37500
 BRILLOUIN|   555           0.00116       -0.20833        0.37500       -0.29167
 BRILLOUIN|   556           0.00116       -0.20833        0.37500       -0.20833
 BRILLOUIN|   557           0.00116       -0.20833        0.37500       -0.12500
 BRILLOUIN|   558           0.00116       -0.20833        0.37500       -0.04167
 BRILLOUIN|   559           0.00116       -0.20833        0.37500        0.04167
 BRILLOUIN|   560           0.00116       -0.20833        0.37500        0.12500
 BRILLOUIN|   561           0.00116       -0.20833        0.37500        0.20833
 BRILLOUIN|   562           0.00116       -0.20833        0.37500        0.29167
 BRILLOUIN|   563           0.00116       -0.20833        0.37500        0.37500
 BRILLOUIN|   564           0.00116       -0.20833        0.37500        0.45833
 BRILLOUIN|   565           0.00116       -0.20833        0.45833       -0.45833
 BRILLOUIN|   566           0.00116       -0.20833        0.45833       -0.37500
 BRILLOUIN|   567           0.00116       -0.20833        0.45833       -0.29167
 BRILLOUIN|   568           0.00116       -0.20833        0.45833       -0.20833
 BRILLOUIN|   569           0.00116       -0.20833        0.45833       -0.12500
 BRILLOUIN|   570           0.00116       -0.20833        0.45833       -0.04167
 BRILLOUIN|   571           0.00116       -0.20833        0.45833        0.04167
 BRILLOUIN|   572           0.00116       -0.20833        0.45833        0.12500
 BRILLOUIN|   573           0.00116       -0.20833        0.45833        0.20833
 BRILLOUIN|   574           0.00116       -0.20833        0.45833        0.29167
 BRILLOUIN|   575           0.00116       -0.20833        0.45833        0.37500
 BRILLOUIN|   576           0.00116       -0.20833        0.45833        0.45833
 BRILLOUIN|   577           0.00116       -0.12500       -0.45833       -0.45833
 BRILLOUIN|   578           0.00116       -0.12500       -0.45833       -0.37500
 BRILLOUIN|   579           0.00116       -0.12500       -0.45833       -0.29167
 BRILLOUIN|   580           0.00116       -0.12500       -0.45833       -0.20833
 BRILLOUIN|   581           0.00116       -0.12500       -0.45833       -0.12500
 BRILLOUIN|   582           0.00116       -0.12500       -0.45833       -0.04167
 BRILLOUIN|   583           0.00116       -0.12500       -0.45833        0.04167
 BRILLOUIN|   584           0.00116       -0.12500       -0.45833        0.12500
 BRILLOUIN|   585           0.00116       -0.12500       -0.45833        0.20833
 BRILLOUIN|   586           0.00116       -0.12500       -0.45833        0.29167
 BRILLOUIN|   587           0.00116       -0.12500       -0.45833        0.37500
 BRILLOUIN|   588           0.00116       -0.12500       -0.45833        0.45833
 BRILLOUIN|   589           0.00116       -0.12500       -0.37500       -0.45833
 BRILLOUIN|   590           0.00116       -0.12500       -0.37500       -0.37500
 BRILLOUIN|   591           0.00116       -0.12500       -0.37500       -0.29167
 BRILLOUIN|   592           0.00116       -0.12500       -0.37500       -0.20833
 BRILLOUIN|   593           0.00116       -0.12500       -0.37500       -0.12500
 BRILLOUIN|   594           0.00116       -0.12500       -0.37500       -0.04167
 BRILLOUIN|   595           0.00116       -0.12500       -0.37500        0.04167
 BRILLOUIN|   596           0.00116       -0.12500       -0.37500        0.12500
 BRILLOUIN|   597           0.00116       -0.12500       -0.37500        0.20833
 BRILLOUIN|   598           0.00116       -0.12500       -0.37500        0.29167
 BRILLOUIN|   599           0.00116       -0.12500       -0.37500        0.37500
 BRILLOUIN|   600           0.00116       -0.12500       -0.37500        0.45833
 BRILLOUIN|   601           0.00116       -0.12500       -0.29167       -0.45833
 BRILLOUIN|   602           0.00116       -0.12500       -0.29167       -0.37500
 BRILLOUIN|   603           0.00116       -0.12500       -0.29167       -0.29167
 BRILLOUIN|   604           0.00116       -0.12500       -0.29167       -0.20833
 BRILLOUIN|   605           0.00116       -0.12500       -0.29167       -0.12500
 BRILLOUIN|   606           0.00116       -0.12500       -0.29167       -0.04167
 BRILLOUIN|   607           0.00116       -0.12500       -0.29167        0.04167
 BRILLOUIN|   608           0.00116       -0.12500       -0.29167        0.12500
 BRILLOUIN|   609           0.00116       -0.12500       -0.29167        0.20833
 BRILLOUIN|   610           0.00116       -0.12500       -0.29167        0.29167
 BRILLOUIN|   611           0.00116       -0.12500       -0.29167        0.37500
 BRILLOUIN|   612           0.00116       -0.12500       -0.29167        0.45833
 BRILLOUIN|   613           0.00116       -0.12500       -0.20833       -0.45833
 BRILLOUIN|   614           0.00116       -0.12500       -0.20833       -0.37500
 BRILLOUIN|   615           0.00116       -0.12500       -0.20833       -0.29167
 BRILLOUIN|   616           0.00116       -0.12500       -0.20833       -0.20833
 BRILLOUIN|   617           0.00116       -0.12500       -0.20833       -0.12500
 BRILLOUIN|   618           0.00116       -0.12500       -0.20833       -0.04167
 BRILLOUIN|   619           0.00116       -0.12500       -0.20833        0.04167
 BRILLOUIN|   620           0.00116       -0.12500       -0.20833        0.12500
 BRILLOUIN|   621           0.00116       -0.12500       -0.20833        0.20833
 BRILLOUIN|   622           0.00116       -0.12500       -0.20833        0.29167
 BRILLOUIN|   623           0.00116       -0.12500       -0.20833        0.37500
 BRILLOUIN|   624           0.00116       -0.12500       -0.20833        0.45833
 BRILLOUIN|   625           0.00116       -0.12500       -0.12500       -0.45833
 BRILLOUIN|   626           0.00116       -0.12500       -0.12500       -0.37500
 BRILLOUIN|   627           0.00116       -0.12500       -0.12500       -0.29167
 BRILLOUIN|   628           0.00116       -0.12500       -0.12500       -0.20833
 BRILLOUIN|   629           0.00116       -0.12500       -0.12500       -0.12500
 BRILLOUIN|   630           0.00116       -0.12500       -0.12500       -0.04167
 BRILLOUIN|   631           0.00116       -0.12500       -0.12500        0.04167
 BRILLOUIN|   632           0.00116       -0.12500       -0.12500        0.12500
 BRILLOUIN|   633           0.00116       -0.12500       -0.12500        0.20833
 BRILLOUIN|   634           0.00116       -0.12500       -0.12500        0.29167
 BRILLOUIN|   635           0.00116       -0.12500       -0.12500        0.37500
 BRILLOUIN|   636           0.00116       -0.12500       -0.12500        0.45833
 BRILLOUIN|   637           0.00116       -0.12500       -0.04167       -0.45833
 BRILLOUIN|   638           0.00116       -0.12500       -0.04167       -0.37500
 BRILLOUIN|   639           0.00116       -0.12500       -0.04167       -0.29167
 BRILLOUIN|   640           0.00116       -0.12500       -0.04167       -0.20833
 BRILLOUIN|   641           0.00116       -0.12500       -0.04167       -0.12500
 BRILLOUIN|   642           0.00116       -0.12500       -0.04167       -0.04167
 BRILLOUIN|   643           0.00116       -0.12500       -0.04167        0.04167
 BRILLOUIN|   644           0.00116       -0.12500       -0.04167        0.12500
 BRILLOUIN|   645           0.00116       -0.12500       -0.04167        0.20833
 BRILLOUIN|   646           0.00116       -0.12500       -0.04167        0.29167
 BRILLOUIN|   647           0.00116       -0.12500       -0.04167        0.37500
 BRILLOUIN|   648           0.00116       -0.12500       -0.04167        0.45833
 BRILLOUIN|   649           0.00116       -0.12500        0.04167       -0.45833
 BRILLOUIN|   650           0.00116       -0.12500        0.04167       -0.37500
 BRILLOUIN|   651           0.00116       -0.12500        0.04167       -0.29167
 BRILLOUIN|   652           0.00116       -0.12500        0.04167       -0.20833
 BRILLOUIN|   653           0.00116       -0.12500        0.04167       -0.12500
 BRILLOUIN|   654           0.00116       -0.12500        0.04167       -0.04167
 BRILLOUIN|   655           0.00116       -0.12500        0.04167        0.04167
 BRILLOUIN|   656           0.00116       -0.12500        0.04167        0.12500
 BRILLOUIN|   657           0.00116       -0.12500        0.04167        0.20833
 BRILLOUIN|   658           0.00116       -0.12500        0.04167        0.29167
 BRILLOUIN|   659           0.00116       -0.12500        0.04167        0.37500
 BRILLOUIN|   660           0.00116       -0.12500        0.04167        0.45833
 BRILLOUIN|   661           0.00116       -0.12500        0.12500       -0.45833
 BRILLOUIN|   662           0.00116       -0.12500        0.12500       -0.37500
 BRILLOUIN|   663           0.00116       -0.12500        0.12500       -0.29167
 BRILLOUIN|   664           0.00116       -0.12500        0.12500       -0.20833
 BRILLOUIN|   665           0.00116       -0.12500        0.12500       -0.12500
 BRILLOUIN|   666           0.00116       -0.12500        0.12500       -0.04167
 BRILLOUIN|   667           0.00116       -0.12500        0.12500        0.04167
 BRILLOUIN|   668           0.00116       -0.12500        0.12500        0.12500
 BRILLOUIN|   669           0.00116       -0.12500        0.12500        0.20833
 BRILLOUIN|   670           0.00116       -0.12500        0.12500        0.29167
 BRILLOUIN|   671           0.00116       -0.12500        0.12500        0.37500
 BRILLOUIN|   672           0.00116       -0.12500        0.12500        0.45833
 BRILLOUIN|   673           0.00116       -0.12500        0.20833       -0.45833
 BRILLOUIN|   674           0.00116       -0.12500        0.20833       -0.37500
 BRILLOUIN|   675           0.00116       -0.12500        0.20833       -0.29167
 BRILLOUIN|   676           0.00116       -0.12500        0.20833       -0.20833
 BRILLOUIN|   677           0.00116       -0.12500        0.20833       -0.12500
 BRILLOUIN|   678           0.00116       -0.12500        0.20833       -0.04167
 BRILLOUIN|   679           0.00116       -0.12500        0.20833        0.04167
 BRILLOUIN|   680           0.00116       -0.12500        0.20833        0.12500
 BRILLOUIN|   681           0.00116       -0.12500        0.20833        0.20833
 BRILLOUIN|   682           0.00116       -0.12500        0.20833        0.29167
 BRILLOUIN|   683           0.00116       -0.12500        0.20833        0.37500
 BRILLOUIN|   684           0.00116       -0.12500        0.20833        0.45833
 BRILLOUIN|   685           0.00116       -0.12500        0.29167       -0.45833
 BRILLOUIN|   686           0.00116       -0.12500        0.29167       -0.37500
 BRILLOUIN|   687           0.00116       -0.12500        0.29167       -0.29167
 BRILLOUIN|   688           0.00116       -0.12500        0.29167       -0.20833
 BRILLOUIN|   689           0.00116       -0.12500        0.29167       -0.12500
 BRILLOUIN|   690           0.00116       -0.12500        0.29167       -0.04167
 BRILLOUIN|   691           0.00116       -0.12500        0.29167        0.04167
 BRILLOUIN|   692           0.00116       -0.12500        0.29167        0.12500
 BRILLOUIN|   693           0.00116       -0.12500        0.29167        0.20833
 BRILLOUIN|   694           0.00116       -0.12500        0.29167        0.29167
 BRILLOUIN|   695           0.00116       -0.12500        0.29167        0.37500
 BRILLOUIN|   696           0.00116       -0.12500        0.29167        0.45833
 BRILLOUIN|   697           0.00116       -0.12500        0.37500       -0.45833
 BRILLOUIN|   698           0.00116       -0.12500        0.37500       -0.37500
 BRILLOUIN|   699           0.00116       -0.12500        0.37500       -0.29167
 BRILLOUIN|   700           0.00116       -0.12500        0.37500       -0.20833
 BRILLOUIN|   701           0.00116       -0.12500        0.37500       -0.12500
 BRILLOUIN|   702           0.00116       -0.12500        0.37500       -0.04167
 BRILLOUIN|   703           0.00116       -0.12500        0.37500        0.04167
 BRILLOUIN|   704           0.00116       -0.12500        0.37500        0.12500
 BRILLOUIN|   705           0.00116       -0.12500        0.37500        0.20833
 BRILLOUIN|   706           0.00116       -0.12500        0.37500        0.29167
 BRILLOUIN|   707           0.00116       -0.12500        0.37500        0.37500
 BRILLOUIN|   708           0.00116       -0.12500        0.37500        0.45833
 BRILLOUIN|   709           0.00116       -0.12500        0.45833       -0.45833
 BRILLOUIN|   710           0.00116       -0.12500        0.45833       -0.37500
 BRILLOUIN|   711           0.00116       -0.12500        0.45833       -0.29167
 BRILLOUIN|   712           0.00116       -0.12500        0.45833       -0.20833
 BRILLOUIN|   713           0.00116       -0.12500        0.45833       -0.12500
 BRILLOUIN|   714           0.00116       -0.12500        0.45833       -0.04167
 BRILLOUIN|   715           0.00116       -0.12500        0.45833        0.04167
 BRILLOUIN|   716           0.00116       -0.12500        0.45833        0.12500
 BRILLOUIN|   717           0.00116       -0.12500        0.45833        0.20833
 BRILLOUIN|   718           0.00116       -0.12500        0.45833        0.29167
 BRILLOUIN|   719           0.00116       -0.12500        0.45833        0.37500
 BRILLOUIN|   720           0.00116       -0.12500        0.45833        0.45833
 BRILLOUIN|   721           0.00116       -0.04167       -0.45833       -0.45833
 BRILLOUIN|   722           0.00116       -0.04167       -0.45833       -0.37500
 BRILLOUIN|   723           0.00116       -0.04167       -0.45833       -0.29167
 BRILLOUIN|   724           0.00116       -0.04167       -0.45833       -0.20833
 BRILLOUIN|   725           0.00116       -0.04167       -0.45833       -0.12500
 BRILLOUIN|   726           0.00116       -0.04167       -0.45833       -0.04167
 BRILLOUIN|   727           0.00116       -0.04167       -0.45833        0.04167
 BRILLOUIN|   728           0.00116       -0.04167       -0.45833        0.12500
 BRILLOUIN|   729           0.00116       -0.04167       -0.45833        0.20833
 BRILLOUIN|   730           0.00116       -0.04167       -0.45833        0.29167
 BRILLOUIN|   731           0.00116       -0.04167       -0.45833        0.37500
 BRILLOUIN|   732           0.00116       -0.04167       -0.45833        0.45833
 BRILLOUIN|   733           0.00116       -0.04167       -0.37500       -0.45833
 BRILLOUIN|   734           0.00116       -0.04167       -0.37500       -0.37500
 BRILLOUIN|   735           0.00116       -0.04167       -0.37500       -0.29167
 BRILLOUIN|   736           0.00116       -0.04167       -0.37500       -0.20833
 BRILLOUIN|   737           0.00116       -0.04167       -0.37500       -0.12500
 BRILLOUIN|   738           0.00116       -0.04167       -0.37500       -0.04167
 BRILLOUIN|   739           0.00116       -0.04167       -0.37500        0.04167
 BRILLOUIN|   740           0.00116       -0.04167       -0.37500        0.12500
 BRILLOUIN|   741           0.00116       -0.04167       -0.37500        0.20833
 BRILLOUIN|   742           0.00116       -0.04167       -0.37500        0.29167
 BRILLOUIN|   743           0.00116       -0.04167       -0.37500        0.37500
 BRILLOUIN|   744           0.00116       -0.04167       -0.37500        0.45833
 BRILLOUIN|   745           0.00116       -0.04167       -0.29167       -0.45833
 BRILLOUIN|   746           0.00116       -0.04167       -0.29167       -0.37500
 BRILLOUIN|   747           0.00116       -0.04167       -0.29167       -0.29167
 BRILLOUIN|   748           0.00116       -0.04167       -0.29167       -0.20833
 BRILLOUIN|   749           0.00116       -0.04167       -0.29167       -0.12500
 BRILLOUIN|   750           0.00116       -0.04167       -0.29167       -0.04167
 BRILLOUIN|   751           0.00116       -0.04167       -0.29167        0.04167
 BRILLOUIN|   752           0.00116       -0.04167       -0.29167        0.12500
 BRILLOUIN|   753           0.00116       -0.04167       -0.29167        0.20833
 BRILLOUIN|   754           0.00116       -0.04167       -0.29167        0.29167
 BRILLOUIN|   755           0.00116       -0.04167       -0.29167        0.37500
 BRILLOUIN|   756           0.00116       -0.04167       -0.29167        0.45833
 BRILLOUIN|   757           0.00116       -0.04167       -0.20833       -0.45833
 BRILLOUIN|   758           0.00116       -0.04167       -0.20833       -0.37500
 BRILLOUIN|   759           0.00116       -0.04167       -0.20833       -0.29167
 BRILLOUIN|   760           0.00116       -0.04167       -0.20833       -0.20833
 BRILLOUIN|   761           0.00116       -0.04167       -0.20833       -0.12500
 BRILLOUIN|   762           0.00116       -0.04167       -0.20833       -0.04167
 BRILLOUIN|   763           0.00116       -0.04167       -0.20833        0.04167
 BRILLOUIN|   764           0.00116       -0.04167       -0.20833        0.12500
 BRILLOUIN|   765           0.00116       -0.04167       -0.20833        0.20833
 BRILLOUIN|   766           0.00116       -0.04167       -0.20833        0.29167
 BRILLOUIN|   767           0.00116       -0.04167       -0.20833        0.37500
 BRILLOUIN|   768           0.00116       -0.04167       -0.20833        0.45833
 BRILLOUIN|   769           0.00116       -0.04167       -0.12500       -0.45833
 BRILLOUIN|   770           0.00116       -0.04167       -0.12500       -0.37500
 BRILLOUIN|   771           0.00116       -0.04167       -0.12500       -0.29167
 BRILLOUIN|   772           0.00116       -0.04167       -0.12500       -0.20833
 BRILLOUIN|   773           0.00116       -0.04167       -0.12500       -0.12500
 BRILLOUIN|   774           0.00116       -0.04167       -0.12500       -0.04167
 BRILLOUIN|   775           0.00116       -0.04167       -0.12500        0.04167
 BRILLOUIN|   776           0.00116       -0.04167       -0.12500        0.12500
 BRILLOUIN|   777           0.00116       -0.04167       -0.12500        0.20833
 BRILLOUIN|   778           0.00116       -0.04167       -0.12500        0.29167
 BRILLOUIN|   779           0.00116       -0.04167       -0.12500        0.37500
 BRILLOUIN|   780           0.00116       -0.04167       -0.12500        0.45833
 BRILLOUIN|   781           0.00116       -0.04167       -0.04167       -0.45833
 BRILLOUIN|   782           0.00116       -0.04167       -0.04167       -0.37500
 BRILLOUIN|   783           0.00116       -0.04167       -0.04167       -0.29167
 BRILLOUIN|   784           0.00116       -0.04167       -0.04167       -0.20833
 BRILLOUIN|   785           0.00116       -0.04167       -0.04167       -0.12500
 BRILLOUIN|   786           0.00116       -0.04167       -0.04167       -0.04167
 BRILLOUIN|   787           0.00116       -0.04167       -0.04167        0.04167
 BRILLOUIN|   788           0.00116       -0.04167       -0.04167        0.12500
 BRILLOUIN|   789           0.00116       -0.04167       -0.04167        0.20833
 BRILLOUIN|   790           0.00116       -0.04167       -0.04167        0.29167
 BRILLOUIN|   791           0.00116       -0.04167       -0.04167        0.37500
 BRILLOUIN|   792           0.00116       -0.04167       -0.04167        0.45833
 BRILLOUIN|   793           0.00116       -0.04167        0.04167       -0.45833
 BRILLOUIN|   794           0.00116       -0.04167        0.04167       -0.37500
 BRILLOUIN|   795           0.00116       -0.04167        0.04167       -0.29167
 BRILLOUIN|   796           0.00116       -0.04167        0.04167       -0.20833
 BRILLOUIN|   797           0.00116       -0.04167        0.04167       -0.12500
 BRILLOUIN|   798           0.00116       -0.04167        0.04167       -0.04167
 BRILLOUIN|   799           0.00116       -0.04167        0.04167        0.04167
 BRILLOUIN|   800           0.00116       -0.04167        0.04167        0.12500
 BRILLOUIN|   801           0.00116       -0.04167        0.04167        0.20833
 BRILLOUIN|   802           0.00116       -0.04167        0.04167        0.29167
 BRILLOUIN|   803           0.00116       -0.04167        0.04167        0.37500
 BRILLOUIN|   804           0.00116       -0.04167        0.04167        0.45833
 BRILLOUIN|   805           0.00116       -0.04167        0.12500       -0.45833
 BRILLOUIN|   806           0.00116       -0.04167        0.12500       -0.37500
 BRILLOUIN|   807           0.00116       -0.04167        0.12500       -0.29167
 BRILLOUIN|   808           0.00116       -0.04167        0.12500       -0.20833
 BRILLOUIN|   809           0.00116       -0.04167        0.12500       -0.12500
 BRILLOUIN|   810           0.00116       -0.04167        0.12500       -0.04167
 BRILLOUIN|   811           0.00116       -0.04167        0.12500        0.04167
 BRILLOUIN|   812           0.00116       -0.04167        0.12500        0.12500
 BRILLOUIN|   813           0.00116       -0.04167        0.12500        0.20833
 BRILLOUIN|   814           0.00116       -0.04167        0.12500        0.29167
 BRILLOUIN|   815           0.00116       -0.04167        0.12500        0.37500
 BRILLOUIN|   816           0.00116       -0.04167        0.12500        0.45833
 BRILLOUIN|   817           0.00116       -0.04167        0.20833       -0.45833
 BRILLOUIN|   818           0.00116       -0.04167        0.20833       -0.37500
 BRILLOUIN|   819           0.00116       -0.04167        0.20833       -0.29167
 BRILLOUIN|   820           0.00116       -0.04167        0.20833       -0.20833
 BRILLOUIN|   821           0.00116       -0.04167        0.20833       -0.12500
 BRILLOUIN|   822           0.00116       -0.04167        0.20833       -0.04167
 BRILLOUIN|   823           0.00116       -0.04167        0.20833        0.04167
 BRILLOUIN|   824           0.00116       -0.04167        0.20833        0.12500
 BRILLOUIN|   825           0.00116       -0.04167        0.20833        0.20833
 BRILLOUIN|   826           0.00116       -0.04167        0.20833        0.29167
 BRILLOUIN|   827           0.00116       -0.04167        0.20833        0.37500
 BRILLOUIN|   828           0.00116       -0.04167        0.20833        0.45833
 BRILLOUIN|   829           0.00116       -0.04167        0.29167       -0.45833
 BRILLOUIN|   830           0.00116       -0.04167        0.29167       -0.37500
 BRILLOUIN|   831           0.00116       -0.04167        0.29167       -0.29167
 BRILLOUIN|   832           0.00116       -0.04167        0.29167       -0.20833
 BRILLOUIN|   833           0.00116       -0.04167        0.29167       -0.12500
 BRILLOUIN|   834           0.00116       -0.04167        0.29167       -0.04167
 BRILLOUIN|   835           0.00116       -0.04167        0.29167        0.04167
 BRILLOUIN|   836           0.00116       -0.04167        0.29167        0.12500
[...]
 ROUTINE             CALLS      AVE VOLUME [Bytes]
 MP_Bcast                1                     12.
 MP_Allreduce           19                     21.
 MP_Alltoall       2304776                  10719.
 -------------------------------------------------------------------------------

 -------------------------------------------------------------------------------
 -                                                                             -
 -                                DBM STATISTICS                               -
 -                                                                             -
 -------------------------------------------------------------------------------
    M  x    N  x    K                                          COUNT     PERCENT
 -------------------------------------------------------------------------------

 -------------------------------------------------------------------------------
 -                                                                             -
 -                                GRID STATISTICS                              -
 -                                                                             -
 -------------------------------------------------------------------------------
 LP    KERNEL             BACKEND                              COUNT     PERCENT
 4     collocate ortho    CPU                                3867468      50.77%
 4     integrate ortho    CPU                                3750272      49.23%
 0     collocate general  CPU                                     16       0.00%
 0     integrate general  CPU                                      8       0.00%
 -------------------------------------------------------------------------------

 MEMORY| Estimated peak process memory [MiB]                                 841

 -------------------------------------------------------------------------------
 ----                             MULTIGRID INFO                            ----
 -------------------------------------------------------------------------------
 count for grid        1:          58992          cutoff [a.u.]          500.00
 count for grid        2:          31824          cutoff [a.u.]          166.67
 count for grid        3:          35364          cutoff [a.u.]           55.56
 count for grid        4:         118936          cutoff [a.u.]           18.52
 total gridlevel count  :         245116

 -------------------------------------------------------------------------------
 -                                                                             -
 -                         MESSAGE PASSING PERFORMANCE                         -
 -                                                                             -
 -------------------------------------------------------------------------------

 ROUTINE             CALLS      AVE VOLUME [Bytes]
 MP_Group                6
 MP_Bcast           999073                    376.
 MP_Allreduce       111437                    299.
 MP_Sync                 4
 MP_Alltoall           581                6678039.
 MP_SendRecv           938                 421490.
 MP_ISendRecv          903                 415122.
 MP_Wait            687707
 MP_comm_split           4
 MP_ISend           729164                   4746.
 MP_IRecv          1165952                   2972.
 -------------------------------------------------------------------------------


 -------------------------------------------------------------------------------
 -                                                                             -
 -                           R E F E R E N C E S                               -
 -                                                                             -
 -------------------------------------------------------------------------------
 
 CP2K version 2025.1 (Development Version), the CP2K developers group (2025).
 CP2K is freely available from https://www.cp2k.org/ .
 
 T. D. Kuehne, M. Iannuzzi, M. Del Ben, V. V. Rybkin, P. Seewald, F. Stein, T. 
 Laino, R. Z. Khaliullin, O. Schuett, F. Schiffmann, D. Golze, J. Wilhelm, S. 
 Chulkov, M. H. Bani-Hashemian, V. Weber, U. Borstnik, M. Taillefumier, A. S. 
 Jakobovits, A. Lazzaro, H. Pabst, T. Mueller, R. Schade, M. Guidon, S. 
 Andermatt, N. Holmberg, G. K. Schenter, A. Hehn, A. Bussy, F. Belleflamme, G. 
 Tabacchi, A. Gloess, M. Lass, I. Bethune, C. J. Mundy, C. Plessl, M. Watkins, 
 J. VandeVondele, M. Krack, J. Hutter.
 J. Chem. Phys. 152, 194103 (2020).
 CP2K: An electronic structure and molecular dynamics software package - 
 Quickstep: Efficient and accurate electronic structure calculations.
 https://doi.org/10.1063/5.0007045

 O. Schuett, P. Messmer, J. Hutter, J. VandeVondele.
 Electronic Structure Calculations on Graphics Processing Units, 173-190 (2016).
 GPU-Accelerated Sparse Matrix-Matrix Multiplication for Linear Scaling Density 
 Functional Theory.
 https://doi.org/10.1002/9781118670712.ch8

 J. Hutter, M. Iannuzzi, F. Schiffmann, J. VandeVondele.
 WIREs Comput Mol Sci. 4, 15-25 (2014).
 CP2K: atomistic simulations of condensed matter systems.
 https://doi.org/10.1002/wcms.1159

 U. Borstnik, J. VandeVondele, V. Weber, J. Hutter.
 Parallel Comput. 40, 47-58 (2014).
 Sparse matrix multiplication: The distributed block-compressed sparse row 
 library.
 https://doi.org/10.1016/j.parco.2014.03.012

 J. VandeVondele, J. Hutter.
 J. Chem. Phys. 127, 114105 (2007).
 Gaussian basis sets for accurate calculations on molecular systems in gas and 
 condensed phases.
 https://doi.org/10.1063/1.2770708

 J. VandeVondele, M. Krack, F. Mohamed, M. Parrinello, T. Chassaing, J. Hutter.
 Comput. Phys. Commun. 167, 103-128 (2005).
 QUICKSTEP: Fast and accurate density functional calculations using a mixed 
 Gaussian and plane waves approach.
 https://doi.org/10.1016/j.cpc.2004.12.014

 M. Krack.
 Theor. Chem. Acc. 114, 145-152 (2005).
 Pseudopotentials for H to Kr optimized for gradient-corrected 
 exchange-correlation functionals.
 https://doi.org/10.1007/s00214-005-0655-y

 M. Frigo, S. G. Johnson.
 Proc. IEEE 93, 216-231 (2005).
 The design and implementation of FFTW3.
 https://doi.org/10.1109/JPROC.2004.840301

 C. Hartwigsen, S. Goedecker, J. Hutter.
 Phys. Rev. B 58, 3641-3662 (1998).
 Relativistic separable dual-space Gaussian pseudopotentials from H to Rn.
 https://doi.org/10.1103/PhysRevB.58.3641

 G. Lippert, J. Hutter, M. Parrinello.
 Mol. Phys. 92, 477-487 (1997).
 A hybrid Gaussian and plane wave density functional scheme.
 https://doi.org/10.1080/002689797170220

 S. Goedecker, M. Teter, J. Hutter.
 Phys. Rev. B 54, 1703-1710 (1996).
 Separable dual-space Gaussian pseudopotentials.
 https://doi.org/10.1103/PhysRevB.54.1703

 J. P. Perdew, K. Burke, M. Ernzerhof.
 Phys. Rev. Lett. 77, 3865-3868 (1996).
 Generalized gradient approximation made simple.
 https://doi.org/10.1103/PhysRevLett.77.3865


 -------------------------------------------------------------------------------
 -                                                                             -
 -                                T I M I N G                                  -
 -                                                                             -
 -------------------------------------------------------------------------------
 SUBROUTINE                       CALLS  ASD         SELF TIME        TOTAL TIME
                                MAXIMUM       AVERAGE  MAXIMUM  AVERAGE  MAXIMUM
 CP2K                                 1  1.0    0.015    0.022  801.479  801.479
 qs_energies                          1  2.0    0.022    0.143  801.112  801.180
 scf_env_do_scf                       1  3.0    0.000    0.000  794.806  794.806
 scf_env_do_scf_inner_loop           32  4.0    0.034    0.035  794.806  794.806
 do_general_diag_kp                  33  5.9    0.764    0.840  766.047  770.901
 qs_scf_new_mos_kp                   32  5.0    0.000    0.000  762.675  767.555
 rskp_transform                   55592  7.0  343.815  392.010  343.815  392.010
 mp_alltoall_i22                 393444  8.8   80.455  252.220   80.455  252.220
 kpoint_density_transform            32  7.0    0.265    0.292  211.506  212.317
 dbcsr_desymmetrize_deep         224666  7.5    4.615    4.804   79.800  200.708
 transform_dmat                   27648  8.0  153.200  174.471  153.200  174.471
 dbcsr_complete_redistribute     168778  8.3    7.924    8.383   77.221  127.712
 copy_fm_to_dbcsr                 55296  8.0    0.360    0.383   40.437   90.702
 copy_dbcsr_to_fm                113482  7.0    1.269    1.347   60.819   61.658
 cp_cfm_geeig_canon                3493  7.0    0.043    0.046   48.480   48.974
 cp_cfm_heevd                      6986  8.0    0.011    0.012   42.267   42.727
 cp_cfm_heevd_base                 6986  9.0   42.256   42.714   42.256   42.714
 cp_fm_start_copy_general        166480  7.3    5.596    6.772   32.855   33.727
 mp_allgather_i                  332960  8.3   20.368   21.241   20.368   21.241
 qs_ks_update_qs_env                 32  5.0    0.000    0.000   17.395   19.544
 rebuild_ks_matrix                   32  6.0    0.000    0.000   16.140   18.288
 qs_ks_build_kohn_sham_matrix        32  7.0    0.062    0.064   16.140   18.288
 sum_up_and_integrate                32  8.0    0.000    0.001   14.639   16.802
 integrate_v_rspace                  32  9.0    0.122    0.187   14.637   16.800
 mp_alltoall_d11v               1180332  9.4   15.595   16.372   15.595   16.372
 grid_integrate_task_list            32 10.0   14.018   16.102   14.018   16.102
 dbcsr_finalize                  412216  8.7    1.950    2.054   14.258   15.351
 qs_rho_update_rho_low               33  5.0    0.000    0.000   10.820   10.835
 calculate_rho_elec                  33  6.0    0.059    0.068   10.820   10.834
 hybrid_alltoall_any             224666  8.5    0.966    1.014    9.479   10.112
 mp_cart_sub                     226966  9.0    9.954   10.000    9.954   10.000
 grid_collocate_task_list            33  7.0    8.707    9.989    8.707    9.989
 dbcsr_merge_all                 168778 10.3    4.007    5.001    7.781    8.822
 mp_alltoall_i11v                731000  9.1    8.087    8.501    8.087    8.501
 kpoint_density_matrices             32  7.0    0.115    0.120    7.008    7.822
 parallel_gemm_fm                 13824  8.0    0.013    0.014    6.795    7.606
 parallel_gemm_fm_gemm            13824  9.0    0.013    0.014    6.782    7.593
 cp_fm_gemm                       13824 10.0    6.768    7.579    6.768    7.579
 kpoint_set_mo_occupation            32  7.0    5.257    5.525    5.789    6.201
 mp_cart_create                  113489  9.0    5.981    6.100    5.981    6.100
 cp_cfm_gemm                      10479  8.0    5.898    5.974    5.898    5.974
 transfer_rs2pw                     134  8.0    0.002    0.003    1.934    5.200
 transfer_rs2pw_500                  35  8.9    0.164    0.181    1.817    5.097
 mp_sendrecv_dv                     938 10.0    1.728    4.976    1.728    4.976
 density_rs2pw                       33  7.0    0.001    0.002    2.048    4.951
 mp_bcast_iv                     665944  8.3    4.194    4.707    4.194    4.707
 cp_fm_finish_copy_general        69268  7.8    4.473    4.526    4.635    4.691
 dbcsr_work_create               393444  8.8    2.493    2.577    3.933    4.045
 dbcsr_create_new                644029  8.3    2.990    3.087    3.613    3.763
 dbcsr_work_destroy_all          393444  9.8    1.865    1.894    3.022    3.073
 copy_fm_to_dbcsr_bc              55296  9.0    0.830    0.905    2.847    2.992
 copy_dbcsr_to_fm_bc             113482  8.0    1.392    1.478    2.758    2.868
 dbcsr_iterator_start           1180012  9.1    2.392    2.437    2.797    2.867
 dbcsr_copy                      129981  7.6    0.517    0.544    2.583    2.840
 dbcsr_data_new                 4226608  9.8    2.555    2.678    2.555    2.678
 tree_to_linear_d                168778 11.3    2.454    2.552    2.454    2.552
 dbcsr_data_release             5855952 10.2    2.415    2.447    2.415    2.447
 write_kpoints_restart               32  5.0    0.009    0.012    2.314    2.314
 dbcsr_copy_into_existing         56445  9.9    1.608    1.868    1.939    2.197
 dbcsr_destroy                   570493  8.3    0.984    1.015    1.831    1.929
 dbcsr_iterator_stop            1180012  9.1    1.462    1.479    1.722    1.741
 qs_energies_init_hamiltonians        1  3.0    0.000    0.000    1.678    1.678
 cp_dbcsr_alloc_block_from_nbl     8237  5.1    1.201    1.361    1.303    1.472
 mp_bcast_im                     332960  8.3    1.261    1.425    1.261    1.425
 dbcsr_dot                        73537  8.0    0.537    0.580    1.272    1.394
 build_core_hamiltonian_matrix        1  4.0    0.004    0.004    1.232    1.386
 fft_wrap_pw1pw2                    581 10.0    0.008    0.009    1.361    1.378
 quick_finalize                  224666  9.5    0.762    0.783    1.332    1.364
 fft_wrap_pw1pw2_500                386 11.3    0.102    0.106    1.260    1.273
 evaluate_core_matrix_traces         32  6.0    0.000    0.000    1.255    1.255
 calculate_ptrace_kp                 64  7.0    0.057    0.062    1.255    1.255
 mp_waitall_1                    687707  8.3    0.639    1.206    0.639    1.206
 fft3d_ps                           581 12.0    0.485    0.505    1.082    1.101
 cp_fm_write_unformatted           2298  6.0    0.554    0.967    0.677    1.084
 mp_isend_dv                     167072  8.3    0.916    1.050    0.916    1.050
 mp_sum_dm3                          32  8.0    0.532    1.010    0.532    1.010
 mp_comm_free                    340489  9.0    0.904    0.996    0.904    0.996
 qs_vxc_create                       32  8.0    0.001    0.001    0.955    0.958
 xc_vxc_pw_create                    32  9.0    0.038    0.040    0.955    0.957
 mp_sum_d                         74211  9.0    0.578    0.860    0.578    0.860
 gspace_mixing                       31  5.0    0.034    0.036    0.834    0.834
 self_consistency_check              32  5.0    0.053    0.057    0.755    0.814
 dbcsr_set                       360521  8.0    0.373    0.387    0.706    0.755
 dbcsr_sort_indices              456977 10.9    0.681    0.717    0.681    0.717
 qs_env_update_s_mstruct              1  4.0    0.000    0.000    0.408    0.698
 broyden_mixing                      31  6.0    0.664    0.678    0.685    0.690
 cp_sm_mix                        36768  6.0    0.234    0.254    0.602    0.678
 build_core_ppnl                      1  5.0    0.573    0.646    0.573    0.646
 xc_pw_derive                       192 11.0    0.001    0.001    0.615    0.626
 dbcsr_reserve_blocks             63533 10.4    0.499    0.527    0.573    0.607
 dbcsr_reserve_all_blocks         55296 10.0    0.100    0.105    0.573    0.604
 dbcsr_data_copy_aa2             168778 11.3    0.561    0.591    0.561    0.591
 init_scf_run                         1  3.0    0.000    0.000    0.437    0.558
 scf_env_initial_rho_setup            1  4.0    0.000    0.000    0.437    0.558
 mp_alltoall_z22v                   581 14.0    0.521    0.557    0.521    0.557
 calculate_rho_core                   1  5.0    0.002    0.003    0.177    0.539
 xc_rho_set_and_dset_create          32 10.0    0.024    0.028    0.508    0.525
 potential_pw2rs                     32 10.0    0.003    0.003    0.496    0.511
 mp_send_dv                        2298  7.0    0.108    0.467    0.108    0.467
 mixing_allocate                      1  3.0    0.007    0.007    0.387    0.461
 dbcsr_iterator_seek            1180012 10.1    0.406    0.431    0.406    0.431
 dbcsr_make_index_exist          644029  9.3    0.395    0.429    0.395    0.429
 cp_cfm_scale_and_add_fm          13972  7.0    0.408    0.415    0.408    0.415
 xc_pw_divergence                    32 10.0    0.000    0.001    0.402    0.413
 mp_max_d                         36770  7.0    0.283    0.406    0.283    0.406
 mp_irecv_iv                     665920  8.3    0.049    0.392    0.049    0.392
 dbcsr_zero                      360521  9.0    0.334    0.368    0.334    0.368
 merge_index                     168778 11.3    0.318    0.347    0.318    0.347
 x_to_yz                            320 13.2    0.043    0.046    0.322    0.341
 transfer_pw2rs                     129 11.0    0.001    0.002    0.338    0.339
 yz_to_x                            261 12.8    0.027    0.028    0.268    0.294
 cp_fm_cleanup_copy_general      118096  7.0    0.183    0.185    0.271    0.276
 dbcsr_switch_data_area          224666 10.5    0.202    0.205    0.266    0.270
 mp_isend_iv                     374728  8.3    0.070    0.269    0.070    0.269
 transfer_pw2rs_500                  33 11.9    0.132    0.139    0.248    0.256
 build_overlap_matrix_low             1  5.0    0.029    0.037    0.214    0.242
 build_kinetic_matrix_low             1  5.0    0.028    0.036    0.212    0.240
 mp_sum_dv                          327  3.4    0.105    0.232    0.105    0.232
 qs_env_rebuild_rho                   1  5.0    0.000    0.000    0.189    0.211
 qs_rho_rebuild                       1  6.0    0.003    0.003    0.189    0.211
 calculate_first_density_matrix       1  5.0    0.001    0.001    0.080    0.201
 calculate_atomic_block_dm            1  6.0    0.001    0.001    0.076    0.198
 xc_functional_eval                  32 11.0    0.000    0.000    0.168    0.184
 pbe_lda_eval                        32 12.0    0.168    0.183    0.168    0.183
 dbcsr_get_data_size_used        393444  9.8    0.174    0.181    0.174    0.181
 dbcsr_distribution_new          168780  8.6    0.157    0.178    0.157    0.178
 mp_irecv_im2                    332960  8.3    0.022    0.172    0.022    0.172
 cp_cfm_to_fm                      3493  7.0    0.167    0.170    0.167    0.170
 dbcsr_make_dbcsr_index          456977 10.9    0.138    0.150    0.138    0.150
 cp_cfm_column_scale               3493  8.0    0.142    0.143    0.142    0.143
 restraint_control                    1  2.0    0.000    0.000    0.068    0.136
 mp_sum_i                             4  2.8    0.068    0.136    0.068    0.136
 cp_cfm_zscale                     3493  8.0    0.129    0.130    0.129    0.130
 mp_isend_im2                    187364  8.3    0.030    0.121    0.030    0.121
 mp_recv_dv                        6894  7.0    0.015    0.117    0.015    0.117
 transfer_rs2pw_170                  33  9.0    0.032    0.034    0.090    0.108
 mp_irecv_dv                     167072  8.3    0.102    0.108    0.102    0.108
 cp_fm_to_fm_matrix                6912  8.0    0.097    0.099    0.097    0.099
 parser_read_line                  5839  4.1    0.002    0.002    0.096    0.098
 calculate_ecore_overlap              1  4.0    0.000    0.000    0.025    0.097
 parser_read_line_low                23  6.2    0.009    0.034    0.094    0.096
 broadcast_input_information         23  7.2    0.029    0.038    0.086    0.092
 pw_scatter_p                       320 12.2    0.089    0.091    0.089    0.091
 mp_isendrecv_dv                    903 13.0    0.035    0.084    0.035    0.084
 cp_fm_create                       911  3.7    0.083    0.084    0.083    0.084
 -------------------------------------------------------------------------------

 The number of warnings for this run is : 1
 
 -------------------------------------------------------------------------------
  **** **** ******  **  PROGRAM ENDED AT                 2025-08-04 18:10:24.089
 ***** ** ***  *** **   PROGRAM RAN ON                              i04r10c01s12
 **    ****   ******    PROGRAM RAN BY                                   di38fab
 ***** **    ** ** **   PROGRAM PROCESS ID                               3994157
  **** **  *******  **  PROGRAM STOPPED IN /hppfs/scratch/04/di38fab/09_GTH/Delt
                                           a_Set/Ga/aug-SZV-MOLOPT-GTH-tier-1/12
                                           x12x12
