P                                       
   1.00000000000000     
     3.304660    0.000000    0.000000
     0.000000   11.316940    0.000000
     0.000000    0.000000    4.573270
   P 
     8
Direct
  0.000000  0.093570  0.087190
  0.000000  0.906430  0.912810
  0.000000  0.406430  0.587190
  0.000000  0.593570  0.412810
  0.500000  0.593570  0.087190
  0.500000  0.406430  0.912810
  0.500000  0.906430  0.587190
  0.500000  0.093570  0.412810
 
   32  100   40
  122.01      119.63      112.82      102.52      90.018      76.641      63.525      51.495      41.042      32.370    
  25.468      20.184      16.294      13.560      11.768      10.759      10.434      10.759      11.768      13.560    
  16.294      20.184      25.468      32.370      41.042      51.495      63.525      76.641      90.018      102.52    
  112.82      119.63      124.20      121.75      114.77      104.24      91.484      77.864      64.537      52.328    
  41.722      32.919      25.902      20.521      16.554      13.761      11.930      10.897      10.564      10.897    
  11.930      13.761      16.554      20.521      25.902      32.919      41.722      52.328      64.537      77.864    
  91.484      104.24      114.77      121.75      130.39      127.78      120.36      109.19      95.725      81.431    
  67.507      54.783      43.732      34.537      27.180      21.512      17.314      14.348      12.399      11.299    
  10.944      11.299      12.399      14.348      17.314      21.512      27.180      34.537      43.732      54.783    
  67.507      81.431      95.725      109.19      120.36      127.78      138.09      135.46      127.92      116.39    
  102.22      87.019      72.226      58.719      46.963      37.137      29.226      23.091      18.519      15.275    
  13.137      11.929      11.539      11.929      13.137      15.275      18.519      23.091      29.226      37.137    
  46.963      58.719      72.226      87.019      102.22      116.39      127.92      135.46      142.07      139.78    
  133.09      122.57      109.11      93.871      78.300      63.856      51.205      40.551      31.904      25.147    
  20.082      16.473      14.088      12.739      12.303      12.739      14.088      16.473      20.082      25.147    
  31.904      40.551      51.205      63.856      78.300      93.871      109.11      122.57      133.09      139.78    
  137.70      136.23      131.75      124.15      113.45      100.05      84.963      69.786      56.141      44.525    
  35.010      27.520      21.875      17.839      15.167      13.655      13.166      13.655      15.167      17.839    
  21.875      27.520      35.010      44.525      56.141      69.786      84.963      100.05      113.45      124.15    
  131.75      136.23      123.46      123.29      122.35      119.54      113.65      104.00      90.923      75.951    
  61.365      48.727      38.277      29.996      23.728      19.236      16.260      14.574      14.030      14.574    
  16.260      19.236      23.728      29.996      38.277      48.727      61.365      75.951      90.923      104.00    
  113.65      119.54      122.35      123.29      102.65      104.05      107.40      110.45      110.52      105.70    
  95.593      81.603      66.426      52.766      41.385      32.322      25.443      20.506      17.233      15.379    
  14.780      15.379      17.233      20.506      25.443      32.322      41.385      52.766      66.426      81.603    
  95.593      105.70      110.52      110.45      107.40      104.05      82.863      85.720      93.008      101.41    
  106.96      106.59      99.273      86.334      70.819      56.215      43.984      34.224      26.809      21.485    
  17.957      15.959      15.314      15.959      17.957      21.485      26.809      34.224      43.984      56.215    
  70.819      86.334      99.273      106.59      106.96      101.41      93.008      85.720      72.593      76.335    
  86.010      97.619      106.35      108.45      102.54      89.951      74.000      58.620      45.720      35.434    
  27.628      22.028      18.320      16.223      15.546      16.223      18.320      22.028      27.628      35.434    
  45.720      58.620      74.000      89.951      102.54      108.45      106.35      97.619      86.010      76.335    
  76.641      80.428      90.192      101.81      110.35      112.00      105.43      92.083      75.446      59.550    
  46.276      35.728      27.742      22.024      18.244      16.108      15.419      16.108      18.244      22.024    
  27.742      35.728      46.276      59.550      75.446      92.083      105.43      112.00      110.35      101.81    
  90.192      80.428      93.306      96.323      103.94      112.48      117.60      116.06      106.97      92.005    
  74.660      58.685      45.448      34.975      27.071      21.426      17.699      15.595      14.917      15.595    
  17.699      21.426      27.071      34.975      45.448      58.685      74.660      92.005      106.97      116.06    
  117.60      112.48      103.94      96.323      115.18      116.90      120.94      124.45      124.19      117.95    
  105.53      88.890      71.365      55.920      43.201      33.179      25.638      20.263      16.719      14.720    
  14.076      14.720      16.719      20.263      25.638      33.179      43.201      55.920      71.365      88.890    
  105.53      117.95      124.19      124.45      120.94      116.90      132.83      133.12      133.27      131.43    
  125.64      114.89      99.748      82.378      65.729      51.428      39.697      30.480      23.560      18.634    
  15.388      13.558      12.968      13.558      15.388      18.634      23.560      30.480      39.697      51.428    
  65.729      82.378      99.748      114.89      125.64      131.43      133.27      133.12      138.91      138.03    
  135.00      128.95      119.11      105.55      89.484      73.092      58.291      45.631      35.264      27.129    
  21.025      16.681      13.816      12.199      11.678      12.199      13.816      16.681      21.025      27.129    
  35.264      45.631      58.291      73.092      89.484      105.55      119.11      128.95      135.00      138.03    
  130.93      129.35      124.51      116.28      104.83      90.995      76.307      62.343      49.821      39.105    
  30.327      23.435      18.257      14.565      12.125      10.744      10.297      10.744      12.125      14.565    
  18.257      23.435      30.327      39.105      49.821      62.343      76.307      90.995      104.83      116.28    
  124.51      129.35      111.72      109.97      104.84      96.642      86.115      74.389      62.521      51.261    
  41.136      32.451      25.320      19.708      15.477      12.448      10.436      9.2921      8.9218      9.2921    
  10.436      12.448      15.477      19.708      25.320      32.451      41.136      51.261      62.521      74.389    
  86.115      96.642      104.84      109.97      87.876      86.411      82.188      75.681      67.567      58.596    
  49.475      40.782      32.935      26.180      20.612      16.209      12.871      10.464      8.8548      7.9346    
  7.6355      7.9346      8.8548      10.464      12.871      16.209      20.612      26.180      32.935      40.782    
  49.475      58.596      67.567      75.681      82.188      86.411      66.119      65.057      61.992      57.254    
  51.321      44.731      37.998      31.553      25.708      20.652      16.459      13.120      10.568      8.7105    
  7.4571      6.7354      6.5000      6.7354      7.4571      8.7105      10.568      13.120      16.459      20.652    
  25.708      31.553      37.998      44.731      51.321      57.254      61.992      65.057      48.357      47.615    
  45.467      42.139      37.957      33.293      28.507      23.904      19.707      16.051      12.996      10.540    
  8.6413      7.2445      6.2925      5.7403      5.5594      5.7403      6.2925      7.2445      8.6413      10.540    
  12.996      16.051      19.707      23.904      28.507      33.293      37.957      42.139      45.467      47.615    
  34.596      34.094      32.640      30.383      27.538      24.353      21.069      17.894      14.978      12.418    
  10.257      8.4999      7.1260      6.1038      5.4007      4.9902      4.8553      4.9902      5.4007      6.1038    
  7.1260      8.4999      10.257      12.418      14.978      17.894      21.069      24.353      27.538      30.383    
  32.640      34.094      24.405      24.078      23.129      21.652      19.784      17.685      15.509      13.390    
  11.430      9.6935      8.2124      6.9955      6.0348      5.3145      4.8163      4.5244      4.4284      4.5244    
  4.8163      5.3145      6.0348      6.9955      8.2124      9.6935      11.430      13.390      15.509      17.685    
  19.784      21.652      23.129      24.078      17.154      16.948      16.353      15.424      14.244      12.913    
  11.525      10.167      8.9015      7.7730      6.8051      6.0061      5.3737      4.8994      4.5719      4.3804    
  4.3175      4.3804      4.5719      4.8994      5.3737      6.0061      6.8051      7.7730      8.9015      10.167    
  11.525      12.913      14.244      15.424      16.353      16.948      12.164      12.042      11.687      11.132    
  10.426      9.6283      8.7963      7.9821      7.2259      6.5554      5.9855      5.5214      5.1603      4.8948    
  4.7151      4.6117      4.5781      4.6117      4.7151      4.8948      5.1603      5.5214      5.9855      6.5554    
  7.2259      7.9821      8.7963      9.6283      10.426      11.132      11.687      12.042      8.8226      8.7565    
  8.5649      8.2669      7.8912      7.4718      7.0431      6.6358      6.2732      5.9701      5.7325      5.5589    
  5.4416      5.3693      5.3294      5.3106      5.3053      5.3106      5.3294      5.3693      5.4416      5.5589    
  5.7325      5.9701      6.2732      6.6358      7.0431      7.4718      7.8912      8.2669      8.5649      8.7565    
  6.6470      6.6209      6.5466      6.4355      6.3046      6.1741      6.0636      5.9900      5.9642      5.9900    
  6.0636      6.1741      6.3046      6.4355      6.5466      6.6209      6.6470      6.6209      6.5466      6.4355    
  6.3046      6.1741      6.0636      5.9900      5.9642      5.9900      6.0636      6.1741      6.3046      6.4355    
  6.5466      6.6209      5.3053      5.3106      5.3294      5.3693      5.4416      5.5589      5.7325      5.9701    
  6.2732      6.6358      7.0431      7.4718      7.8912      8.2669      8.5649      8.7565      8.8226      8.7565    
  8.5649      8.2669      7.8912      7.4718      7.0431      6.6358      6.2732      5.9701      5.7325      5.5589    
  5.4416      5.3693      5.3294      5.3106      4.5781      4.6117      4.7151      4.8948      5.1603      5.5214    
  5.9855      6.5554      7.2259      7.9821      8.7963      9.6283      10.426      11.132      11.687      12.042    
  12.164      12.042      11.687      11.132      10.426      9.6283      8.7963      7.9821      7.2259      6.5554    
  5.9855      5.5214      5.1603      4.8948      4.7151      4.6117      4.3175      4.3804      4.5719      4.8994    
  5.3737      6.0061      6.8051      7.7730      8.9015      10.167      11.525      12.913      14.244      15.424    
  16.353      16.948      17.154      16.948      16.353      15.424      14.244      12.913      11.525      10.167    
  8.9015      7.7730      6.8051      6.0061      5.3737      4.8994      4.5719      4.3804      4.4284      4.5244    
  4.8163      5.3145      6.0348      6.9955      8.2124      9.6935      11.430      13.390      15.509      17.685    
  19.784      21.652      23.129      24.078      24.405      24.078      23.129      21.652      19.784      17.685    
  15.509      13.390      11.430      9.6935      8.2124      6.9955      6.0348      5.3145      4.8163      4.5244    
  4.8553      4.9902      5.4007      6.1038      7.1260      8.4999      10.257      12.418      14.978      17.894    
  21.069      24.353      27.538      30.383      32.640      34.094      34.596      34.094      32.640      30.383    
  27.538      24.353      21.069      17.894      14.978      12.418      10.257      8.4999      7.1260      6.1038    
  5.4007      4.9902      5.5594      5.7403      6.2925      7.2445      8.6413      10.540      12.996      16.051    
  19.707      23.904      28.507      33.293      37.957      42.139      45.467      47.615      48.357      47.615    
  45.467      42.139      37.957      33.293      28.507      23.904      19.707      16.051      12.996      10.540    
  8.6413      7.2445      6.2925      5.7403      6.5000      6.7354      7.4571      8.7105      10.568      13.120    
  16.459      20.652      25.708      31.553      37.998      44.731      51.321      57.254      61.992      65.057    
  66.119      65.057      61.992      57.254      51.321      44.731      37.998      31.553      25.708      20.652    
  16.459      13.120      10.568      8.7105      7.4571      6.7354      7.6355      7.9346      8.8548      10.464    
  12.871      16.209      20.612      26.180      32.935      40.782      49.475      58.596      67.567      75.681    
  82.188      86.411      87.876      86.411      82.188      75.681      67.567      58.596      49.475      40.782    
  32.935      26.180      20.612      16.209      12.871      10.464      8.8548      7.9346      8.9218      9.2921    
  10.436      12.448      15.477      19.708      25.320      32.451      41.136      51.261      62.521      74.389    
  86.115      96.642      104.84      109.97      111.72      109.97      104.84      96.642      86.115      74.389    
  62.521      51.261      41.136      32.451      25.320      19.708      15.477      12.448      10.436      9.2921    
  10.297      10.744      12.125      14.565      18.257      23.435      30.327      39.105      49.821      62.343    
  76.307      90.995      104.83      116.28      124.51      129.35      130.93      129.35      124.51      116.28    
  104.83      90.995      76.307      62.343      49.821      39.105      30.327      23.435      18.257      14.565    
  12.125      10.744      11.678      12.199      13.816      16.681      21.025      27.129      35.264      45.631    
  58.291      73.092      89.484      105.55      119.11      128.95      135.00      138.03      138.91      138.03    
  135.00      128.95      119.11      105.55      89.484      73.092      58.291      45.631      35.264      27.129    
  21.025      16.681      13.816      12.199      12.968      13.558      15.388      18.634      23.560      30.480    
  39.697      51.428      65.729      82.378      99.748      114.89      125.64      131.43      133.27      133.12    
  132.83      133.12      133.27      131.43      125.64      114.89      99.748      82.378      65.729      51.428    
  39.697      30.480      23.560      18.634      15.388      13.558      14.076      14.720      16.719      20.263    
  25.638      33.179      43.201      55.920      71.365      88.890      105.53      117.95      124.19      124.45    
  120.94      116.90      115.18      116.90      120.94      124.45      124.19      117.95      105.53      88.890    
  71.365      55.920      43.201      33.179      25.638      20.263      16.719      14.720      14.917      15.595    
  17.699      21.426      27.071      34.975      45.448      58.685      74.660      92.005      106.97      116.06    
  117.60      112.48      103.94      96.323      93.306      96.323      103.94      112.48      117.60      116.06    
  106.97      92.005      74.660      58.685      45.448      34.975      27.071      21.426      17.699      15.595    
  15.419      16.108      18.244      22.024      27.742      35.728      46.276      59.550      75.446      92.083    
  105.43      112.00      110.35      101.81      90.192      80.428      76.641      80.428      90.192      101.81    
  110.35      112.00      105.43      92.083      75.446      59.550      46.276      35.728      27.742      22.024    
  18.244      16.108      15.546      16.223      18.320      22.028      27.628      35.434      45.720      58.620    
  74.000      89.951      102.54      108.45      106.35      97.619      86.010      76.335      72.593      76.335    
  86.010      97.619      106.35      108.45      102.54      89.951      74.000      58.620      45.720      35.434    
  27.628      22.028      18.320      16.223      15.314      15.959      17.957      21.485      26.809      34.224    
  43.984      56.215      70.819      86.334      99.273      106.59      106.96      101.41      93.008      85.720    
  82.863      85.720      93.008      101.41      106.96      106.59      99.273      86.334      70.819      56.215    
  43.984      34.224      26.809      21.485      17.957      15.959      14.780      15.379      17.233      20.506    
  25.443      32.322      41.385      52.766      66.426      81.603      95.593      105.70      110.52      110.45    
  107.40      104.05      102.65      104.05      107.40      110.45      110.52      105.70      95.593      81.603    
  66.426      52.766      41.385      32.322      25.443      20.506      17.233      15.379      14.030      14.574    
  16.260      19.236      23.728      29.996      38.277      48.727      61.365      75.951      90.923      104.00    
  113.65      119.54      122.35      123.29      123.46      123.29      122.35      119.54      113.65      104.00    
  90.923      75.951      61.365      48.727      38.277      29.996      23.728      19.236      16.260      14.574    
  13.166      13.655      15.167      17.839      21.875      27.520      35.010      44.525      56.141      69.786    
  84.963      100.05      113.45      124.15      131.75      136.23      137.70      136.23      131.75      124.15    
  113.45      100.05      84.963      69.786      56.141      44.525      35.010      27.520      21.875      17.839    
  15.167      13.655      12.303      12.739      14.088      16.473      20.082      25.147      31.904      40.551    
  51.205      63.856      78.300      93.871      109.11      122.57      133.09      139.78      142.07      139.78    
  133.09      122.57      109.11      93.871      78.300      63.856      51.205      40.551      31.904      25.147    
  20.082      16.473      14.088      12.739      11.539      11.929      13.137      15.275      18.519      23.091    
  29.226      37.137      46.963      58.719      72.226      87.019      102.22      116.39      127.92      135.46    
  138.09      135.46      127.92      116.39      102.22      87.019      72.226      58.719      46.963      37.137    
  29.226      23.091      18.519      15.275      13.137      11.929      10.944      11.299      12.399      14.348    
  17.314      21.512      27.180      34.537      43.732      54.783      67.507      81.431      95.725      109.19    
  120.36      127.78      130.39      127.78      120.36      109.19      95.725      81.431      67.507      54.783    
  43.732      34.537      27.180      21.512      17.314      14.348      12.399      11.299      10.564      10.897    
  11.930      13.761      16.554      20.521      25.902      32.919      41.722      52.328      64.537      77.864    
  91.484      104.24      114.77      121.75      124.20      121.75      114.77      104.24      91.484      77.864    
  64.537      52.328      41.722      32.919      25.902      20.521      16.554      13.761      11.930      10.897    
  10.434      10.759      11.768      13.560      16.294      20.184      25.468      32.370      41.042      51.495    
  63.525      76.641      90.018      102.52      112.82      119.63      122.01      119.63      112.82      102.52    
  90.018      76.641      63.525      51.495      41.042      32.370      25.468      20.184      16.294      13.560    
  11.768      10.759      10.564      10.897      11.930      13.761      16.554      20.521      25.902      32.919    
  41.722      52.328      64.537      77.864      91.484      104.24      114.77      121.75      124.20      121.75    
  114.77      104.24      91.484      77.864      64.537      52.328      41.722      32.919      25.902      20.521    
  16.554      13.761      11.930      10.897      10.944      11.299      12.399      14.348      17.314      21.512    
  27.180      34.537      43.732      54.783      67.507      81.431      95.725      109.19      120.36      127.78    
  130.39      127.78      120.36      109.19      95.725      81.431      67.507      54.783      43.732      34.537    
  27.180      21.512      17.314      14.348      12.399      11.299      11.539      11.929      13.137      15.275    
  18.519      23.091      29.226      37.137      46.963      58.719      72.226      87.019      102.22      116.39    
  127.92      135.46      138.09      135.46      127.92      116.39      102.22      87.019      72.226      58.719    
  46.963      37.137      29.226      23.091      18.519      15.275      13.137      11.929      12.303      12.739    
  14.088      16.473      20.082      25.147      31.904      40.551      51.205      63.856      78.300      93.871    
  109.11      122.57      133.09      139.78      142.07      139.78      133.09      122.57      109.11      93.871    
  78.300      63.856      51.205      40.551      31.904      25.147      20.082      16.473      14.088      12.739    
  13.166      13.655      15.167      17.839      21.875      27.520      35.010      44.525      56.141      69.786    
  84.963      100.05      113.45      124.15      131.75      136.23      137.70      136.23      131.75      124.15    
  113.45      100.05      84.963      69.786      56.141      44.525      35.010      27.520      21.875      17.839    
  15.167      13.655      14.030      14.574      16.260      19.236      23.728      29.996      38.277      48.727    
  61.365      75.951      90.923      104.00      113.65      119.54      122.35      123.29      123.46      123.29    
  122.35      119.54      113.65      104.00      90.923      75.951      61.365      48.727      38.277      29.996    
  23.728      19.236      16.260      14.574      14.780      15.379      17.233      20.506      25.443      32.322    
  41.385      52.766      66.426      81.603      95.593      105.70      110.52      110.45      107.40      104.05    
  102.65      104.05      107.40      110.45      110.52      105.70      95.593      81.603      66.426      52.766    
  41.385      32.322      25.443      20.506      17.233      15.379      15.314      15.959      17.957      21.485    
  26.809      34.224      43.984      56.215      70.819      86.334      99.273      106.59      106.96      101.41    
  93.008      85.720      82.863      85.720      93.008      101.41      106.96      106.59      99.273      86.334    
  70.819      56.215      43.984      34.224      26.809      21.485      17.957      15.959      15.546      16.223    
  18.320      22.028      27.628      35.434      45.720      58.620      74.000      89.951      102.54      108.45    
  106.35      97.619      86.010      76.335      72.593      76.335      86.010      97.619      106.35      108.45    
  102.54      89.951      74.000      58.620      45.720      35.434      27.628      22.028      18.320      16.223    
  15.419      16.108      18.244      22.024      27.742      35.728      46.276      59.550      75.446      92.083    
  105.43      112.00      110.35      101.81      90.192      80.428      76.641      80.428      90.192      101.81    
  110.35      112.00      105.43      92.083      75.446      59.550      46.276      35.728      27.742      22.024    
  18.244      16.108      14.917      15.595      17.699      21.426      27.071      34.975      45.448      58.685    
  74.660      92.005      106.97      116.06      117.60      112.48      103.94      96.323      93.306      96.323    
  103.94      112.48      117.60      116.06      106.97      92.005      74.660      58.685      45.448      34.975    
  27.071      21.426      17.699      15.595      14.076      14.720      16.719      20.263      25.638      33.179    
  43.201      55.920      71.365      88.890      105.53      117.95      124.19      124.45      120.94      116.90    
  115.18      116.90      120.94      124.45      124.19      117.95      105.53      88.890      71.365      55.920    
  43.201      33.179      25.638      20.263      16.719      14.720      12.968      13.558      15.388      18.634    
  23.560      30.480      39.697      51.428      65.729      82.378      99.748      114.89      125.64      131.43    
  133.27      133.12      132.83      133.12      133.27      131.43      125.64      114.89      99.748      82.378    
  65.729      51.428      39.697      30.480      23.560      18.634      15.388      13.558      11.678      12.199    
  13.816      16.681      21.025      27.129      35.264      45.631      58.291      73.092      89.484      105.55    
  119.11      128.95      135.00      138.03      138.91      138.03      135.00      128.95      119.11      105.55    
  89.484      73.092      58.291      45.631      35.264      27.129      21.025      16.681      13.816      12.199    
  10.297      10.744      12.125      14.565      18.257      23.435      30.327      39.105      49.821      62.343    
  76.307      90.995      104.83      116.28      124.51      129.35      130.93      129.35      124.51      116.28    
  104.83      90.995      76.307      62.343      49.821      39.105      30.327      23.435      18.257      14.565    
  12.125      10.744      8.9218      9.2921      10.436      12.448      15.477      19.708      25.320      32.451    
  41.136      51.261      62.521      74.389      86.115      96.642      104.84      109.97      111.72      109.97    
  104.84      96.642      86.115      74.389      62.521      51.261      41.136      32.451      25.320      19.708    
  15.477      12.448      10.436      9.2921      7.6355      7.9346      8.8548      10.464      12.871      16.209    
  20.612      26.180      32.935      40.782      49.475      58.596      67.567      75.681      82.188      86.411    
  87.876      86.411      82.188      75.681      67.567      58.596      49.475      40.782      32.935      26.180    
  20.612      16.209      12.871      10.464      8.8548      7.9346      6.5000      6.7354      7.4571      8.7105    
  10.568      13.120      16.459      20.652      25.708      31.553      37.998      44.731      51.321      57.254    
  61.992      65.057      66.119      65.057      61.992      57.254      51.321      44.731      37.998      31.553    
  25.708      20.652      16.459      13.120      10.568      8.7105      7.4571      6.7354      5.5594      5.7403    
  6.2925      7.2445      8.6413      10.540      12.996      16.051      19.707      23.904      28.507      33.293    
  37.957      42.139      45.467      47.615      48.357      47.615      45.467      42.139      37.957      33.293    
  28.507      23.904      19.707      16.051      12.996      10.540      8.6413      7.2445      6.2925      5.7403    
  4.8553      4.9902      5.4007      6.1038      7.1260      8.4999      10.257      12.418      14.978      17.894    
  21.069      24.353      27.538      30.383      32.640      34.094      34.596      34.094      32.640      30.383    
  27.538      24.353      21.069      17.894      14.978      12.418      10.257      8.4999      7.1260      6.1038    
  5.4007      4.9902      4.4284      4.5244      4.8163      5.3145      6.0348      6.9955      8.2124      9.6935    
  11.430      13.390      15.509      17.685      19.784      21.652      23.129      24.078      24.405      24.078    
  23.129      21.652      19.784      17.685      15.509      13.390      11.430      9.6935      8.2124      6.9955    
  6.0348      5.3145      4.8163      4.5244      4.3175      4.3804      4.5719      4.8994      5.3737      6.0061    
  6.8051      7.7730      8.9015      10.167      11.525      12.913      14.244      15.424      16.353      16.948    
  17.154      16.948      16.353      15.424      14.244      12.913      11.525      10.167      8.9015      7.7730    
  6.8051      6.0061      5.3737      4.8994      4.5719      4.3804      4.5781      4.6117      4.7151      4.8948    
  5.1603      5.5214      5.9855      6.5554      7.2259      7.9821      8.7963      9.6283      10.426      11.132    
  11.687      12.042      12.164      12.042      11.687      11.132      10.426      9.6283      8.7963      7.9821    
  7.2259      6.5554      5.9855      5.5214      5.1603      4.8948      4.7151      4.6117      5.3053      5.3106    
  5.3294      5.3693      5.4416      5.5589      5.7325      5.9701      6.2732      6.6358      7.0431      7.4718    
  7.8912      8.2669      8.5649      8.7565      8.8226      8.7565      8.5649      8.2669      7.8912      7.4718    
  7.0431      6.6358      6.2732      5.9701      5.7325      5.5589      5.4416      5.3693      5.3294      5.3106    
  6.6470      6.6209      6.5466      6.4355      6.3046      6.1741      6.0636      5.9900      5.9642      5.9900    
  6.0636      6.1741      6.3046      6.4355      6.5466      6.6209      6.6470      6.6209      6.5466      6.4355    
  6.3046      6.1741      6.0636      5.9900      5.9642      5.9900      6.0636      6.1741      6.3046      6.4355    
  6.5466      6.6209      8.8226      8.7565      8.5649      8.2669      7.8912      7.4718      7.0431      6.6358    