P                                       
   1.00000000000000     
     3.304660    0.000000    0.000000
     0.000000   11.316940    0.000000
     0.000000    0.000000    4.573270
   P 
     8
Direct
  0.000000  0.093570  0.087190
  0.000000  0.906430  0.912810
  0.000000  0.406430  0.587190
  0.000000  0.593570  0.412810
  0.500000  0.593570  0.087190
  0.500000  0.406430  0.912810
  0.500000  0.906430  0.587190
  0.500000  0.093570  0.412810
 
   32  100   40
 0.12201311599E+03 0.11962728505E+03 0.11281602341E+03 0.10251903859E+03 0.90018148218E+02
 0.76641053261E+02 0.63525432471E+02 0.51495397134E+02 0.41042314075E+02 0.32370358344E+02
 0.25468205389E+02 0.20184080666E+02 0.16294229896E+02 0.13559785311E+02 0.11768348858E+02
 0.10759021890E+02 0.10433519879E+02 0.10759021890E+02 0.11768348858E+02 0.13559785311E+02
 0.16294229896E+02 0.20184080666E+02 0.25468205389E+02 0.32370358344E+02 0.41042314075E+02
 0.51495397134E+02 0.63525432471E+02 0.76641053261E+02 0.90018148218E+02 0.10251903859E+03
 0.11281602341E+03 0.11962728505E+03 0.12419890134E+03 0.12175195016E+03 0.11477292103E+03
 0.10424090901E+03 0.91483522060E+02 0.77863833304E+02 0.64536707789E+02 0.52327815225E+02
 0.41722483835E+02 0.32918677037E+02 0.25902185178E+02 0.20521404019E+02 0.16553781637E+02
 0.13760912840E+02 0.11929570494E+02 0.10897267388E+02 0.10564292579E+02 0.10897267388E+02
 0.11929570494E+02 0.13760912840E+02 0.16553781637E+02 0.20521404019E+02 0.25902185178E+02
 0.32918677037E+02 0.41722483835E+02 0.52327815225E+02 0.64536707789E+02 0.77863833304E+02
 0.91483522060E+02 0.10424090901E+03 0.11477292103E+03 0.12175195016E+03 0.13038516811E+03
 0.12778212106E+03 0.12035953613E+03 0.10918688276E+03 0.95724882047E+02 0.81431499967E+02
 0.67507312587E+02 0.54783402089E+02 0.43731707746E+02 0.34536955746E+02 0.27180126384E+02
 0.21511887786E+02 0.17313580597E+02 0.14347861809E+02 0.12398663850E+02 0.11298562378E+02
 0.10943542485E+02 0.11298562378E+02 0.12398663850E+02 0.14347861809E+02 0.17313580597E+02
 0.21511887786E+02 0.27180126384E+02 0.34536955746E+02 0.43731707746E+02 0.54783402089E+02
 0.67507312587E+02 0.81431499967E+02 0.95724882047E+02 0.10918688276E+03 0.12035953613E+03
 0.12778212106E+03 0.13808515605E+03 0.13545968504E+03 0.12791630698E+03 0.11638537547E+03
 0.10222451066E+03 0.87019289665E+02 0.72225896978E+02 0.58718709484E+02 0.46962556225E+02
 0.37136835723E+02 0.29226282627E+02 0.23090820839E+02 0.18519334134E+02 0.15275435057E+02
 0.13137334269E+02 0.11928839105E+02 0.11538614531E+02 0.11928839105E+02 0.13137334269E+02
 0.15275435057E+02 0.18519334134E+02 0.23090820839E+02 0.29226282627E+02 0.37136835723E+02
 0.46962556225E+02 0.58718709484E+02 0.72225896978E+02 0.87019289665E+02 0.10222451066E+03
 0.11638537547E+03 0.12791630698E+03 0.13545968504E+03 0.14206842424E+03 0.13977543524E+03
 0.13309066772E+03 0.12257426135E+03 0.10910881369E+03 0.93870567650E+02 0.78300276651E+02
 0.63856055088E+02 0.51205418013E+02 0.40551148802E+02 0.31904286845E+02 0.25147497155E+02
 0.20082415534E+02 0.16473012759E+02 0.14088155741E+02 0.12738657030E+02 0.12302734072E+02
 0.12738657030E+02 0.14088155741E+02 0.16473012759E+02 0.20082415534E+02 0.25147497155E+02
 0.31904286845E+02 0.40551148802E+02 0.51205418013E+02 0.63856055088E+02 0.78300276651E+02
 0.93870567650E+02 0.10910881369E+03 0.12257426135E+03 0.13309066772E+03 0.13977543524E+03
 0.13769787844E+03 0.13622512710E+03 0.13174648244E+03 0.12414705308E+03 0.11344541764E+03
 0.10004987028E+03 0.84963241031E+02 0.69785956267E+02 0.56140843376E+02 0.44525173364E+02
 0.35010394319E+02 0.27520150889E+02 0.21875054477E+02 0.17838763497E+02 0.15167303297E+02
 0.13654707419E+02 0.13166043585E+02 0.13654707419E+02 0.15167303297E+02 0.17838763497E+02
 0.21875054477E+02 0.27520150889E+02 0.35010394319E+02 0.44525173364E+02 0.56140843376E+02
 0.69785956267E+02 0.84963241031E+02 0.10004987028E+03 0.11344541764E+03 0.12414705308E+03
 0.13174648244E+03 0.13622512710E+03 0.12345552768E+03 0.12328656603E+03 0.12234712715E+03
 0.11954303323E+03 0.11365422984E+03 0.10399544227E+03 0.90923339084E+02 0.75951297287E+02
 0.61365137660E+02 0.48726638380E+02 0.38276689406E+02 0.29995993802E+02 0.23728419811E+02
 0.19236146030E+02 0.16259730106E+02 0.14574068960E+02 0.14029524172E+02 0.14574068960E+02
 0.16259730106E+02 0.19236146030E+02 0.23728419811E+02 0.29995993802E+02 0.38276689406E+02
 0.48726638380E+02 0.61365137660E+02 0.75951297287E+02 0.90923339084E+02 0.10399544227E+03
 0.11365422984E+03 0.11954303323E+03 0.12234712715E+03 0.12328656603E+03 0.10264752385E+03
 0.10405467604E+03 0.10740286592E+03 0.11044578291E+03 0.11052356088E+03 0.10569845650E+03
 0.95593279653E+02 0.81603428151E+02 0.66426314601E+02 0.52766447365E+02 0.41384676264E+02
 0.32322027477E+02 0.25443189255E+02 0.20505650874E+02 0.17232552096E+02 0.15378917520E+02
 0.14780203717E+02 0.15378917520E+02 0.17232552096E+02 0.20505650874E+02 0.25443189255E+02
 0.32322027477E+02 0.41384676264E+02 0.52766447365E+02 0.66426314601E+02 0.81603428151E+02
 0.95593279653E+02 0.10569845650E+03 0.11052356088E+03 0.11044578291E+03 0.10740286592E+03
 0.10405467604E+03 0.82863149937E+02 0.85720127370E+02 0.93007816301E+02 0.10141385557E+03
 0.10696085326E+03 0.10658567392E+03 0.99272628419E+02 0.86333712711E+02 0.70818956042E+02
 0.56215208304E+02 0.43984105936E+02 0.34224266240E+02 0.26809090843E+02 0.21485167853E+02
 0.17956532059E+02 0.15958935340E+02 0.15313919374E+02 0.15958935340E+02 0.17956532059E+02
 0.21485167853E+02 0.26809090843E+02 0.34224266240E+02 0.43984105936E+02 0.56215208304E+02
 0.70818956042E+02 0.86333712711E+02 0.99272628419E+02 0.10658567392E+03 0.10696085326E+03
 0.10141385557E+03 0.93007816301E+02 0.85720127370E+02 0.72593145700E+02 0.76334699641E+02
 0.86009888543E+02 0.97618886481E+02 0.10634851421E+03 0.10844617353E+03 0.10254046625E+03
 0.89950812222E+02 0.74000176838E+02 0.58620138669E+02 0.45719508232E+02 0.35434213957E+02
 0.27627647636E+02 0.22028224509E+02 0.18320404261E+02 0.16223026618E+02 0.15546119806E+02
 0.16223026618E+02 0.18320404261E+02 0.22028224509E+02 0.27627647636E+02 0.35434213957E+02
 0.45719508232E+02 0.58620138669E+02 0.74000176838E+02 0.89950812222E+02 0.10254046625E+03
 0.10844617353E+03 0.10634851421E+03 0.97618886481E+02 0.86009888543E+02 0.76334699641E+02
 0.76640657625E+02 0.80428330014E+02 0.90192036006E+02 0.10181102426E+03 0.11034879946E+03
 0.11199629376E+03 0.10542566963E+03 0.92082998704E+02 0.75445753347E+02 0.59550092454E+02
 0.46276395102E+02 0.35727923949E+02 0.27741736146E+02 0.22024484192E+02 0.18244159541E+02
 0.16108013118E+02 0.15418991363E+02 0.16108013118E+02 0.18244159541E+02 0.22024484192E+02
 0.27741736146E+02 0.35727923949E+02 0.46276395102E+02 0.59550092454E+02 0.75445753347E+02
 0.92082998704E+02 0.10542566963E+03 0.11199629376E+03 0.11034879946E+03 0.10181102426E+03
 0.90192036006E+02 0.80428330014E+02 0.93305696621E+02 0.96322786825E+02 0.10394040619E+03
 0.11248176038E+03 0.11759854474E+03 0.11605705606E+03 0.10696670115E+03 0.92004699779E+02
 0.74660155802E+02 0.58684938865E+02 0.45448496144E+02 0.34975276626E+02 0.27071330232E+02
 0.21425935696E+02 0.17699080276E+02 0.15595317245E+02 0.14917091582E+02 0.15595317245E+02
 0.17699080276E+02 0.21425935696E+02 0.27071330232E+02 0.34975276626E+02 0.45448496144E+02
 0.58684938865E+02 0.74660155802E+02 0.92004699779E+02 0.10696670115E+03 0.11605705606E+03
 0.11759854474E+03 0.11248176038E+03 0.10394040619E+03 0.96322786825E+02 0.11518415188E+03
 0.11690138482E+03 0.12093603381E+03 0.12445261973E+03 0.12419447036E+03 0.11794975508E+03
 0.10553206396E+03 0.88889845957E+02 0.71364933472E+02 0.55920328712E+02 0.43201314446E+02
 0.33178884347E+02 0.25637802413E+02 0.20262798694E+02 0.16719147434E+02 0.14720281081E+02
 0.14076078367E+02 0.14720281081E+02 0.16719147434E+02 0.20262798694E+02 0.25637802413E+02
 0.33178884347E+02 0.43201314446E+02 0.55920328712E+02 0.71364933472E+02 0.88889845957E+02
 0.10553206396E+03 0.11794975508E+03 0.12419447036E+03 0.12445261973E+03 0.12093603381E+03
 0.11690138482E+03 0.13282781204E+03 0.13312244083E+03 0.13326702309E+03 0.13142852698E+03
 0.12564364088E+03 0.11488882609E+03 0.99748106523E+02 0.82378160099E+02 0.65728607515E+02
 0.51427968774E+02 0.39696844941E+02 0.30480021686E+02 0.23559771783E+02 0.18633817972E+02
 0.15388237964E+02 0.13557757654E+02 0.12967797958E+02 0.13557757654E+02 0.15388237964E+02
 0.18633817972E+02 0.23559771783E+02 0.30480021686E+02 0.39696844941E+02 0.51427968774E+02
 0.65728607515E+02 0.82378160099E+02 0.99748106523E+02 0.11488882609E+03 0.12564364088E+03
 0.13142852698E+03 0.13326702309E+03 0.13312244083E+03 0.13891102841E+03 0.13802855599E+03
 0.13500103222E+03 0.12894546844E+03 0.11911096345E+03 0.10555300774E+03 0.89484252803E+02
 0.73091880802E+02 0.58290555278E+02 0.45631104150E+02 0.35263878234E+02 0.27129008539E+02
 0.21025410140E+02 0.16680731574E+02 0.13816286790E+02 0.12199275197E+02 0.11677771498E+02
 0.12199275197E+02 0.13816286790E+02 0.16680731574E+02 0.21025410140E+02 0.27129008539E+02
 0.35263878234E+02 0.45631104150E+02 0.58290555278E+02 0.73091880802E+02 0.89484252803E+02
 0.10555300774E+03 0.11911096345E+03 0.12894546844E+03 0.13500103222E+03 0.13802855599E+03
 0.13093088425E+03 0.12934878999E+03 0.12450877989E+03 0.11627725426E+03 0.10483213373E+03
 0.90994708706E+02 0.76307049648E+02 0.62342638707E+02 0.49820707797E+02 0.39105433835E+02
 0.30326915252E+02 0.23434647000E+02 0.18257440989E+02 0.14565099347E+02 0.12124607126E+02
 0.10743515035E+02 0.10297406170E+02 0.10743515035E+02 0.12124607126E+02 0.14565099347E+02
 0.18257440989E+02 0.23434647000E+02 0.30326915252E+02 0.39105433835E+02 0.49820707797E+02
 0.62342638707E+02 0.76307049648E+02 0.90994708706E+02 0.10483213373E+03 0.11627725426E+03
 0.12450877989E+03 0.12934878999E+03 0.11171554019E+03 0.10997241220E+03 0.10483505535E+03
 0.96642464950E+02 0.86114634130E+02 0.74389045784E+02 0.62521005075E+02 0.51261053230E+02
 0.41135679058E+02 0.32450876575E+02 0.25320230082E+02 0.19707531749E+02 0.15477408369E+02
 0.12447651351E+02 0.10435567113E+02 0.92920595345E+01 0.89217507999E+01 0.92920595345E+01
 0.10435567113E+02 0.12447651351E+02 0.15477408369E+02 0.19707531749E+02 0.25320230082E+02
 0.32450876575E+02 0.41135679058E+02 0.51261053230E+02 0.62521005075E+02 0.74389045784E+02
 0.86114634130E+02 0.96642464950E+02 0.10483505535E+03 0.10997241220E+03 0.87875913470E+02
 0.86411246901E+02 0.82187858581E+02 0.75680859225E+02 0.67567060682E+02 0.58596392082E+02
 0.49474628553E+02 0.40782296100E+02 0.32935350152E+02 0.26180212839E+02 0.20612285782E+02
 0.16209106669E+02 0.12871293587E+02 0.10464402481E+02 0.88547646894E+01 0.79345589732E+01
 0.76355444197E+01 0.79345589732E+01 0.88547646894E+01 0.10464402481E+02 0.12871293587E+02
 0.16209106669E+02 0.20612285782E+02 0.26180212839E+02 0.32935350152E+02 0.40782296100E+02
 0.49474628553E+02 0.58596392082E+02 0.67567060682E+02 0.75680859225E+02 0.82187858581E+02
 0.86411246901E+02 0.66118994781E+02 0.65057473194E+02 0.61991779203E+02 0.57253537054E+02
 0.51320658611E+02 0.44730683776E+02 0.37998078958E+02 0.31552983342E+02 0.25708099696E+02
 0.20651553244E+02 0.16459353259E+02 0.13120477282E+02 0.10568055331E+02 0.87104761065E+01
 0.74570905156E+01 0.67354198734E+01 0.64999818161E+01 0.67354198734E+01 0.74570905156E+01
 0.87104761065E+01 0.10568055331E+02 0.13120477282E+02 0.16459353259E+02 0.20651553244E+02
 0.25708099696E+02 0.31552983342E+02 0.37998078958E+02 0.44730683776E+02 0.51320658611E+02
 0.57253537054E+02 0.61991779203E+02 0.65057473194E+02 0.48357412559E+02 0.47614761134E+02
 0.45466970438E+02 0.42138772650E+02 0.37956926621E+02 0.33293149954E+02 0.28507451605E+02
 0.23904114334E+02 0.19706572228E+02 0.16051236402E+02 0.12996250022E+02 0.10539625898E+02
 0.86413086372E+01 0.72444652526E+01 0.62925232406E+01 0.57402649846E+01 0.55593630769E+01
 0.57402649846E+01 0.62925232406E+01 0.72444652526E+01 0.86413086372E+01 0.10539625898E+02
 0.12996250022E+02 0.16051236402E+02 0.19706572228E+02 0.23904114334E+02 0.28507451605E+02
 0.33293149954E+02 0.37956926621E+02 0.42138772650E+02 0.45466970438E+02 0.47614761134E+02
 0.34595629166E+02 0.34093589510E+02 0.32640000699E+02 0.30382624585E+02 0.27537598523E+02
 0.24352621811E+02 0.21069417945E+02 0.17893826359E+02 0.14978438996E+02 0.12418362829E+02
 0.10257330623E+02 0.84999385752E+01 0.71259749194E+01 0.61037797974E+01 0.54007463965E+01
 0.49902478617E+01 0.48553372845E+01 0.49902478617E+01 0.54007463965E+01 0.61037797974E+01
 0.71259749194E+01 0.84999385752E+01 0.10257330623E+02 0.12418362829E+02 0.14978438996E+02
 0.17893826359E+02 0.21069417945E+02 0.24352621811E+02 0.27537598523E+02 0.30382624585E+02
 0.32640000699E+02 0.34093589510E+02 0.24404941021E+02 0.24077580639E+02 0.23128656614E+02
 0.21651687513E+02 0.19784131526E+02 0.17684505714E+02 0.15508619740E+02 0.13390344822E+02
 0.11430367991E+02 0.96934708974E+01 0.82124154591E+01 0.69954616642E+01 0.60348472316E+01
 0.53145162162E+01 0.48163086606E+01 0.45244334801E+01 0.44283664270E+01 0.45244334801E+01
 0.48163086606E+01 0.53145162162E+01 0.60348472316E+01 0.69954616642E+01 0.82124154591E+01
 0.96934708974E+01 0.11430367991E+02 0.13390344822E+02 0.15508619740E+02 0.17684505714E+02
 0.19784131526E+02 0.21651687513E+02 0.23128656614E+02 0.24077580639E+02 0.17153636875E+02
 0.16948443644E+02 0.16352883261E+02 0.15423606080E+02 0.14244396196E+02 0.12912701636E+02
 0.11525340189E+02 0.10166669145E+02 0.89014713659E+01 0.77730085725E+01 0.68050591573E+01
 0.60060556731E+01 0.53737305602E+01 0.48994335589E+01 0.45718973805E+01 0.43804416660E+01
 0.43175268567E+01 0.43804416660E+01 0.45718973805E+01 0.48994335589E+01 0.53737305602E+01
 0.60060556731E+01 0.68050591573E+01 0.77730085725E+01 0.89014713659E+01 0.10166669145E+02
 0.11525340189E+02 0.12912701636E+02 0.14244396196E+02 0.15423606080E+02 0.16352883261E+02
 0.16948443644E+02 0.12164374725E+02 0.12042091110E+02 0.11686883750E+02 0.11131843896E+02
 0.10426313218E+02 0.96283289602E+01 0.87963437034E+01 0.79820834406E+01 0.72259491360E+01
 0.65553669332E+01 0.59855088578E+01 0.55213628411E+01 0.51603080878E+01 0.48947990889E+01
 0.47150636451E+01 0.46117236428E+01 0.45780843038E+01 0.46117236428E+01 0.47150636451E+01
 0.48947990889E+01 0.51603080878E+01 0.55213628411E+01 0.59855088578E+01 0.65553669332E+01
 0.72259491360E+01 0.79820834406E+01 0.87963437034E+01 0.96283289602E+01 0.10426313218E+02
 0.11131843896E+02 0.11686883750E+02 0.12042091110E+02 0.88225900662E+01 0.87564985728E+01
 0.85649172055E+01 0.82669407850E+01 0.78912370763E+01 0.74718085532E+01 0.70431469044E+01
 0.66357958126E+01 0.62731799407E+01 0.59700681354E+01 0.57325179875E+01 0.55588933674E+01
 0.54415927310E+01 0.53692685506E+01 0.53293508891E+01 0.53105921957E+01 0.53052564106E+01
 0.53105921957E+01 0.53293508891E+01 0.53692685506E+01 0.54415927310E+01 0.55588933674E+01
 0.57325179875E+01 0.59700681354E+01 0.62731799407E+01 0.66357958126E+01 0.70431469044E+01
 0.74718085532E+01 0.78912370763E+01 0.82669407850E+01 0.85649172055E+01 0.87564985728E+01
 0.66470162535E+01 0.66209147823E+01 0.65466114931E+01 0.64355063464E+01 0.63046495225E+01
 0.61740740020E+01 0.60636479818E+01 0.59900238190E+01 0.59642036512E+01 0.59900238190E+01
 0.60636479818E+01 0.61740740020E+01 0.63046495225E+01 0.64355063464E+01 0.65466114931E+01
 0.66209147823E+01 0.66470162535E+01 0.66209147823E+01 0.65466114931E+01 0.64355063464E+01
 0.63046495225E+01 0.61740740020E+01 0.60636479818E+01 0.59900238190E+01 0.59642036512E+01
 0.59900238190E+01 0.60636479818E+01 0.61740740020E+01 0.63046495225E+01 0.64355063464E+01
 0.65466114931E+01 0.66209147823E+01 0.53052564106E+01 0.53105921957E+01 0.53293508891E+01
 0.53692685506E+01 0.54415927310E+01 0.55588933674E+01 0.57325179875E+01 0.59700681354E+01
 0.62731799407E+01 0.66357958126E+01 0.70431469044E+01 0.74718085532E+01 0.78912370763E+01
 0.82669407850E+01 0.85649172055E+01 0.87564985728E+01 0.88225900662E+01 0.87564985728E+01
 0.85649172055E+01 0.82669407850E+01 0.78912370763E+01 0.74718085532E+01 0.70431469044E+01
 0.66357958126E+01 0.62731799407E+01 0.59700681354E+01 0.57325179875E+01 0.55588933674E+01
 0.54415927310E+01 0.53692685506E+01 0.53293508891E+01 0.53105921957E+01 0.45780843038E+01
 0.46117236428E+01 0.47150636451E+01 0.48947990889E+01 0.51603080878E+01 0.55213628411E+01
 0.59855088578E+01 0.65553669332E+01 0.72259491360E+01 0.79820834406E+01 0.87963437034E+01
 0.96283289602E+01 0.10426313218E+02 0.11131843896E+02 0.11686883750E+02 0.12042091110E+02
 0.12164374725E+02 0.12042091110E+02 0.11686883750E+02 0.11131843896E+02 0.10426313218E+02
 0.96283289602E+01 0.87963437034E+01 0.79820834406E+01 0.72259491360E+01 0.65553669332E+01
 0.59855088578E+01 0.55213628411E+01 0.51603080878E+01 0.48947990889E+01 0.47150636451E+01
 0.46117236428E+01 0.43175268567E+01 0.43804416660E+01 0.45718973805E+01 0.48994335589E+01
 0.53737305602E+01 0.60060556731E+01 0.68050591573E+01 0.77730085725E+01 0.89014713659E+01
 0.10166669145E+02 0.11525340189E+02 0.12912701636E+02 0.14244396196E+02 0.15423606080E+02
 0.16352883261E+02 0.16948443644E+02 0.17153636875E+02 0.16948443644E+02 0.16352883261E+02
 0.15423606080E+02 0.14244396196E+02 0.12912701636E+02 0.11525340189E+02 0.10166669145E+02
 0.89014713659E+01 0.77730085725E+01 0.68050591573E+01 0.60060556731E+01 0.53737305602E+01
 0.48994335589E+01 0.45718973805E+01 0.43804416660E+01 0.44283664270E+01 0.45244334801E+01
 0.48163086606E+01 0.53145162162E+01 0.60348472316E+01 0.69954616642E+01 0.82124154591E+01
 0.96934708974E+01 0.11430367991E+02 0.13390344822E+02 0.15508619740E+02 0.17684505714E+02
 0.19784131526E+02 0.21651687513E+02 0.23128656614E+02 0.24077580639E+02 0.24404941021E+02
 0.24077580639E+02 0.23128656614E+02 0.21651687513E+02 0.19784131526E+02 0.17684505714E+02
 0.15508619740E+02 0.13390344822E+02 0.11430367991E+02 0.96934708974E+01 0.82124154591E+01
 0.69954616642E+01 0.60348472316E+01 0.53145162162E+01 0.48163086606E+01 0.45244334801E+01
 0.48553372845E+01 0.49902478617E+01 0.54007463965E+01 0.61037797974E+01 0.71259749194E+01
 0.84999385752E+01 0.10257330623E+02 0.12418362829E+02 0.14978438996E+02 0.17893826359E+02
 0.21069417945E+02 0.24352621811E+02 0.27537598523E+02 0.30382624585E+02 0.32640000699E+02
 0.34093589510E+02 0.34595629166E+02 0.34093589510E+02 0.32640000699E+02 0.30382624585E+02
 0.27537598523E+02 0.24352621811E+02 0.21069417945E+02 0.17893826359E+02 0.14978438996E+02
 0.12418362829E+02 0.10257330623E+02 0.84999385752E+01 0.71259749194E+01 0.61037797974E+01
 0.54007463965E+01 0.49902478617E+01 0.55593630769E+01 0.57402649846E+01 0.62925232406E+01
 0.72444652526E+01 0.86413086372E+01 0.10539625898E+02 0.12996250022E+02 0.16051236402E+02
 0.19706572228E+02 0.23904114334E+02 0.28507451605E+02 0.33293149954E+02 0.37956926621E+02
 0.42138772650E+02 0.45466970438E+02 0.47614761134E+02 0.48357412559E+02 0.47614761134E+02
 0.45466970438E+02 0.42138772650E+02 0.37956926621E+02 0.33293149954E+02 0.28507451605E+02
 0.23904114334E+02 0.19706572228E+02 0.16051236402E+02 0.12996250022E+02 0.10539625898E+02
 0.86413086372E+01 0.72444652526E+01 0.62925232406E+01 0.57402649846E+01 0.64999818161E+01
 0.67354198734E+01 0.74570905156E+01 0.87104761065E+01 0.10568055331E+02 0.13120477282E+02
 0.16459353259E+02 0.20651553244E+02 0.25708099696E+02 0.31552983342E+02 0.37998078958E+02
 0.44730683776E+02 0.51320658611E+02 0.57253537054E+02 0.61991779203E+02 0.65057473194E+02
 0.66118994781E+02 0.65057473194E+02 0.61991779203E+02 0.57253537054E+02 0.51320658611E+02
 0.44730683776E+02 0.37998078958E+02 0.31552983342E+02 0.25708099696E+02 0.20651553244E+02
 0.16459353259E+02 0.13120477282E+02 0.10568055331E+02 0.87104761065E+01 0.74570905156E+01
 0.67354198734E+01 0.76355444197E+01 0.79345589732E+01 0.88547646894E+01 0.10464402481E+02
 0.12871293587E+02 0.16209106669E+02 0.20612285782E+02 0.26180212839E+02 0.32935350152E+02
 0.40782296100E+02 0.49474628553E+02 0.58596392082E+02 0.67567060682E+02 0.75680859225E+02
 0.82187858581E+02 0.86411246901E+02 0.87875913470E+02 0.86411246901E+02 0.82187858581E+02
 0.75680859225E+02 0.67567060682E+02 0.58596392082E+02 0.49474628553E+02 0.40782296100E+02
 0.32935350152E+02 0.26180212839E+02 0.20612285782E+02 0.16209106669E+02 0.12871293587E+02
 0.10464402481E+02 0.88547646894E+01 0.79345589732E+01 0.89217507999E+01 0.92920595345E+01
 0.10435567113E+02 0.12447651351E+02 0.15477408369E+02 0.19707531749E+02 0.25320230082E+02
 0.32450876575E+02 0.41135679058E+02 0.51261053230E+02 0.62521005075E+02 0.74389045784E+02
 0.86114634130E+02 0.96642464950E+02 0.10483505535E+03 0.10997241220E+03 0.11171554019E+03
 0.10997241220E+03 0.10483505535E+03 0.96642464950E+02 0.86114634130E+02 0.74389045784E+02
 0.62521005075E+02 0.51261053230E+02 0.41135679058E+02 0.32450876575E+02 0.25320230082E+02
 0.19707531749E+02 0.15477408369E+02 0.12447651351E+02 0.10435567113E+02 0.92920595345E+01
 0.10297406170E+02 0.10743515035E+02 0.12124607126E+02 0.14565099347E+02 0.18257440989E+02
 0.23434647000E+02 0.30326915252E+02 0.39105433835E+02 0.49820707797E+02 0.62342638707E+02
 0.76307049648E+02 0.90994708706E+02 0.10483213373E+03 0.11627725426E+03 0.12450877989E+03
 0.12934878999E+03 0.13093088425E+03 0.12934878999E+03 0.12450877989E+03 0.11627725426E+03
 0.10483213373E+03 0.90994708706E+02 0.76307049648E+02 0.62342638707E+02 0.49820707797E+02
 0.39105433835E+02 0.30326915252E+02 0.23434647000E+02 0.18257440989E+02 0.14565099347E+02
 0.12124607126E+02 0.10743515035E+02 0.11677771498E+02 0.12199275197E+02 0.13816286790E+02
 0.16680731574E+02 0.21025410140E+02 0.27129008539E+02 0.35263878234E+02 0.45631104150E+02
 0.58290555278E+02 0.73091880802E+02 0.89484252803E+02 0.10555300774E+03 0.11911096345E+03
 0.12894546844E+03 0.13500103222E+03 0.13802855599E+03 0.13891102841E+03 0.13802855599E+03
 0.13500103222E+03 0.12894546844E+03 0.11911096345E+03 0.10555300774E+03 0.89484252803E+02
 0.73091880802E+02 0.58290555278E+02 0.45631104150E+02 0.35263878234E+02 0.27129008539E+02
 0.21025410140E+02 0.16680731574E+02 0.13816286790E+02 0.12199275197E+02 0.12967797958E+02
 0.13557757654E+02 0.15388237964E+02 0.18633817972E+02 0.23559771783E+02 0.30480021686E+02
 0.39696844941E+02 0.51427968774E+02 0.65728607515E+02 0.82378160099E+02 0.99748106523E+02
 0.11488882609E+03 0.12564364088E+03 0.13142852698E+03 0.13326702309E+03 0.13312244083E+03
 0.13282781204E+03 0.13312244083E+03 0.13326702309E+03 0.13142852698E+03 0.12564364088E+03
 0.11488882609E+03 0.99748106523E+02 0.82378160099E+02 0.65728607515E+02 0.51427968774E+02
 0.39696844941E+02 0.30480021686E+02 0.23559771783E+02 0.18633817972E+02 0.15388237964E+02
 0.13557757654E+02 0.14076078367E+02 0.14720281081E+02 0.16719147434E+02 0.20262798694E+02
 0.25637802413E+02 0.33178884347E+02 0.43201314446E+02 0.55920328712E+02 0.71364933472E+02
 0.88889845957E+02 0.10553206396E+03 0.11794975508E+03 0.12419447036E+03 0.12445261973E+03
 0.12093603381E+03 0.11690138482E+03 0.11518415188E+03 0.11690138482E+03 0.12093603381E+03
 0.12445261973E+03 0.12419447036E+03 0.11794975508E+03 0.10553206396E+03 0.88889845957E+02
 0.71364933472E+02 0.55920328712E+02 0.43201314446E+02 0.33178884347E+02 0.25637802413E+02
 0.20262798694E+02 0.16719147434E+02 0.14720281081E+02 0.14917091582E+02 0.15595317245E+02
 0.17699080276E+02 0.21425935696E+02 0.27071330232E+02 0.34975276626E+02 0.45448496144E+02
 0.58684938865E+02 0.74660155802E+02 0.92004699779E+02 0.10696670115E+03 0.11605705606E+03
 0.11759854474E+03 0.11248176038E+03 0.10394040619E+03 0.96322786825E+02 0.93305696621E+02
 0.96322786825E+02 0.10394040619E+03 0.11248176038E+03 0.11759854474E+03 0.11605705606E+03
 0.10696670115E+03 0.92004699779E+02 0.74660155802E+02 0.58684938865E+02 0.45448496144E+02
 0.34975276626E+02 0.27071330232E+02 0.21425935696E+02 0.17699080276E+02 0.15595317245E+02
 0.15418991363E+02 0.16108013118E+02 0.18244159541E+02 0.22024484192E+02 0.27741736146E+02
 0.35727923949E+02 0.46276395102E+02 0.59550092454E+02 0.75445753347E+02 0.92082998704E+02
 0.10542566963E+03 0.11199629376E+03 0.11034879946E+03 0.10181102426E+03 0.90192036006E+02
 0.80428330014E+02 0.76640657625E+02 0.80428330014E+02 0.90192036006E+02 0.10181102426E+03
 0.11034879946E+03 0.11199629376E+03 0.10542566963E+03 0.92082998704E+02 0.75445753347E+02
 0.59550092454E+02 0.46276395102E+02 0.35727923949E+02 0.27741736146E+02 0.22024484192E+02
 0.18244159541E+02 0.16108013118E+02 0.15546119806E+02 0.16223026618E+02 0.18320404261E+02
 0.22028224509E+02 0.27627647636E+02 0.35434213957E+02 0.45719508232E+02 0.58620138669E+02
 0.74000176838E+02 0.89950812222E+02 0.10254046625E+03 0.10844617353E+03 0.10634851421E+03
 0.97618886481E+02 0.86009888543E+02 0.76334699641E+02 0.72593145700E+02 0.76334699641E+02
 0.86009888543E+02 0.97618886481E+02 0.10634851421E+03 0.10844617353E+03 0.10254046625E+03
 0.89950812222E+02 0.74000176838E+02 0.58620138669E+02 0.45719508232E+02 0.35434213957E+02
 0.27627647636E+02 0.22028224509E+02 0.18320404261E+02 0.16223026618E+02 0.15313919374E+02
 0.15958935340E+02 0.17956532059E+02 0.21485167853E+02 0.26809090843E+02 0.34224266240E+02
 0.43984105936E+02 0.56215208304E+02 0.70818956042E+02 0.86333712711E+02 0.99272628419E+02
 0.10658567392E+03 0.10696085326E+03 0.10141385557E+03 0.93007816301E+02 0.85720127370E+02
 0.82863149937E+02 0.85720127370E+02 0.93007816301E+02 0.10141385557E+03 0.10696085326E+03
 0.10658567392E+03 0.99272628419E+02 0.86333712711E+02 0.70818956042E+02 0.56215208304E+02
 0.43984105936E+02 0.34224266240E+02 0.26809090843E+02 0.21485167853E+02 0.17956532059E+02
 0.15958935340E+02 0.14780203717E+02 0.15378917520E+02 0.17232552096E+02 0.20505650874E+02
 0.25443189255E+02 0.32322027477E+02 0.41384676264E+02 0.52766447365E+02 0.66426314601E+02
 0.81603428151E+02 0.95593279653E+02 0.10569845650E+03 0.11052356088E+03 0.11044578291E+03
 0.10740286592E+03 0.10405467604E+03 0.10264752385E+03 0.10405467604E+03 0.10740286592E+03
 0.11044578291E+03 0.11052356088E+03 0.10569845650E+03 0.95593279653E+02 0.81603428151E+02
 0.66426314601E+02 0.52766447365E+02 0.41384676264E+02 0.32322027477E+02 0.25443189255E+02
 0.20505650874E+02 0.17232552096E+02 0.15378917520E+02 0.14029524172E+02 0.14574068960E+02
 0.16259730106E+02 0.19236146030E+02 0.23728419811E+02 0.29995993802E+02 0.38276689406E+02
 0.48726638380E+02 0.61365137660E+02 0.75951297287E+02 0.90923339084E+02 0.10399544227E+03
 0.11365422984E+03 0.11954303323E+03 0.12234712715E+03 0.12328656603E+03 0.12345552768E+03
 0.12328656603E+03 0.12234712715E+03 0.11954303323E+03 0.11365422984E+03 0.10399544227E+03
 0.90923339084E+02 0.75951297287E+02 0.61365137660E+02 0.48726638380E+02 0.38276689406E+02
 0.29995993802E+02 0.23728419811E+02 0.19236146030E+02 0.16259730106E+02 0.14574068960E+02
 0.13166043585E+02 0.13654707419E+02 0.15167303297E+02 0.17838763497E+02 0.21875054477E+02
 0.27520150889E+02 0.35010394319E+02 0.44525173364E+02 0.56140843376E+02 0.69785956267E+02
 0.84963241031E+02 0.10004987028E+03 0.11344541764E+03 0.12414705308E+03 0.13174648244E+03
 0.13622512710E+03 0.13769787844E+03 0.13622512710E+03 0.13174648244E+03 0.12414705308E+03
 0.11344541764E+03 0.10004987028E+03 0.84963241031E+02 0.69785956267E+02 0.56140843376E+02
 0.44525173364E+02 0.35010394319E+02 0.27520150889E+02 0.21875054477E+02 0.17838763497E+02
 0.15167303297E+02 0.13654707419E+02 0.12302734072E+02 0.12738657030E+02 0.14088155741E+02
 0.16473012759E+02 0.20082415534E+02 0.25147497155E+02 0.31904286845E+02 0.40551148802E+02
 0.51205418013E+02 0.63856055088E+02 0.78300276651E+02 0.93870567650E+02 0.10910881369E+03
 0.12257426135E+03 0.13309066772E+03 0.13977543524E+03 0.14206842424E+03 0.13977543524E+03
 0.13309066772E+03 0.12257426135E+03 0.10910881369E+03 0.93870567650E+02 0.78300276651E+02
 0.63856055088E+02 0.51205418013E+02 0.40551148802E+02 0.31904286845E+02 0.25147497155E+02
 0.20082415534E+02 0.16473012759E+02 0.14088155741E+02 0.12738657030E+02 0.11538614531E+02
 0.11928839105E+02 0.13137334269E+02 0.15275435057E+02 0.18519334134E+02 0.23090820839E+02
 0.29226282627E+02 0.37136835723E+02 0.46962556225E+02 0.58718709484E+02 0.72225896978E+02
 0.87019289665E+02 0.10222451066E+03 0.11638537547E+03 0.12791630698E+03 0.13545968504E+03
 0.13808515605E+03 0.13545968504E+03 0.12791630698E+03 0.11638537547E+03 0.10222451066E+03
 0.87019289665E+02 0.72225896978E+02 0.58718709484E+02 0.46962556225E+02 0.37136835723E+02
 0.29226282627E+02 0.23090820839E+02 0.18519334134E+02 0.15275435057E+02 0.13137334269E+02
 0.11928839105E+02 0.10943542485E+02 0.11298562378E+02 0.12398663850E+02 0.14347861809E+02
 0.17313580597E+02 0.21511887786E+02 0.27180126384E+02 0.34536955746E+02 0.43731707746E+02
 0.54783402089E+02 0.67507312587E+02 0.81431499967E+02 0.95724882047E+02 0.10918688276E+03
 0.12035953613E+03 0.12778212106E+03 0.13038516811E+03 0.12778212106E+03 0.12035953613E+03
 0.10918688276E+03 0.95724882047E+02 0.81431499967E+02 0.67507312587E+02 0.54783402089E+02
 0.43731707746E+02 0.34536955746E+02 0.27180126384E+02 0.21511887786E+02 0.17313580597E+02
 0.14347861809E+02 0.12398663850E+02 0.11298562378E+02 0.10564292579E+02 0.10897267388E+02
 0.11929570494E+02 0.13760912840E+02 0.16553781637E+02 0.20521404019E+02 0.25902185178E+02
 0.32918677037E+02 0.41722483835E+02 0.52327815225E+02 0.64536707789E+02 0.77863833304E+02
 0.91483522060E+02 0.10424090901E+03 0.11477292103E+03 0.12175195016E+03 0.12419890134E+03
 0.12175195016E+03 0.11477292103E+03 0.10424090901E+03 0.91483522060E+02 0.77863833304E+02
 0.64536707789E+02 0.52327815225E+02 0.41722483835E+02 0.32918677037E+02 0.25902185178E+02
 0.20521404019E+02 0.16553781637E+02 0.13760912840E+02 0.11929570494E+02 0.10897267388E+02
 0.10433519879E+02 0.10759021890E+02 0.11768348858E+02 0.13559785311E+02 0.16294229896E+02
 0.20184080666E+02 0.25468205389E+02 0.32370358344E+02 0.41042314075E+02 0.51495397134E+02
 0.63525432471E+02 0.76641053261E+02 0.90018148218E+02 0.10251903859E+03 0.11281602341E+03
 0.11962728505E+03 0.12201311599E+03 0.11962728505E+03 0.11281602341E+03 0.10251903859E+03