   8   8   0   0
  0.2137926E+02  0.3304660E-09  0.1131694E-08  0.4573270E-09  0.5000000E-15
  1.000000000000000E-004
  CAR 
 P                                       
     19.41901788    -11.60228013  301      5.36623845      1.00000000
    -11.602  0.0000E+00  0.0000E+00
    -11.499  0.0000E+00  0.0000E+00
    -11.395  0.0000E+00  0.0000E+00
    -11.292  0.0000E+00  0.0000E+00
    -11.189  0.0000E+00  0.0000E+00
    -11.085  0.0000E+00  0.0000E+00
    -10.982  0.0000E+00  0.0000E+00
    -10.878  0.0000E+00  0.0000E+00
    -10.775  0.0000E+00  0.0000E+00
    -10.672  0.0000E+00  0.0000E+00
    -10.568  0.0000E+00  0.0000E+00
    -10.465  0.4844E-15  0.5009E-16
    -10.361  0.8190E-07  0.8469E-08
    -10.258  0.4404E-02  0.4554E-03
    -10.155  0.2955E+00  0.3101E-01
    -10.051  0.1077E+01  0.1424E+00
     -9.948  0.1378E+01  0.2849E+00
     -9.844  0.2704E+01  0.5645E+00
     -9.741  0.1254E+01  0.6941E+00
     -9.638  0.1526E+01  0.8519E+00
     -9.534  0.9558E+00  0.9507E+00
     -9.431  0.1385E+01  0.1094E+01
     -9.327  0.2851E+01  0.1389E+01
     -9.224  0.2790E+01  0.1677E+01
     -9.121  0.1225E+01  0.1804E+01
     -9.017  0.1882E+01  0.1999E+01
     -8.914  0.6825E+00  0.2069E+01
     -8.810  0.2223E+01  0.2299E+01
     -8.707  0.2356E+01  0.2543E+01
     -8.604  0.2396E+00  0.2567E+01
     -8.500  0.1884E+01  0.2762E+01
     -8.397  0.2753E+01  0.3047E+01
     -8.293  0.4562E+01  0.3519E+01
     -8.190  0.2613E+01  0.3789E+01
     -8.087  0.6676E+00  0.3858E+01
     -7.983  0.1072E+01  0.3969E+01
     -7.880  0.3460E+01  0.4326E+01
     -7.776  0.3946E+01  0.4734E+01
     -7.673  0.1253E+01  0.4864E+01
     -7.570  0.2078E+01  0.5079E+01
     -7.466  0.3341E+01  0.5424E+01
     -7.363  0.2252E+01  0.5657E+01
     -7.259  0.3910E+01  0.6061E+01
     -7.156  0.2477E+01  0.6318E+01
     -7.052  0.4623E+01  0.6796E+01
     -6.949  0.4060E+01  0.7215E+01
     -6.846  0.1149E+01  0.7334E+01
     -6.742  0.6337E+00  0.7400E+01
     -6.639  0.1972E+01  0.7604E+01
     -6.535  0.2056E+00  0.7625E+01
     -6.432  0.2279E-01  0.7627E+01
     -6.329  0.1060E+01  0.7737E+01
     -6.225  0.1287E+01  0.7870E+01
     -6.122  0.5905E-01  0.7876E+01
     -6.018  0.7730E+00  0.7956E+01
     -5.915  0.1147E+01  0.8075E+01
     -5.812  0.4365E+00  0.8120E+01
     -5.708  0.3392E+00  0.8155E+01
     -5.605  0.1153E+01  0.8274E+01
     -5.501  0.9213E+00  0.8369E+01
     -5.398  0.5699E-01  0.8375E+01
     -5.295  0.4870E+00  0.8426E+01
     -5.191  0.1215E+01  0.8551E+01
     -5.088  0.7047E+00  0.8624E+01
     -4.984  0.8523E+00  0.8712E+01
     -4.881  0.3282E+01  0.9052E+01
     -4.778  0.5265E+01  0.9596E+01
     -4.674  0.4358E+01  0.1005E+02
     -4.571  0.2297E+01  0.1028E+02
     -4.467  0.1775E+01  0.1047E+02
     -4.364  0.4291E+01  0.1091E+02
     -4.261  0.5975E+01  0.1153E+02
     -4.157  0.3414E+01  0.1188E+02
     -4.054  0.1829E+01  0.1207E+02
     -3.950  0.1628E+01  0.1224E+02
     -3.847  0.9580E+00  0.1234E+02
     -3.744  0.2493E+01  0.1260E+02
     -3.640  0.1684E+01  0.1277E+02
     -3.537  0.1492E+01  0.1293E+02
     -3.433  0.2046E+01  0.1314E+02
     -3.330  0.2669E+01  0.1341E+02
     -3.227  0.3669E+00  0.1345E+02
     -3.123  0.1400E+01  0.1360E+02
     -3.020  0.2464E+01  0.1385E+02
     -2.916  0.2367E+01  0.1409E+02
     -2.813  0.1677E+01  0.1427E+02
     -2.710  0.1324E+01  0.1441E+02
     -2.606  0.3116E+00  0.1444E+02
     -2.503  0.1567E-02  0.1444E+02
     -2.399  0.9892E-04  0.1444E+02
     -2.296  0.2040E+00  0.1446E+02
     -2.192  0.1990E+01  0.1466E+02
     -2.089  0.2018E+01  0.1487E+02
     -1.986  0.1114E+01  0.1499E+02
     -1.882  0.6984E+00  0.1506E+02
     -1.779  0.1965E-01  0.1506E+02
     -1.675  0.2726E-01  0.1507E+02
     -1.572  0.1728E+01  0.1524E+02
     -1.469  0.6633E+00  0.1531E+02
     -1.365  0.4457E+00  0.1536E+02
     -1.262  0.2987E+01  0.1567E+02
     -1.158  0.1808E+01  0.1585E+02
     -1.055  0.1495E+01  0.1601E+02
     -0.952  0.2656E+01  0.1628E+02
     -0.848  0.4369E+01  0.1674E+02
     -0.745  0.3449E+01  0.1709E+02
     -0.641  0.5157E+01  0.1763E+02
     -0.538  0.3403E+01  0.1798E+02
     -0.435  0.3933E+01  0.1838E+02
     -0.331  0.3889E+01  0.1879E+02
     -0.228  0.4403E+01  0.1924E+02
     -0.124  0.6935E+01  0.1996E+02
     -0.021  0.7495E+01  0.2073E+02
      0.082  0.3796E+01  0.2113E+02
      0.186  0.3776E+01  0.2152E+02
      0.289  0.3288E+01  0.2186E+02
      0.393  0.2819E+01  0.2215E+02
      0.496  0.3289E+01  0.2249E+02
      0.599  0.3834E+01  0.2288E+02
      0.703  0.3370E+01  0.2323E+02
      0.806  0.1784E+01  0.2342E+02
      0.910  0.2505E+01  0.2368E+02
      1.013  0.3932E+01  0.2408E+02
      1.116  0.5533E+01  0.2466E+02
      1.220  0.6394E+01  0.2532E+02
      1.323  0.4312E+01  0.2576E+02
      1.427  0.3586E+01  0.2613E+02
      1.530  0.4691E+01  0.2662E+02
      1.633  0.6136E+01  0.2725E+02
      1.737  0.8879E+01  0.2817E+02
      1.840  0.6086E+01  0.2880E+02
      1.944  0.5195E+01  0.2934E+02
      2.047  0.4152E+01  0.2977E+02
      2.150  0.5571E+01  0.3034E+02
      2.254  0.4087E+01  0.3077E+02
      2.357  0.3010E+01  0.3108E+02
      2.461  0.1382E+01  0.3122E+02
      2.564  0.2943E+01  0.3152E+02
      2.668  0.3204E+01  0.3186E+02
      2.771  0.2476E+01  0.3211E+02
      2.874  0.3404E+01  0.3246E+02
      2.978  0.4103E+01  0.3289E+02
      3.081  0.6555E+01  0.3357E+02
      3.185  0.6118E+01  0.3420E+02
      3.288  0.5378E+01  0.3475E+02
      3.391  0.4938E+01  0.3526E+02
      3.495  0.4597E+01  0.3574E+02
      3.598  0.6386E+01  0.3640E+02
      3.702  0.7820E+01  0.3721E+02
      3.805  0.6764E+01  0.3791E+02
      3.908  0.4876E+01  0.3841E+02
      4.012  0.3117E+01  0.3873E+02
      4.115  0.2486E+01  0.3899E+02
      4.219  0.2067E+01  0.3921E+02
      4.322  0.2363E+01  0.3945E+02
      4.425  0.1996E+01  0.3966E+02
      4.529  0.9432E+00  0.3975E+02
      4.632  0.6739E+00  0.3982E+02
      4.736  0.7098E+00  0.3990E+02
      4.839  0.2105E+00  0.3992E+02
      4.942  0.1544E+00  0.3993E+02
      5.046  0.2067E+00  0.3996E+02
      5.149  0.2613E+00  0.3998E+02
      5.253  0.9807E-01  0.3999E+02
      5.356  0.6344E-01  0.4000E+02
      5.459  0.2838E-01  0.4000E+02
      5.563  0.8166E-01  0.4001E+02
      5.666  0.1339E+00  0.4003E+02
      5.770  0.2619E+00  0.4005E+02
      5.873  0.1325E+01  0.4019E+02
      5.976  0.2021E+01  0.4040E+02
      6.080  0.2731E+01  0.4068E+02
      6.183  0.4158E+01  0.4111E+02
      6.287  0.3044E+01  0.4143E+02
      6.390  0.3386E+01  0.4178E+02
      6.493  0.4954E+01  0.4229E+02
      6.597  0.3618E+01  0.4266E+02
      6.700  0.3869E+01  0.4306E+02
      6.804  0.5320E+01  0.4361E+02
      6.907  0.5448E+01  0.4418E+02
      7.010  0.5037E+01  0.4470E+02
      7.114  0.4771E+01  0.4519E+02
      7.217  0.6121E+01  0.4582E+02
      7.321  0.6144E+01  0.4646E+02
      7.424  0.6341E+01  0.4711E+02
      7.528  0.7380E+01  0.4788E+02
      7.631  0.8473E+01  0.4875E+02
      7.734  0.7132E+01  0.4949E+02
      7.838  0.6887E+01  0.5020E+02
      7.941  0.7191E+01  0.5095E+02
      8.045  0.9095E+01  0.5189E+02
      8.148  0.7260E+01  0.5264E+02
      8.251  0.5322E+01  0.5319E+02
      8.355  0.5760E+01  0.5378E+02
      8.458  0.6279E+01  0.5443E+02
      8.562  0.5681E+01  0.5502E+02
      8.665  0.5673E+01  0.5561E+02
      8.768  0.7279E+01  0.5636E+02
      8.872  0.4922E+01  0.5687E+02
      8.975  0.4446E+01  0.5733E+02
      9.079  0.3358E+01  0.5767E+02
      9.182  0.3890E+01  0.5808E+02
      9.285  0.1942E+01  0.5828E+02
      9.389  0.2786E+01  0.5857E+02
      9.492  0.3671E+01  0.5895E+02
      9.596  0.3719E+01  0.5933E+02
      9.699  0.3110E+01  0.5965E+02
      9.802  0.3097E+01  0.5997E+02
      9.906  0.4149E+01  0.6040E+02
     10.009  0.4260E+01  0.6084E+02
     10.113  0.5805E+01  0.6144E+02
     10.216  0.4010E+01  0.6186E+02
     10.319  0.4620E+01  0.6233E+02
     10.423  0.4021E+01  0.6275E+02
     10.526  0.2877E+01  0.6305E+02
     10.630  0.2482E+01  0.6330E+02
     10.733  0.1990E+01  0.6351E+02
     10.836  0.2971E+01  0.6382E+02
     10.940  0.5990E+01  0.6444E+02
     11.043  0.5584E+01  0.6501E+02
     11.147  0.5315E+01  0.6556E+02
     11.250  0.3905E+01  0.6597E+02
     11.353  0.4100E+01  0.6639E+02
     11.457  0.5652E+01  0.6698E+02
     11.560  0.7412E+01  0.6774E+02
     11.664  0.6956E+01  0.6846E+02
     11.767  0.6434E+01  0.6913E+02
     11.871  0.5907E+01  0.6974E+02
     11.974  0.6371E+01  0.7040E+02
     12.077  0.5803E+01  0.7100E+02
     12.181  0.5111E+01  0.7153E+02
     12.284  0.3421E+01  0.7188E+02
     12.388  0.2397E+01  0.7213E+02
     12.491  0.3434E+01  0.7248E+02
     12.594  0.4990E+01  0.7300E+02
     12.698  0.5805E+01  0.7360E+02
     12.801  0.6424E+01  0.7426E+02
     12.905  0.6422E+01  0.7493E+02
     13.008  0.7215E+01  0.7567E+02
     13.111  0.6591E+01  0.7635E+02
     13.215  0.5719E+01  0.7695E+02
     13.318  0.5299E+01  0.7749E+02
     13.422  0.4600E+01  0.7797E+02
     13.525  0.3474E+01  0.7833E+02
     13.628  0.2572E+01  0.7859E+02
     13.732  0.3743E+01  0.7898E+02
     13.835  0.3765E+01  0.7937E+02
     13.939  0.5603E+01  0.7995E+02
     14.042  0.5109E+01  0.8048E+02
     14.145  0.5017E+01  0.8100E+02
     14.249  0.6414E+01  0.8166E+02
     14.352  0.5690E+01  0.8225E+02
     14.456  0.5473E+01  0.8281E+02
     14.559  0.3140E+01  0.8314E+02
     14.662  0.3989E+01  0.8355E+02
     14.766  0.4098E+01  0.8398E+02
     14.869  0.3717E+01  0.8436E+02
     14.973  0.6188E+01  0.8500E+02
     15.076  0.5753E+01  0.8559E+02
     15.179  0.5000E+01  0.8611E+02
     15.283  0.3868E+01  0.8651E+02
     15.386  0.4023E+01  0.8693E+02
     15.490  0.5167E+01  0.8746E+02
     15.593  0.5642E+01  0.8805E+02
     15.696  0.5153E+01  0.8858E+02
     15.800  0.5777E+01  0.8918E+02
     15.903  0.6082E+01  0.8980E+02
     16.007  0.7911E+01  0.9062E+02
     16.110  0.6122E+01  0.9126E+02
     16.213  0.5493E+01  0.9182E+02
     16.317  0.6268E+01  0.9247E+02
     16.420  0.6144E+01  0.9311E+02
     16.524  0.5831E+01  0.9371E+02
     16.627  0.4254E+01  0.9415E+02
     16.731  0.4628E+01  0.9463E+02
     16.834  0.2731E+01  0.9491E+02
     16.937  0.2836E+01  0.9520E+02
     17.041  0.1989E+01  0.9541E+02
     17.144  0.1224E+01  0.9554E+02
     17.248  0.5929E+00  0.9560E+02
     17.351  0.5670E+00  0.9566E+02
     17.454  0.5898E+00  0.9572E+02
     17.558  0.3109E+00  0.9575E+02
     17.661  0.4741E+00  0.9580E+02
     17.765  0.4584E+00  0.9585E+02
     17.868  0.6620E+00  0.9591E+02
     17.971  0.5149E+00  0.9597E+02
     18.075  0.3117E+00  0.9600E+02
     18.178  0.6181E-02  0.9600E+02
     18.282  0.1382E-06  0.9600E+02
     18.385  0.9227E-15  0.9600E+02
     18.488  0.0000E+00  0.9600E+02
     18.592  0.0000E+00  0.9600E+02
     18.695  0.0000E+00  0.9600E+02
     18.799  0.0000E+00  0.9600E+02
     18.902  0.0000E+00  0.9600E+02
     19.005  0.0000E+00  0.9600E+02
     19.109  0.0000E+00  0.9600E+02
     19.212  0.0000E+00  0.9600E+02
     19.316  0.0000E+00  0.9600E+02
     19.419  0.0000E+00  0.9600E+02
