       N       E                     dE             d eps       ncg     rms          rms(c)
DAV:   1    -0.429738975951E+02   -0.42974E+02   -0.31086E-05 11616   0.180E-02    0.428E-03
DAV:   2    -0.429738971739E+02    0.42116E-06   -0.11760E-06 10320   0.315E-03
   1 F= -.42973897E+02 E0= -.42973892E+02  d E =-.952364E-05
       N       E                     dE             ncg
DAV:   1     0.377950551681E+04   -0.74937E+05    12000
DAV:   2    -0.644483066060E+04   -0.10224E+05    18192
DAV:   3    -0.657244588865E+04   -0.12762E+03    13776
DAV:   4    -0.657293733944E+04   -0.49145E+00    23616
DAV:   5    -0.657293736322E+04   -0.23779E-04    12912
       N       E                     dE             ncg
DAV:   1     0.763415621710E+05   -0.55635E+03     2112
DAV:   2     0.744678652528E+05   -0.18737E+04     3168
DAV:   3     0.744444297931E+05   -0.23435E+02     2256
DAV:   4     0.744443337658E+05   -0.96027E-01     4224
DAV:   5     0.744443337612E+05   -0.45240E-05     2112
