P                                       
           1
     3.304660    0.000000    0.000000
     0.000000   11.316940    0.000000
     0.000000    0.000000    4.573270
   P 
     8
Direct configuration=     1
   0.00000000  0.09357000  0.08719000
   0.00000000  0.90643000  0.91281000
   0.00000000  0.40643000  0.58719000
   0.00000000  0.59357000  0.41281000
   0.50000000  0.59357000  0.08719000
   0.50000000  0.40643000  0.91281000
   0.50000000  0.90643000  0.58719000
   0.50000000  0.09357000  0.41281000
