Mg                                      
   1.00000000000000     
     3.194050    0.000000    0.000000
     1.597025    2.766128    0.000000
     0.000000    0.000000    5.171980
   Mg
     2
Direct
  0.000000  0.000000  0.000000
  0.333333  0.333333  0.500000
 
   28   28   40
 0.94424     0.97568      1.0823      1.2922      1.6287      2.0891      2.6353      3.2004      3.7088      4.1007    
  4.3503      4.4732      4.5115      4.5114      4.5072      4.5114      4.5115      4.4732      4.3503      4.1007    
  3.7088      3.2004      2.6353      2.0891      1.6287      1.2922      1.0823     0.97568     0.97568      1.0444    
  1.2050      1.4864      1.8998      2.4224      2.9968      3.5473      4.0039      4.3246      4.5061      4.5808    
  4.5949      4.5900      4.5900      4.5949      4.5808      4.5061      4.3246      4.0039      3.5473      2.9968    
  2.4224      1.8998      1.4864      1.2050      1.0444     0.97567      1.0823      1.2050      1.4393      1.8034    
  2.2876      2.8469      3.4112      3.9074      4.2822      4.5170      4.6307      4.6645      4.6628      4.6583    
  4.6628      4.6645      4.6307      4.5170      4.2822      3.9074      3.4112      2.8469      2.2877      1.8034    
  1.4393      1.2050      1.0823      1.0453      1.2922      1.4864      1.8034      2.2416      2.7677      3.3208    
  3.8303      4.2376      4.5132      4.6626      4.7186      4.7239      4.7159      4.7159      4.7239      4.7186    
  4.6626      4.5132      4.2376      3.8303      3.3208      2.7677      2.2416      1.8034      1.4864      1.2922    
  1.2034      1.2034      1.6287      1.8998      2.2876      2.7677      3.2892      3.7877      4.2046      4.5037    
  4.6802      4.7572      4.7721      4.7628      4.7564      4.7628      4.7721      4.7572      4.6802      4.5037    
  4.2046      3.7877      3.2892      2.7677      2.2876      1.8998      1.6287      1.4740      1.4245      1.4740    
  2.0891      2.4224      2.8469      3.3208      3.7877      4.1924      4.4967      4.6884      4.7817      4.8069    
  4.7989      4.7868      4.7868      4.7989      4.8069      4.7817      4.6884      4.4967      4.1924      3.7877    
  3.3208      2.8469      2.4224      2.0891      1.8668      1.7576      1.7576      1.8668      2.6353      2.9968    
  3.4112      3.8303      4.2046      4.4967      4.6907      4.7935      4.8280      4.8239      4.8086      4.8013    
  4.8086      4.8239      4.8280      4.7935      4.6907      4.4967      4.2046      3.8303      3.4112      2.9968    
  2.6353      2.3618      2.1943      2.1383      2.1943      2.3618      3.2004      3.5473      3.9074      4.2376    
  4.5037      4.6884      4.7935      4.8351      4.8367      4.8220      4.8096      4.8096      4.8220      4.8367    
  4.8351      4.7935      4.6884      4.5037      4.2376      3.9074      3.5473      3.2004      2.9075      2.6987    
  2.5909      2.5909      2.6987      2.9075      3.7088      4.0039      4.2822      4.5132      4.6802      4.7817    
  4.8280      4.8367      4.8265      4.8135      4.8079      4.8135      4.8265      4.8367      4.8280      4.7817    
  4.6802      4.5132      4.2822      4.0039      3.7088      3.4332      3.2113      3.0685      3.0193      3.0685    
  3.2113      3.4332      4.1007      4.3246      4.5170      4.6626      4.7572      4.8069      4.8239      4.8220    
  4.8135      4.8070      4.8070      4.8135      4.8220      4.8239      4.8069      4.7572      4.6626      4.5170    
  4.3246      4.1007      3.8709      3.6654      3.5115      3.4295      3.4295      3.5115      3.6653      3.8709    
  4.3503      4.5061      4.6307      4.7186      4.7721      4.7989      4.8086      4.8096      4.8079      4.8070    
  4.8079      4.8096      4.8086      4.7989      4.7721      4.7186      4.6307      4.5061      4.3503      4.1773    
  4.0080      3.8656      3.7708      3.7377      3.7708      3.8656      4.0080      4.1773      4.4732      4.5808    
  4.6645      4.7239      4.7628      4.7868      4.8013      4.8096      4.8135      4.8135      4.8096      4.8013    
  4.7868      4.7628      4.7239      4.6645      4.5808      4.4732      4.3481      4.2179      4.0990      4.0081    
  3.9588      3.9588      4.0081      4.0990      4.2180      4.3481      4.5115      4.5949      4.6628      4.7159    
  4.7564      4.7868      4.8086      4.8220      4.8265      4.8220      4.8086      4.7868      4.7564      4.7159    
  4.6628      4.5949      4.5115      4.4154      4.3135      4.2161      4.1351      4.0813      4.0625      4.0813    
  4.1351      4.2161      4.3135      4.4154      4.5114      4.5900      4.6583      4.7159      4.7628      4.7989    
  4.8239      4.8367      4.8367      4.8239      4.7989      4.7628      4.7159      4.6583      4.5900      4.5114    
  4.4250      4.3356      4.2499      4.1759      4.1213      4.0924      4.0924      4.1213      4.1759      4.2499    
  4.3356      4.4250      4.5072      4.5900      4.6628      4.7239      4.7721      4.8069      4.8280      4.8351    
  4.8280      4.8069      4.7721      4.7239      4.6628      4.5900      4.5072      4.4181      4.3276      4.2419    
  4.1673      4.1095      4.0730      4.0605      4.0730      4.1095      4.1672      4.2419      4.3276      4.4181    
  4.5114      4.5949      4.6645      4.7186      4.7572      4.7817      4.7935      4.7935      4.7817      4.7572    
  4.7186      4.6645      4.5949      4.5114      4.4181      4.3212      4.2279      4.1452      4.0790      4.0332    
  4.0098      4.0098      4.0332      4.0790      4.1452      4.2279      4.3212      4.4181      4.5115      4.5808    
  4.6307      4.6626      4.6802      4.6884      4.6907      4.6884      4.6802      4.6626      4.6307      4.5808    
  4.5115      4.4250      4.3276      4.2279      4.1349      4.0566      3.9982      3.9625      3.9505      3.9625    
  3.9982      4.0566      4.1349      4.2279      4.3276      4.4250      4.4732      4.5061      4.5170      4.5132    
  4.5037      4.4967      4.4967      4.5037      4.5132      4.5170      4.5061      4.4732      4.4154      4.3356    
  4.2419      4.1452      4.0566      3.9846      3.9346      3.9092      3.9092      3.9346      3.9846      4.0566    
  4.1452      4.2419      4.3356      4.4154      4.3503      4.3246      4.2822      4.2376      4.2046      4.1924    
  4.2046      4.2376      4.2822      4.3246      4.3503      4.3481      4.3135      4.2499      4.1673      4.0790    
  3.9982      3.9346      3.8946      3.8810      3.8946      3.9346      3.9982      4.0790      4.1672      4.2499    
  4.3135      4.3481      4.1007      4.0039      3.9074      3.8303      3.7877      3.7877      3.8303      3.9074    
  4.0039      4.1007      4.1773      4.2179      4.2161      4.1759      4.1095      4.0332      3.9625      3.9092    
  3.8810      3.8810      3.9092      3.9625      4.0332      4.1095      4.1759      4.2161      4.2180      4.1773    
  3.7088      3.5473      3.4112      3.3208      3.2892      3.3208      3.4112      3.5473      3.7088      3.8709    
  4.0080      4.0990      4.1351      4.1213      4.0730      4.0098      3.9505      3.9092      3.8946      3.9092    
  3.9505      4.0098      4.0730      4.1213      4.1351      4.0990      4.0080      3.8709      3.2004      2.9968    
  2.8469      2.7677      2.7677      2.8469      2.9968      3.2004      3.4332      3.6654      3.8656      4.0081    
  4.0813      4.0924      4.0605      4.0098      3.9625      3.9346      3.9346      3.9625      4.0098      4.0605    
  4.0924      4.0813      4.0081      3.8656      3.6653      3.4332      2.6353      2.4224      2.2877      2.2416    
  2.2876      2.4224      2.6353      2.9075      3.2113      3.5115      3.7708      3.9588      4.0625      4.0924    
  4.0730      4.0332      3.9982      3.9846      3.9982      4.0332      4.0730      4.0924      4.0625      3.9588    
  3.7708      3.5115      3.2113      2.9075      2.0891      1.8998      1.8034      1.8034      1.8998      2.0891    
  2.3618      2.6987      3.0685      3.4295      3.7377      3.9588      4.0813      4.1213      4.1095      4.0790    
  4.0566      4.0566      4.0790      4.1095      4.1213      4.0813      3.9588      3.7377      3.4295      3.0685    
  2.6987      2.3618      1.6287      1.4864      1.4393      1.4864      1.6287      1.8668      2.1943      2.5909    
  3.0193      3.4295      3.7708      4.0081      4.1351      4.1759      4.1672      4.1452      4.1349      4.1452    
  4.1672      4.1759      4.1351      4.0081      3.7708      3.4295      3.0193      2.5909      2.1943      1.8668    
  1.2922      1.2050      1.2050      1.2922      1.4740      1.7576      2.1383      2.5909      3.0685      3.5115    
  3.8656      4.0990      4.2161      4.2499      4.2419      4.2279      4.2279      4.2419      4.2499      4.2161    
  4.0990      3.8656      3.5115      3.0685      2.5909      2.1383      1.7576      1.4740      1.0823      1.0444    
  1.0823      1.2034      1.4245      1.7576      2.1943      2.6987      3.2113      3.6653      4.0080      4.2180    
  4.3135      4.3356      4.3276      4.3212      4.3276      4.3356      4.3135      4.2180      4.0080      3.6653    
  3.2113      2.6987      2.1943      1.7576      1.4245      1.2034     0.97568     0.97567      1.0453      1.2034    
  1.4740      1.8668      2.3618      2.9075      3.4332      3.8709      4.1773      4.3481      4.4154      4.4250    
  4.4181      4.4181      4.4250      4.4154      4.3481      4.1773      3.8709      3.4332      2.9075      2.3618    
  1.8668      1.4740      1.2034      1.0453     0.98563      1.0196      1.1326      1.3499      1.6913      2.1514    
  2.6910      3.2441      3.7376      4.1145      4.3518      4.4664      4.4999      4.4976      4.4928      4.4976    
  4.4999      4.4664      4.3518      4.1145      3.7376      3.2441      2.6910      2.1514      1.6913      1.3499    
  1.1326      1.0196      1.0196      1.0930      1.2608      1.5484      1.9639      2.4824      3.0468      3.5832    
  4.0246      4.3316      4.5031      4.5715      4.5823      4.5761      4.5761      4.5823      4.5715      4.5031    
  4.3316      4.0246      3.5832      3.0468      2.4824      1.9639      1.5484      1.2608      1.0930      1.0196    
  1.1326      1.2608      1.5010      1.8681      2.3500      2.9011      3.4525      3.9337      4.2943      4.5178    
  4.6239      4.6535      4.6499      4.6449      4.6499      4.6535      4.6239      4.5178      4.2943      3.9337    
  3.4525      2.9011      2.3500      1.8681      1.5010      1.2608      1.1326      1.0934      1.3499      1.5484    
  1.8681      2.3047      2.8239      3.3654      3.8606      4.2538      4.5173      4.6582      4.7092      4.7121    
  4.7032      4.7032      4.7121      4.7092      4.6582      4.5173      4.2538      3.8606      3.3654      2.8239    
  2.3047      1.8681      1.5484      1.3499      1.2580      1.2580      1.6913      1.9639      2.3500      2.8239    
  3.3349      3.8201      4.2232      4.5103      4.6779      4.7493      4.7614      4.7509      4.7443      4.7509    
  4.7614      4.7493      4.6779      4.5103      4.2232      3.8201      3.3349      2.8239      2.3500      1.9639    
  1.6913      1.5344      1.4838      1.5344      2.1514      2.4824      2.9011      3.3654      3.8201      4.2120    
  4.5046      4.6874      4.7750      4.7972      4.7880      4.7756      4.7756      4.7880      4.7972      4.7750    
  4.6874      4.5046      4.2120      3.8201      3.3654      2.9011      2.4824      2.1514      1.9291      1.8193    
  1.8193      1.9291      2.6910      3.0468      3.4525      3.8606      4.2232      4.5046      4.6902      4.7874    
  4.8190      4.8136      4.7981      4.7908      4.7981      4.8136      4.8190      4.7874      4.6902      4.5046    
  4.2232      3.8606      3.4525      3.0468      2.6910      2.4204      2.2540      2.1982      2.2540      2.4204    
  3.2441      3.5832      3.9337      4.2538      4.5103      4.6874      4.7874      4.8263      4.8268      4.8121    
  4.7999      4.7999      4.8121      4.8268      4.8263      4.7874      4.6874      4.5103      4.2538      3.9337    
  3.5832      3.2441      2.9566      2.7509      2.6445      2.6445      2.7509      2.9567      3.7376      4.0246    
  4.2943      4.5173      4.6779      4.7750      4.8190      4.8268      4.8168      4.8042      4.7989      4.8042    
  4.8168      4.8268      4.8190      4.7750      4.6779      4.5173      4.2943      4.0246      3.7376      3.4687    
  3.2515      3.1113      3.0631      3.1113      3.2515      3.4687      4.1145      4.3316      4.5178      4.6582    
  4.7493      4.7972      4.8136      4.8121      4.8042      4.7982      4.7982      4.8042      4.8121      4.8136    
  4.7972      4.7493      4.6582      4.5178      4.3316      4.1145      3.8912      3.6909      3.5407      3.4605    
  3.4605      3.5407      3.6909      3.8912      4.3518      4.5031      4.6239      4.7092      4.7614      4.7880    
  4.7981      4.7999      4.7989      4.7982      4.7989      4.7999      4.7981      4.7880      4.7614      4.7092    
  4.6239      4.5031      4.3518      4.1838      4.0191      3.8805      3.7882      3.7558      3.7882      3.8805    
  4.0191      4.1838      4.4664      4.5715      4.6535      4.7121      4.7509      4.7756      4.7908      4.7999    
  4.8042      4.8042      4.7999      4.7908      4.7756      4.7509      4.7121      4.6535      4.5715      4.4664    
  4.3444      4.2175      4.1015      4.0128      3.9648      3.9648      4.0128      4.1015      4.2175      4.3444    
  4.4999      4.5823      4.6499      4.7032      4.7443      4.7756      4.7981      4.8121      4.8168      4.8121    
  4.7981      4.7756      4.7443      4.7032      4.6499      4.5823      4.4999      4.4053      4.3053      4.2098    
  4.1304      4.0778      4.0593      4.0778      4.1304      4.2098      4.3053      4.4053      4.4976      4.5761    
  4.6449      4.7032      4.7509      4.7880      4.8136      4.8268      4.8268      4.8136      4.7880      4.7509    
  4.7032      4.6449      4.5761      4.4976      4.4117      4.3230      4.2383      4.1653      4.1115      4.0830    
  4.0830      4.1115      4.1653      4.2383      4.3230      4.4117      4.4928      4.5761      4.6499      4.7121    
  4.7614      4.7972      4.8190      4.8263      4.8190      4.7972      4.7614      4.7121      4.6499      4.5761    
  4.4928      4.4034      4.3131      4.2277      4.1535      4.0962      4.0600      4.0477      4.0600      4.0962    
  4.1535      4.2277      4.3131      4.4035      4.4976      4.5823      4.6535      4.7092      4.7493      4.7750    
  4.7874      4.7874      4.7750      4.7493      4.7092      4.6535      4.5823      4.4976      4.4034      4.3061    
  4.2127      4.1302      4.0642      4.0185      3.9953      3.9953      4.0185      4.0642      4.1302      4.2127    
  4.3061      4.4035      4.4999      4.5715      4.6239      4.6582      4.6779      4.6874      4.6902      4.6874    
  4.6779      4.6582      4.6239      4.5715      4.4999      4.4117      4.3131      4.2127      4.1195      4.0412    
  3.9829      3.9473      3.9354      3.9473      3.9829      4.0412      4.1195      4.2127      4.3131      4.4117    
  4.4664      4.5031      4.5178      4.5173      4.5103      4.5046      4.5046      4.5103      4.5173      4.5178    
  4.5031      4.4664      4.4053      4.3230      4.2277      4.1302      4.0412      3.9693      3.9194      3.8941    
  3.8941      3.9194      3.9693      4.0412      4.1302      4.2277      4.3230      4.4053      4.3518      4.3316    
  4.2943      4.2538      4.2232      4.2120      4.2232      4.2538      4.2943      4.3316      4.3518      4.3444    
  4.3053      4.2383      4.1535      4.0642      3.9829      3.9194      3.8795      3.8659      3.8795      3.9194    
  3.9829      4.0642      4.1535      4.2383      4.3053      4.3444      4.1145      4.0246      3.9337      3.8606    
  3.8201      3.8201      3.8606      3.9337      4.0246      4.1145      4.1838      4.2175      4.2098      4.1653    
  4.0962      4.0185      3.9473      3.8941      3.8659      3.8659      3.8941      3.9473      4.0185      4.0962    
  4.1653      4.2098      4.2175      4.1838      3.7376      3.5832      3.4525      3.3654      3.3349      3.3654    
  3.4525      3.5832      3.7376      3.8912      4.0191      4.1015      4.1304      4.1115      4.0600      3.9953    
  3.9354      3.8941      3.8795      3.8941      3.9354      3.9953      4.0600      4.1115      4.1304      4.1015    
  4.0191      3.8912      3.2441      3.0468      2.9011      2.8239      2.8239      2.9011      3.0468      3.2441    
  3.4687      3.6909      3.8805      4.0128      4.0778      4.0830      4.0477      3.9953      3.9473      3.9194    
  3.9194      3.9473      3.9953      4.0477      4.0830      4.0778      4.0128      3.8805      3.6909      3.4687    
  2.6910      2.4824      2.3500      2.3047      2.3500      2.4824      2.6910      2.9566      3.2515      3.5407    
  3.7882      3.9648      4.0593      4.0830      4.0600      4.0185      3.9829      3.9693      3.9829      4.0185    
  4.0600      4.0830      4.0593      3.9648      3.7882      3.5407      3.2515      2.9566      2.1514      1.9639    
  1.8681      1.8681      1.9639      2.1514      2.4204      2.7509      3.1113      3.4605      3.7558      3.9648    
  4.0778      4.1115      4.0962      4.0642      4.0412      4.0412      4.0642      4.0962      4.1115      4.0778    
  3.9648      3.7558      3.4605      3.1113      2.7509      2.4204      1.6913      1.5484      1.5010      1.5484    
  1.6913      1.9291      2.2540      2.6445      3.0631      3.4605      3.7882      4.0128      4.1304      4.1653    
  4.1535      4.1302      4.1195      4.1302      4.1535      4.1653      4.1304      4.0128      3.7882      3.4605    
  3.0631      2.6445      2.2540      1.9291      1.3499      1.2608      1.2608      1.3499      1.5344      1.8193    
  2.1982      2.6445      3.1113      3.5407      3.8805      4.1015      4.2098      4.2383      4.2277      4.2127    
  4.2127      4.2277      4.2383      4.2098      4.1015      3.8805      3.5407      3.1113      2.6445      2.1982    
  1.8193      1.5344      1.1326      1.0930      1.1326      1.2580      1.4838      1.8193      2.2540      2.7509    
  3.2515      3.6909      4.0191      4.2175      4.3053      4.3230      4.3131      4.3061      4.3131      4.3230    
  4.3053      4.2175      4.0191      3.6909      3.2515      2.7509      2.2540      1.8193      1.4838      1.2580    
  1.0196      1.0196      1.0934      1.2580      1.5344      1.9291      2.4204      2.9567      3.4687      3.8912    
  4.1838      4.3444      4.4053      4.4117      4.4035      4.4035      4.4117      4.4053      4.3444      4.1838    
  3.8912      3.4687      2.9566      2.4204      1.9291      1.5344      1.2580      1.0934      1.1291      1.1692    
  1.2976      1.5318      1.8824      2.3368      2.8536      3.3695      3.8186      4.1523      4.3547      4.4460    
  4.4664      4.4581      4.4517      4.4581      4.4664      4.4460      4.3547      4.1524      3.8186      3.3695    
  2.8536      2.3369      1.8824      1.5318      1.2976      1.1692      1.1692      1.2540      1.4387      1.7396    
  2.1561      2.6587      3.1912      3.6853      4.0822      4.3501      4.4932      4.5443      4.5463      4.5367    
  4.5367      4.5463      4.5443      4.4932      4.3501      4.0822      3.6853      3.1912      2.6587      2.1561    
  1.7396      1.4387      1.2540      1.1692      1.2976      1.4387      1.6918      2.0630      2.5341      3.0582    
  3.5705      4.0077      4.3272      4.5186      4.6037      4.6217      4.6130      4.6066      4.6130      4.6217    
  4.6037      4.5186      4.3272      4.0077      3.5705      3.0582      2.5341      2.0630      1.6918      1.4387    
  1.2975      1.2530      1.5318      1.7396      2.0630      2.4912      2.9872      3.4932      3.9463      4.2982    
  4.5276      4.6448      4.6819      4.6781      4.6668      4.6668      4.6781      4.6819      4.6448      4.5276    
  4.2982      3.9463      3.4932      2.9873      2.4913      2.0630      1.7396      1.5318      1.4327      1.4327    
  1.8824      2.1561      2.5341      2.9872      3.4659      3.9119      4.2751      4.5277      4.6702      4.7262    
  4.7305      4.7170      4.7097      4.7170      4.7305      4.7262      4.6702      4.5277      4.2751      3.9119    
  3.4659      2.9873      2.5341      2.1561      1.8824      1.7210      1.6683      1.7210      2.3368      2.6587    
  3.0582      3.4932      3.9119      4.2664      4.5258      4.6835      4.7551      4.7690      4.7565      4.7432    
  4.7432      4.7565      4.7690      4.7551      4.6835      4.5258      4.2664      3.9119      3.4932      3.0582    
  2.6587      2.3369      2.1167      2.0064      2.0063      2.1167      2.8536      3.1912      3.5705      3.9463    
  4.2751      4.5258      4.6875      4.7692      4.7925      4.7840      4.7680      4.7607      4.7680      4.7840    
  4.7925      4.7692      4.6875      4.5258      4.2751      3.9463      3.5705      3.1912      2.8536      2.5930    
  2.4309      2.3761      2.4309      2.5930      3.3695      3.6853      4.0077      4.2982      4.5277      4.6835    
  4.7692      4.8004      4.7983      4.7835      4.7719      4.7719      4.7835      4.7983      4.8004      4.7692    
  4.6835      4.5277      4.2982      4.0077      3.6853      3.3695      3.0986      2.9029      2.8009      2.8009    
  2.9029      3.0987      3.8186      4.0822      4.3272      4.5276      4.6702      4.7551      4.7925      4.7983    
  4.7888      4.7774      4.7727      4.7774      4.7888      4.7983      4.7925      4.7551      4.6702      4.5276    
  4.3272      4.0822      3.8186      3.5692      3.3661      3.2343      3.1887      3.2343      3.3662      3.5692    
  4.1523      4.3501      4.5186      4.6448      4.7262      4.7690      4.7840      4.7835      4.7774      4.7727    
  4.7727      4.7774      4.7835      4.7840      4.7690      4.7262      4.6448      4.5185      4.3501      4.1523    
  3.9474      3.7623      3.6228      3.5481      3.5481      3.6228      3.7623      3.9474      4.3547      4.4932    
  4.6037      4.6819      4.7305      4.7565      4.7680      4.7719      4.7727      4.7727      4.7727      4.7719    
  4.7680      4.7565      4.7305      4.6819      4.6037      4.4932      4.3547      4.2006      4.0490      3.9210    
  3.8356      3.8056      3.8356      3.9210      4.0490      4.2006      4.4460      4.5443      4.6217      4.6781    
  4.7170      4.7432      4.7607      4.7719      4.7774      4.7774      4.7719      4.7607      4.7432      4.7170    
  4.6781      4.6217      4.5443      4.4460      4.3324      4.2145      4.1067      4.0243      3.9797      3.9797    
  4.0243      4.1067      4.2145      4.3324      4.4664      4.5463      4.6130      4.6668      4.7097      4.7432    
  4.7680      4.7835      4.7888      4.7835      4.7680      4.7432      4.7097      4.6668      4.6130      4.5463    
  4.4664      4.3758      4.2807      4.1904      4.1155      4.0659      4.0486      4.0659      4.1155      4.1904    
  4.2807      4.3758      4.4581      4.5367      4.6066      4.6668      4.7170      4.7565      4.7840      4.7983    
  4.7983      4.7840      4.7565      4.7170      4.6668      4.6066      4.5367      4.4581      4.3733      4.2866    
  4.2044      4.1339      4.0822      4.0549      4.0549      4.0822      4.1339      4.2044      4.2866      4.3733    
  4.4517      4.5367      4.6130      4.6781      4.7305      4.7690      4.7925      4.8004      4.7925      4.7690    
  4.7305      4.6781      4.6130      4.5367      4.4517      4.3616      4.2714      4.1868      4.1137      4.0574    
  4.0220      4.0099      4.0220      4.0574      4.1137      4.1868      4.2714      4.3616      4.4581      4.5463    
  4.6217      4.6819      4.7262      4.7551      4.7692      4.7692      4.7551      4.7262      4.6819      4.6217    
  4.5463      4.4581      4.3616      4.2630      4.1692      4.0868      4.0212      3.9760      3.9529      3.9529    
  3.9760      4.0212      4.0868      4.1692      4.2630      4.3616      4.4664      4.5443      4.6037      4.6448    
  4.6702      4.6835      4.6875      4.6835      4.6702      4.6448      4.6037      4.5443      4.4664      4.3733    
  4.2714      4.1692      4.0753      3.9969      3.9388      3.9035      3.8916      3.9034      3.9388      3.9969    
  4.0753      4.1692      4.2714      4.3733      4.4460      4.4932      4.5186      4.5276      4.5277      4.5258    
  4.5258      4.5277      4.5276      4.5185      4.4932      4.4460      4.3758      4.2866      4.1868      4.0868    
  3.9969      3.9249      3.8752      3.8501      3.8501      3.8752      3.9249      3.9969      4.0868      4.1868    
  4.2866      4.3758      4.3547      4.3501      4.3272      4.2982      4.2751      4.2664      4.2751      4.2982    
  4.3272      4.3501      4.3547      4.3324      4.2807      4.2044      4.1137      4.0212      3.9388      3.8752    
  3.8355      3.8221      3.8355      3.8752      3.9389      4.0212      4.1137      4.2044      4.2807      4.3324    
  4.1524      4.0822      4.0077      3.9463      3.9119      3.9119      3.9463      4.0077      4.0822      4.1523    
  4.2006      4.2145      4.1904      4.1339      4.0574      3.9760      3.9035      3.8501      3.8221      3.8221    
  3.8501      3.9035      3.9760      4.0574      4.1339      4.1904      4.2145      4.2006      3.8186      3.6853    
  3.5705      3.4932      3.4659      3.4932      3.5705      3.6853      3.8186      3.9474      4.0490      4.1067    
  4.1155      4.0822      4.0220      3.9529      3.8916      3.8501      3.8355      3.8501      3.8916      3.9529    
  4.0220      4.0822      4.1155      4.1067      4.0490      3.9474      3.3695      3.1912      3.0582      2.9873    
  2.9873      3.0582      3.1912      3.3695      3.5692      3.7623      3.9210      4.0243      4.0659      4.0549    
  4.0099      3.9529      3.9034      3.8752      3.8752      3.9035      3.9529      4.0099      4.0549      4.0659    
  4.0243      3.9210      3.7623      3.5692      2.8536      2.6587      2.5341      2.4913      2.5341      2.6587    
  2.8536      3.0986      3.3661      3.6228      3.8356      3.9797      4.0486      4.0549      4.0220      3.9760    
  3.9388      3.9249      3.9389      3.9760      4.0220      4.0549      4.0486      3.9797      3.8356      3.6228    
  3.3661      3.0986      2.3369      2.1561      2.0630      2.0630      2.1561      2.3369      2.5930      2.9029    
  3.2343      3.5481      3.8056      3.9797      4.0659      4.0822      4.0574      4.0212      3.9969      3.9969    
  4.0212      4.0574      4.0822      4.0659      3.9797      3.8056      3.5481      3.2343      2.9029      2.5931    
  1.8824      1.7396      1.6918      1.7396      1.8824      2.1167      2.4309      2.8009      3.1887      3.5481    
  3.8356      4.0243      4.1155      4.1339      4.1137      4.0868      4.0753      4.0868      4.1137      4.1339    
  4.1155      4.0243      3.8356      3.5481      3.1887      2.8009      2.4309      2.1167      1.5318      1.4387    
  1.4387      1.5318      1.7210      2.0064      2.3761      2.8009      3.2343      3.6228      3.9210      4.1067    
  4.1904      4.2044      4.1868      4.1692      4.1692      4.1868      4.2044      4.1904      4.1067      3.9210    
  3.6228      3.2343      2.8009      2.3761      2.0063      1.7210      1.2976      1.2540      1.2975      1.4327    
  1.6683      2.0063      2.4309      2.9029      3.3662      3.7623      4.0490      4.2145      4.2807      4.2866    
  4.2714      4.2630      4.2714      4.2866      4.2807      4.2145      4.0490      3.7623      3.3661      2.9029    
  2.4309      2.0063      1.6682      1.4327      1.1692      1.1692      1.2530      1.4327      1.7210      2.1167    
  2.5930      3.0987      3.5692      3.9474      4.2006      4.3324      4.3758      4.3733      4.3616      4.3616    
  4.3733      4.3758      4.3324      4.2006      3.9474      3.5692      3.0986      2.5931      2.1167      1.7210    
  1.4327      1.2530      1.4152      1.4616      1.6049      1.8526      2.2032      2.6358      3.1067      3.5586    
  3.9363      4.2035      4.3544      4.4123      4.4145      4.3982      4.3897      4.3982      4.4145      4.4123    
  4.3544      4.2035      3.9363      3.5586      3.1067      2.6358      2.2032      1.8526      1.6049      1.4616    
  1.4616      1.5579      1.7577      2.0656      2.4701      2.9369      3.4120      3.8365      4.1637      4.3728    
  4.4745      4.5012      4.4912      4.4772      4.4772      4.4913      4.5012      4.4745      4.3728      4.1637    
  3.8365      3.4120      2.9369      2.4701      2.0656      1.7577      1.5579      1.4616      1.6049      1.7577    
  2.0190      2.3839      2.8267      3.3005      3.7472      4.1148      4.3715      4.5154      4.5705      4.5725    
  4.5570      4.5489      4.5570      4.5725      4.5705      4.5154      4.3715      4.1148      3.7472      3.3005    
  2.8267      2.3839      2.0190      1.7577      1.6049      1.5551      1.8526      2.0656      2.3839      2.7886    
  3.2404      3.6859      4.0717      4.3600      4.5384      4.6213      4.6390      4.6263      4.6120      4.6120    