Mg                                      
   1.00000000000000     
     3.194050    0.000000    0.000000
     1.597025    2.766128    0.000000
     0.000000    0.000000    5.171980
   Mg
     2
Direct
  0.000000  0.000000  0.000000
  0.333333  0.333333  0.500000
 
   28   28   40
 0.94424220684E+00 0.97568357876E+00 0.10822831627E+01 0.12922033858E+01 0.16286783494E+01
 0.20890831383E+01 0.26353011343E+01 0.32004128041E+01 0.37088001057E+01 0.41006664978E+01
 0.43502977781E+01 0.44731912482E+01 0.45114508679E+01 0.45113899420E+01 0.45072297149E+01
 0.45113899136E+01 0.45114508006E+01 0.44731912111E+01 0.43502978502E+01 0.41006665862E+01
 0.37088000323E+01 0.32004126823E+01 0.26353014558E+01 0.20890842206E+01 0.16286797599E+01
 0.12922042302E+01 0.10822830627E+01 0.97568312204E+00 0.97568357876E+00 0.10444371968E+01
 0.12049930137E+01 0.14863632783E+01 0.18998061226E+01 0.24224008598E+01 0.29968191689E+01
 0.35472775716E+01 0.40039363011E+01 0.43245900665E+01 0.45061360570E+01 0.45808083099E+01
 0.45948839330E+01 0.45899645621E+01 0.45899646735E+01 0.45948840792E+01 0.45808083833E+01
 0.45061363713E+01 0.43245906659E+01 0.40039366880E+01 0.35472780811E+01 0.29968216912E+01
 0.24224060479E+01 0.18998096398E+01 0.14863575934E+01 0.12049756852E+01 0.10444168060E+01
 0.97567442634E+00 0.10822831627E+01 0.12049930137E+01 0.14392727547E+01 0.18034247759E+01
 0.22876472396E+01 0.28469296148E+01 0.34112124231E+01 0.39073531332E+01 0.42821897344E+01
 0.45170395588E+01 0.46307254981E+01 0.46645157980E+01 0.46628429348E+01 0.46583427876E+01
 0.46628430032E+01 0.46645157321E+01 0.46307254792E+01 0.45170398542E+01 0.42821898477E+01
 0.39073525096E+01 0.34112123390E+01 0.28469325851E+01 0.22876528486E+01 0.18034272426E+01
 0.14392656752E+01 0.12049776996E+01 0.10822701894E+01 0.10452749835E+01 0.12922033858E+01
 0.14863632783E+01 0.18034247759E+01 0.22416047849E+01 0.27676806729E+01 0.33208286694E+01
 0.38302956602E+01 0.42376426993E+01 0.45131997937E+01 0.46625646642E+01 0.47185562017E+01
 0.47238726278E+01 0.47158937265E+01 0.47158936229E+01 0.47238723727E+01 0.47185559733E+01
 0.46625646114E+01 0.45131996529E+01 0.42376417342E+01 0.38302934352E+01 0.33208260804E+01
 0.27676799152E+01 0.22416078459E+01 0.18034317062E+01 0.14863718443E+01 0.12922103121E+01
 0.12033749020E+01 0.12033722659E+01 0.16286783494E+01 0.18998061226E+01 0.22876472396E+01
 0.27676806729E+01 0.32891967870E+01 0.37877190550E+01 0.42045762925E+01 0.45037418745E+01
 0.46802394010E+01 0.47571974270E+01 0.47720695753E+01 0.47627586119E+01 0.47564065165E+01
 0.47627585026E+01 0.47720694904E+01 0.47571973807E+01 0.46802394060E+01 0.45037420710E+01
 0.42045761912E+01 0.37877168596E+01 0.32891911383E+01 0.27676742195E+01 0.22876470883E+01
 0.18998178649E+01 0.16286984544E+01 0.14740374241E+01 0.14245252631E+01 0.14740215572E+01
 0.20890831383E+01 0.24224008598E+01 0.28469296148E+01 0.33208286694E+01 0.37877190550E+01
 0.41924331860E+01 0.44966979837E+01 0.46884031509E+01 0.47817060149E+01 0.48069177799E+01
 0.47989326310E+01 0.47868371839E+01 0.47868372712E+01 0.47989328707E+01 0.48069179595E+01
 0.47817059687E+01 0.46884035834E+01 0.44967000943E+01 0.41924362923E+01 0.37877193887E+01
 0.33208228122E+01 0.28469198355E+01 0.24223949209E+01 0.20890865511E+01 0.18667873065E+01
 0.17575612658E+01 0.17575564896E+01 0.18667782689E+01 0.26353011343E+01 0.29968191689E+01
 0.34112124231E+01 0.38302956602E+01 0.42045762925E+01 0.44966979837E+01 0.46906740747E+01
 0.47935119877E+01 0.48280334317E+01 0.48238629552E+01 0.48086113392E+01 0.48012887132E+01
 0.48086114646E+01 0.48238631904E+01 0.48280333869E+01 0.47935114502E+01 0.46906741796E+01
 0.44967007743E+01 0.42045820565E+01 0.38303010422E+01 0.34112123980E+01 0.29968114611E+01
 0.26352884099E+01 0.23617669999E+01 0.21942768124E+01 0.21382555116E+01 0.21942840228E+01
 0.23617792737E+01 0.32004128041E+01 0.35472775716E+01 0.39073531332E+01 0.42376426993E+01
 0.45037418745E+01 0.46884031509E+01 0.47935119877E+01 0.48351126587E+01 0.48366614071E+01
 0.48219562031E+01 0.48095898219E+01 0.48095897022E+01 0.48219560775E+01 0.48366614405E+01
 0.48351122002E+01 0.47935101162E+01 0.46884005074E+01 0.45037415552E+01 0.42376480125E+01
 0.39073633601E+01 0.35472863114E+01 0.32004122574E+01 0.29075167035E+01 0.26986801422E+01
 0.25908943949E+01 0.25909011982E+01 0.26986950715E+01 0.29075282518E+01 0.37088001057E+01
 0.40039363011E+01 0.42821897344E+01 0.45131997937E+01 0.46802394010E+01 0.47817060149E+01
 0.48280334317E+01 0.48366614071E+01 0.48264848465E+01 0.48134546337E+01 0.48079256186E+01
 0.48134543866E+01 0.48264847933E+01 0.48366618459E+01 0.48280334595E+01 0.47817035141E+01
 0.46802335191E+01 0.45131938237E+01 0.42821897820E+01 0.40039451848E+01 0.37088130157E+01
 0.34332493936E+01 0.32113276346E+01 0.30684662425E+01 0.30193046120E+01 0.30684696120E+01
 0.32113275908E+01 0.34332410961E+01 0.41006664978E+01 0.43245900665E+01 0.45170395588E+01
 0.46625646642E+01 0.47571974270E+01 0.48069177799E+01 0.48238629552E+01 0.48219562031E+01
 0.48134546337E+01 0.48070162104E+01 0.48070161771E+01 0.48134545560E+01 0.48219566047E+01
 0.48238647700E+01 0.48069204232E+01 0.47571975722E+01 0.46625589674E+01 0.45170293299E+01
 0.43245818504E+01 0.41006666396E+01 0.38709120899E+01 0.36653612120E+01 0.35115299106E+01
 0.34294694281E+01 0.34294660593E+01 0.35115205218E+01 0.36653490152E+01 0.38709032167E+01
 0.43502977781E+01 0.45061360570E+01 0.46307254981E+01 0.47185562017E+01 0.47720695753E+01
 0.47989326310E+01 0.48086113392E+01 0.48095898219E+01 0.48079256186E+01 0.48070161771E+01
 0.48079256710E+01 0.48095894923E+01 0.48086113853E+01 0.47989351601E+01 0.47720753141E+01
 0.47185619139E+01 0.46307255631E+01 0.45061277339E+01 0.43502848845E+01 0.41773192651E+01
 0.40079604405E+01 0.38655646061E+01 0.37708457849E+01 0.37376596491E+01 0.37708387962E+01
 0.38655574170E+01 0.40079606654E+01 0.41773286454E+01 0.44731912482E+01 0.45808083099E+01
 0.46645157980E+01 0.47238726278E+01 0.47627586119E+01 0.47868371839E+01 0.48012887132E+01
 0.48095897022E+01 0.48134543866E+01 0.48134545560E+01 0.48095894923E+01 0.48012870098E+01
 0.47868346426E+01 0.47627584768E+01 0.47238782067E+01 0.46645261263E+01 0.45808169597E+01
 0.44731912222E+01 0.43481037882E+01 0.42179450757E+01 0.40989985501E+01 0.40080572042E+01
 0.39587786443E+01 0.39587779629E+01 0.40080580971E+01 0.40990055432E+01 0.42179570221E+01
 0.43481131600E+01 0.45114508679E+01 0.45948839330E+01 0.46628429348E+01 0.47158937265E+01
 0.47564065165E+01 0.47868372712E+01 0.48086114646E+01 0.48219560775E+01 0.48264847933E+01
 0.48219566047E+01 0.48086113853E+01 0.47868346426E+01 0.47564007100E+01 0.47158879563E+01
 0.46628429955E+01 0.45948925617E+01 0.45114637084E+01 0.44153709515E+01 0.43134925361E+01
 0.42161154023E+01 0.41350814599E+01 0.40813177609E+01 0.40624821241E+01 0.40813216097E+01
 0.41350883904E+01 0.42161217225E+01 0.43134925135E+01 0.44153621798E+01 0.45113899420E+01
 0.45899645621E+01 0.46583427876E+01 0.47158936229E+01 0.47627585026E+01 0.47989328707E+01
 0.48238631904E+01 0.48366614405E+01 0.48366618459E+01 0.48238647700E+01 0.47989351601E+01
 0.47627584768E+01 0.47158879563E+01 0.46583325279E+01 0.45899561054E+01 0.45113898719E+01
 0.44250267331E+01 0.43355769815E+01 0.42498612643E+01 0.41758616083E+01 0.41213351992E+01
 0.40923951225E+01 0.40923969013E+01 0.41213382409E+01 0.41758609441E+01 0.42498538000E+01
 0.43355652255E+01 0.44250178620E+01 0.45072297149E+01 0.45899646735E+01 0.46628430032E+01
 0.47238723727E+01 0.47720694904E+01 0.48069179595E+01 0.48280333869E+01 0.48351122002E+01
 0.48280334595E+01 0.48069204232E+01 0.47720753141E+01 0.47238782067E+01 0.46628429955E+01
 0.45899561054E+01 0.45072167498E+01 0.44180976877E+01 0.43276147410E+01 0.42418757235E+01
 0.41672516873E+01 0.41094825318E+01 0.40729938693E+01 0.40605246188E+01 0.40729939414E+01
 0.41094795116E+01 0.41672444283E+01 0.42418686428E+01 0.43276146161E+01 0.44181067404E+01
 0.45113899136E+01 0.45948840792E+01 0.46645157321E+01 0.47185559733E+01 0.47571973807E+01
 0.47817059687E+01 0.47935114502E+01 0.47935101162E+01 0.47817035141E+01 0.47571975722E+01
 0.47185619139E+01 0.46645261263E+01 0.45948925617E+01 0.45113898719E+01 0.44180976877E+01
 0.43211676991E+01 0.42278574935E+01 0.41452293827E+01 0.40790327441E+01 0.40331679693E+01
 0.40097935848E+01 0.40097929595E+01 0.40331658509E+01 0.40790300350E+01 0.41452297167E+01
 0.42278643308E+01 0.43211792705E+01 0.44181067302E+01 0.45114508006E+01 0.45808083833E+01
 0.46307254792E+01 0.46625646114E+01 0.46802394060E+01 0.46884035834E+01 0.46906741796E+01
 0.46884005074E+01 0.46802335191E+01 0.46625589674E+01 0.46307255631E+01 0.45808169597E+01
 0.45114637084E+01 0.44250267331E+01 0.43276147410E+01 0.42278574935E+01 0.41349217035E+01
 0.40565951217E+01 0.39981766294E+01 0.39624525579E+01 0.39504710804E+01 0.39624515369E+01
 0.39981766457E+01 0.40565987645E+01 0.41349291136E+01 0.42278643821E+01 0.43276148459E+01
 0.44250178135E+01 0.44731912111E+01 0.45061363713E+01 0.45170398542E+01 0.45131996529E+01
 0.45037420710E+01 0.44967000943E+01 0.44967007743E+01 0.45037415552E+01 0.45131938237E+01
 0.45170293299E+01 0.45061277339E+01 0.44731912222E+01 0.44153709515E+01 0.43355769815E+01
 0.42418757235E+01 0.41452293827E+01 0.40565951217E+01 0.39846096779E+01 0.39346468999E+01
 0.39092493765E+01 0.39092490596E+01 0.39346471092E+01 0.39846120379E+01 0.40565984485E+01
 0.41452293620E+01 0.42418689354E+01 0.43355654758E+01 0.44153619623E+01 0.43502978502E+01
 0.43245906659E+01 0.42821898477E+01 0.42376417342E+01 0.42045761912E+01 0.41924362923E+01
 0.42045820565E+01 0.42376480125E+01 0.42821897820E+01 0.43245818504E+01 0.43502848845E+01
 0.43481037882E+01 0.43134925361E+01 0.42498612643E+01 0.41672516873E+01 0.40790327441E+01
 0.39981766294E+01 0.39346468999E+01 0.38945891667E+01 0.38809616488E+01 0.38945891908E+01
 0.39346474421E+01 0.39981765780E+01 0.40790293952E+01 0.41672444036E+01 0.42498543137E+01
 0.43134923627E+01 0.43481126567E+01 0.41006665862E+01 0.40039366880E+01 0.39073525096E+01
 0.38302934352E+01 0.37877168596E+01 0.37877193887E+01 0.38303010422E+01 0.39073633601E+01
 0.40039451848E+01 0.41006666396E+01 0.41773192651E+01 0.42179450757E+01 0.42161154023E+01
 0.41758616083E+01 0.41094825318E+01 0.40331679693E+01 0.39624525579E+01 0.39092493765E+01
 0.38809616488E+01 0.38809617821E+01 0.39092495746E+01 0.39624519414E+01 0.40331654978E+01
 0.41094792144E+01 0.41758614518E+01 0.42161219748E+01 0.42179564767E+01 0.41773281353E+01
 0.37088000323E+01 0.35472780811E+01 0.34112123390E+01 0.33208260804E+01 0.32891911383E+01
 0.33208228122E+01 0.34112123980E+01 0.35472863114E+01 0.37088130157E+01 0.38709120899E+01
 0.40079604405E+01 0.40989985501E+01 0.41350814599E+01 0.41213351992E+01 0.40729938693E+01
 0.40097935848E+01 0.39504710804E+01 0.39092490596E+01 0.38945891908E+01 0.39092495746E+01
 0.39504711914E+01 0.40097928623E+01 0.40729937927E+01 0.41213384436E+01 0.41350886065E+01
 0.40990054734E+01 0.40079606117E+01 0.38709030329E+01 0.32004126823E+01 0.29968216912E+01
 0.28469325851E+01 0.27676799152E+01 0.27676742195E+01 0.28469198355E+01 0.29968114611E+01
 0.32004122574E+01 0.34332493936E+01 0.36653612120E+01 0.38655646061E+01 0.40080572042E+01
 0.40813177609E+01 0.40923951225E+01 0.40605246188E+01 0.40097929595E+01 0.39624515369E+01
 0.39346471092E+01 0.39346474421E+01 0.39624519414E+01 0.40097928623E+01 0.40605250399E+01
 0.40923975530E+01 0.40813211740E+01 0.40080574379E+01 0.38655581547E+01 0.36653498988E+01
 0.34332404419E+01 0.26353014558E+01 0.24224060479E+01 0.22876528486E+01 0.22416078459E+01
 0.22876470883E+01 0.24223949209E+01 0.26352884099E+01 0.29075167035E+01 0.32113276346E+01
 0.35115299106E+01 0.37708457849E+01 0.39587786443E+01 0.40624821241E+01 0.40923969013E+01
 0.40729939414E+01 0.40331658509E+01 0.39981766457E+01 0.39846120379E+01 0.39981765780E+01
 0.40331654978E+01 0.40729937927E+01 0.40923975530E+01 0.40624822966E+01 0.39587754744E+01
 0.37708386424E+01 0.35115231357E+01 0.32113275242E+01 0.29075253149E+01 0.20890842206E+01
 0.18998096398E+01 0.18034272426E+01 0.18034317062E+01 0.18998178649E+01 0.20890865511E+01
 0.23617669999E+01 0.26986801422E+01 0.30684662425E+01 0.34294694281E+01 0.37376596491E+01
 0.39587779629E+01 0.40813216097E+01 0.41213382409E+01 0.41094795116E+01 0.40790300350E+01
 0.40565987645E+01 0.40565984485E+01 0.40790293952E+01 0.41094792144E+01 0.41213384436E+01
 0.40813211740E+01 0.39587754744E+01 0.37376561464E+01 0.34294692135E+01 0.30684728769E+01
 0.26986910721E+01 0.23617741380E+01 0.16286797599E+01 0.14863575934E+01 0.14392656752E+01
 0.14863718443E+01 0.16286984544E+01 0.18667873065E+01 0.21942768124E+01 0.25908943949E+01
 0.30193046120E+01 0.34294660593E+01 0.37708387962E+01 0.40080580971E+01 0.41350883904E+01
 0.41758609441E+01 0.41672444283E+01 0.41452297167E+01 0.41349291136E+01 0.41452293620E+01
 0.41672444036E+01 0.41758614518E+01 0.41350886065E+01 0.40080574379E+01 0.37708386424E+01
 0.34294692135E+01 0.30193118933E+01 0.25909016655E+01 0.21942767027E+01 0.18667756504E+01
 0.12922042302E+01 0.12049756852E+01 0.12049776996E+01 0.12922103121E+01 0.14740374241E+01
 0.17575612658E+01 0.21382555116E+01 0.25909011982E+01 0.30684696120E+01 0.35115205218E+01
 0.38655574170E+01 0.40990055432E+01 0.42161217225E+01 0.42498538000E+01 0.42418686428E+01
 0.42278643308E+01 0.42278643821E+01 0.42418689354E+01 0.42498543137E+01 0.42161219748E+01
 0.40990054734E+01 0.38655581547E+01 0.35115231357E+01 0.30684728769E+01 0.25909016655E+01
 0.21382506728E+01 0.17575523153E+01 0.14740282738E+01 0.10822830627E+01 0.10444168060E+01
 0.10822701894E+01 0.12033749020E+01 0.14245252631E+01 0.17575564896E+01 0.21942840228E+01
 0.26986950715E+01 0.32113275908E+01 0.36653490152E+01 0.40079606654E+01 0.42179570221E+01
 0.43134925135E+01 0.43355652255E+01 0.43276146161E+01 0.43211792705E+01 0.43276148459E+01
 0.43355654758E+01 0.43134923627E+01 0.42179564767E+01 0.40079606117E+01 0.36653498988E+01
 0.32113275242E+01 0.26986910721E+01 0.21942767027E+01 0.17575523153E+01 0.14245312097E+01
 0.12033897408E+01 0.97568312204E+00 0.97567442634E+00 0.10452749835E+01 0.12033722659E+01
 0.14740215572E+01 0.18667782689E+01 0.23617792737E+01 0.29075282518E+01 0.34332410961E+01
 0.38709032167E+01 0.41773286454E+01 0.43481131600E+01 0.44153621798E+01 0.44250178620E+01
 0.44181067404E+01 0.44181067302E+01 0.44250178135E+01 0.44153619623E+01 0.43481126567E+01
 0.41773281353E+01 0.38709030329E+01 0.34332404419E+01 0.29075253149E+01 0.23617741380E+01
 0.18667756504E+01 0.14740282738E+01 0.12033897408E+01 0.10452946743E+01 0.98562672701E+00
 0.10195748584E+01 0.11325887498E+01 0.13499238484E+01 0.16913196070E+01 0.21514097714E+01
 0.26910220874E+01 0.32441361732E+01 0.37375669851E+01 0.41145192255E+01 0.43518357357E+01
 0.44663827206E+01 0.44998700378E+01 0.44975820988E+01 0.44928064332E+01 0.44975891462E+01
 0.44998699689E+01 0.44663756184E+01 0.43518358806E+01 0.41145265457E+01 0.37375669322E+01
 0.32441283084E+01 0.26910206839E+01 0.21514159428E+01 0.16913209036E+01 0.13499211383E+01
 0.11325948134E+01 0.10195863943E+01 0.10195748584E+01 0.10930353450E+01 0.12608005221E+01
 0.15484206297E+01 0.19638852040E+01 0.24824207418E+01 0.30468213968E+01 0.35832097037E+01
 0.40246267092E+01 0.43316275790E+01 0.45030755969E+01 0.45714915996E+01 0.45823253932E+01
 0.45761303612E+01 0.45761351315E+01 0.45823301219E+01 0.45714868222E+01 0.45030711429E+01
 0.43316330245E+01 0.40246321097E+01 0.35832056069E+01 0.30468185864E+01 0.24824293111E+01
 0.19638924675E+01 0.15484111198E+01 0.12607815642E+01 0.10930232926E+01 0.10195720367E+01
 0.11325887498E+01 0.12608005221E+01 0.15009914955E+01 0.18681302272E+01 0.23500235494E+01
 0.29010698527E+01 0.34524931720E+01 0.39336918423E+01 0.42942879384E+01 0.45177761506E+01
 0.46239244613E+01 0.46535014816E+01 0.46499161540E+01 0.46448997845E+01 0.46499219945E+01
 0.46535013083E+01 0.46239184797E+01 0.45177763609E+01 0.42942939751E+01 0.39336916182E+01
 0.34524879929E+01 0.29010737094E+01 0.23500354897E+01 0.18681319972E+01 0.15009762197E+01
 0.12607818637E+01 0.11325791128E+01 0.10933709332E+01 0.13499238484E+01 0.15484206297E+01
 0.18681302272E+01 0.23047235503E+01 0.28238608581E+01 0.33653897786E+01 0.38606312852E+01
 0.42537501864E+01 0.45173002084E+01 0.46582095324E+01 0.47091879262E+01 0.47120500321E+01
 0.47031658674E+01 0.47031691470E+01 0.47120532059E+01 0.47091844026E+01 0.46582060542E+01
 0.45173031580E+01 0.42537522887E+01 0.38606259022E+01 0.33653850929E+01 0.28238656247E+01
 0.23047314728E+01 0.18681323693E+01 0.15484208075E+01 0.13499281009E+01 0.12579723073E+01
 0.12579690360E+01 0.16913196070E+01 0.19638852040E+01 0.23500235494E+01 0.28238608581E+01
 0.33348610271E+01 0.38201183996E+01 0.42232434219E+01 0.45103431792E+01 0.46779240233E+01
 0.47493428506E+01 0.47613767166E+01 0.47509241269E+01 0.47442988974E+01 0.47509276787E+01
 0.47613768313E+01 0.47493394389E+01 0.46779239850E+01 0.45103464423E+01 0.42232424706E+01
 0.38201120436E+01 0.33348558700E+01 0.28238597474E+01 0.23500253732E+01 0.19638939073E+01
 0.16913383862E+01 0.15343873311E+01 0.14838278410E+01 0.15343695099E+01 0.21514097714E+01
 0.24824207418E+01 0.29010698527E+01 0.33653897786E+01 0.38201183996E+01 0.42119789200E+01
 0.45046285780E+01 0.46874365896E+01 0.47750075169E+01 0.47971964818E+01 0.47879877109E+01
 0.47755571649E+01 0.47755589723E+01 0.47879897085E+01 0.47971950924E+01 0.47750060224E+01
 0.46874389494E+01 0.45046321567E+01 0.42119792405E+01 0.38201152917E+01 0.33653842171E+01
 0.29010620237E+01 0.24824157279E+01 0.21514158400E+01 0.19291218678E+01 0.18193006811E+01
 0.18192925088E+01 0.19291070052E+01 0.26910220874E+01 0.30468213968E+01 0.34524931720E+01
 0.38606312852E+01 0.42232434219E+01 0.45046285780E+01 0.46901786490E+01 0.47874383214E+01
 0.48189663476E+01 0.48136273609E+01 0.47981381694E+01 0.47908222239E+01 0.47981396762E+01
 0.48136274139E+01 0.48189647650E+01 0.47874381681E+01 0.46901810675E+01 0.45046320588E+01
 0.42232472967E+01 0.38606346186E+01 0.34524917204E+01 0.30468120938E+01 0.26910095619E+01
 0.24204098967E+01 0.22539732205E+01 0.21981554386E+01 0.22539750925E+01 0.24204177433E+01
 0.32441361732E+01 0.35832097037E+01 0.39336918423E+01 0.42537501864E+01 0.45103431792E+01
 0.46874365896E+01 0.47874383214E+01 0.48262760502E+01 0.48268176843E+01 0.48120623496E+01
 0.47998814807E+01 0.47998819216E+01 0.48120626282E+01 0.48268167269E+01 0.48262746785E+01
 0.47874373169E+01 0.46874357158E+01 0.45103440134E+01 0.42537561097E+01 0.39337020210E+01
 0.35832163513E+01 0.32441318428E+01 0.29566437415E+01 0.27509309431E+01 0.26444891548E+01
 0.26444950422E+01 0.27509452665E+01 0.29566576202E+01 0.37375669851E+01 0.40246267092E+01
 0.42942879384E+01 0.45173002084E+01 0.46779240233E+01 0.47750075169E+01 0.48189663476E+01
 0.48268176843E+01 0.48168008897E+01 0.48041964427E+01 0.47988692956E+01 0.48041967958E+01
 0.48168007922E+01 0.48268172055E+01 0.48189656423E+01 0.47750049558E+01 0.46779185664E+01
 0.45172956714E+01 0.42942907981E+01 0.40246379648E+01 0.37375791494E+01 0.34686648100E+01
 0.32514702473E+01 0.31113413881E+01 0.30630616583E+01 0.31113470543E+01 0.32514744047E+01
 0.34686603750E+01 0.41145192255E+01 0.43316275790E+01 0.45177761506E+01 0.46582095324E+01
 0.47493428506E+01 0.47971964818E+01 0.48136273609E+01 0.48120623496E+01 0.48041964427E+01
 0.47982115824E+01 0.47982119675E+01 0.48041970146E+01 0.48120628375E+01 0.48136287635E+01
 0.47971983326E+01 0.47493414947E+01 0.46582022481E+01 0.45177662567E+01 0.43316225171E+01
 0.41145232195E+01 0.38911743410E+01 0.36908906091E+01 0.35407234399E+01 0.34605205170E+01
 0.34605182435E+01 0.35407164669E+01 0.36908798728E+01 0.38911639631E+01 0.43518357357E+01
 0.45030755969E+01 0.46239244613E+01 0.47091879262E+01 0.47613767166E+01 0.47879877109E+01
 0.47981381694E+01 0.47998814807E+01 0.47988692956E+01 0.47982119675E+01 0.47988698560E+01
 0.47998816407E+01 0.47981386742E+01 0.47879908398E+01 0.47613823129E+01 0.47091915797E+01
 0.46239213187E+01 0.45030655025E+01 0.43518240366E+01 0.41838066097E+01 0.40191201864E+01
 0.38804767421E+01 0.37881635968E+01 0.37558032129E+01 0.37881558838E+01 0.38804678152E+01
 0.40191175219E+01 0.41838129199E+01 0.44663827206E+01 0.45714915996E+01 0.46535014816E+01
 0.47120500321E+01 0.47509241269E+01 0.47755571649E+01 0.47908222239E+01 0.47998819216E+01
 0.48041967958E+01 0.48041970146E+01 0.47998816407E+01 0.47908204247E+01 0.47755554000E+01
 0.47509258913E+01 0.47120570781E+01 0.46535109873E+01 0.45714972279E+01 0.44663793914E+01
 0.43443622351E+01 0.42174514285E+01 0.41014803035E+01 0.40128088062E+01 0.39647565140E+01
 0.39647545821E+01 0.40128069009E+01 0.41014848969E+01 0.42174628307E+01 0.43443733385E+01
 0.44998700378E+01 0.45823253932E+01 0.46499161540E+01 0.47031658674E+01 0.47442988974E+01
 0.47755589723E+01 0.47981396762E+01 0.48120626282E+01 0.48168007922E+01 0.48120628375E+01
 0.47981386742E+01 0.47755554000E+01 0.47442935104E+01 0.47031623946E+01 0.46499191491E+01
 0.45823356571E+01 0.44998820890E+01 0.44052950975E+01 0.43052601662E+01 0.42097878427E+01
 0.41304104140E+01 0.40777724649E+01 0.40593348404E+01 0.40777749855E+01 0.41304167587E+01
 0.42097958781E+01 0.43052634754E+01 0.44052892159E+01 0.44975820988E+01 0.45761303612E+01
 0.46448997845E+01 0.47031691470E+01 0.47509276787E+01 0.47879897085E+01 0.48136274139E+01
 0.48268167269E+01 0.48268172055E+01 0.48136287635E+01 0.47879908398E+01 0.47509258913E+01
 0.47031623946E+01 0.46448903157E+01 0.45761246815E+01 0.44975854638E+01 0.44116711841E+01
 0.43230117453E+01 0.42382772222E+01 0.41652587196E+01 0.41115199177E+01 0.40830171921E+01
 0.40830190572E+01 0.41115238313E+01 0.41652603102E+01 0.42382722945E+01 0.43230006983E+01
 0.44116603266E+01 0.44928064332E+01 0.45761351315E+01 0.46499219945E+01 0.47120532059E+01
 0.47613768313E+01 0.47971950924E+01 0.48189647650E+01 0.48262746785E+01 0.48189656423E+01
 0.47971983326E+01 0.47613823129E+01 0.47120570781E+01 0.46499191491E+01 0.45761246815E+01
 0.44927941467E+01 0.44034485200E+01 0.43130736508E+01 0.42276843426E+01 0.41535237110E+01
 0.40961994707E+01 0.40600263626E+01 0.40476709497E+01 0.40600273638E+01 0.40961978075E+01
 0.41535169835E+01 0.42276757216E+01 0.43130702024E+01 0.44034545365E+01 0.44975891462E+01
 0.45823301219E+01 0.46535013083E+01 0.47091844026E+01 0.47493394389E+01 0.47750060224E+01
 0.47874381681E+01 0.47874373169E+01 0.47750049558E+01 0.47493414947E+01 0.47091915797E+01
 0.46535109873E+01 0.45823356571E+01 0.44975854638E+01 0.44034485200E+01 0.43060864820E+01
 0.42126828472E+01 0.41301782572E+01 0.40641941275E+01 0.40185267919E+01 0.39952672068E+01
 0.39952668241E+01 0.40185249125E+01 0.40641906425E+01 0.41301763999E+01 0.42126871754E+01
 0.43060972495E+01 0.44034595348E+01 0.44998699689E+01 0.45714868222E+01 0.46239184797E+01
 0.46582060542E+01 0.46779239850E+01 0.46874389494E+01 0.46901810675E+01 0.46874357158E+01
 0.46779185664E+01 0.46582022481E+01 0.46239213187E+01 0.45714972279E+01 0.44998820890E+01
 0.44116711841E+01 0.43130736508E+01 0.42126828472E+01 0.41195319360E+01 0.40412385765E+01
 0.39829484914E+01 0.39473402988E+01 0.39354033840E+01 0.39473389619E+01 0.39829476414E+01
 0.40412409866E+01 0.41195388079E+01 0.42126911299E+01 0.43130769740E+01 0.44116653581E+01
 0.44663756184E+01 0.45030711429E+01 0.45177763609E+01 0.45173031580E+01 0.45103464423E+01
 0.45046321567E+01 0.45046320588E+01 0.45103440134E+01 0.45172956714E+01 0.45177662567E+01
 0.45030655025E+01 0.44663793914E+01 0.44052950975E+01 0.43230117453E+01 0.42276843426E+01
 0.41301782572E+01 0.40412385765E+01 0.39692612229E+01 0.39194163093E+01 0.38941102188E+01
 0.38941096204E+01 0.39194159813E+01 0.39692634791E+01 0.40412428521E+01 0.41301803274E+01
 0.42276798829E+01 0.43230010399E+01 0.44052841671E+01 0.43518358806E+01 0.43316330245E+01
 0.42942939751E+01 0.42537522887E+01 0.42232424706E+01 0.42119792405E+01 0.42232472967E+01
 0.42537561097E+01 0.42942907981E+01 0.43316225171E+01 0.43518240366E+01 0.43443622351E+01
 0.43052601662E+01 0.42382772222E+01 0.41535237110E+01 0.40641941275E+01 0.39829484914E+01
 0.39194163093E+01 0.38794706317E+01 0.38658992718E+01 0.38794703466E+01 0.39194170318E+01
 0.39829495440E+01 0.40641921587E+01 0.41535168382E+01 0.42382688223E+01 0.43052568988E+01
 0.43443679474E+01 0.41145265457E+01 0.40246321097E+01 0.39336916182E+01 0.38606259022E+01
 0.38201120436E+01 0.38201152917E+01 0.38606346186E+01 0.39337020210E+01 0.40246379648E+01
 0.41145232195E+01 0.41838066097E+01 0.42174514285E+01 0.42097878427E+01 0.41652587196E+01
 0.40961994707E+01 0.40185267919E+01 0.39473402988E+01 0.38941102188E+01 0.38658992718E+01
 0.38658993425E+01 0.38941104799E+01 0.39473401048E+01 0.40185245897E+01 0.40961953176E+01
 0.41652564112E+01 0.42097921262E+01 0.42174622094E+01 0.41838173807E+01 0.37375669322E+01
 0.35832056069E+01 0.34524879929E+01 0.33653850929E+01 0.33348558700E+01 0.33653842171E+01
 0.34524917204E+01 0.35832163513E+01 0.37375791494E+01 0.38911743410E+01 0.40191201864E+01
 0.41014803035E+01 0.41304104140E+01 0.41115199177E+01 0.40600263626E+01 0.39952672068E+01
 0.39354033840E+01 0.38941096204E+01 0.38794703466E+01 0.38941104799E+01 0.39354035582E+01
 0.39952659369E+01 0.40600253109E+01 0.41115220585E+01 0.41304170301E+01 0.41014885192E+01
 0.40191237720E+01 0.38911687807E+01 0.32441283084E+01 0.30468185864E+01 0.29010737094E+01
 0.28238656247E+01 0.28238597474E+01 0.29010620237E+01 0.30468120938E+01 0.32441318428E+01
 0.34686648100E+01 0.36908906091E+01 0.38804767421E+01 0.40128088062E+01 0.40777724649E+01
 0.40830171921E+01 0.40476709497E+01 0.39952668241E+01 0.39473389619E+01 0.39194159813E+01
 0.39194170318E+01 0.39473401048E+01 0.39952659369E+01 0.40476702782E+01 0.40830199845E+01
 0.40777772408E+01 0.40128104484E+01 0.38804720561E+01 0.36908808629E+01 0.34686548816E+01
 0.26910206839E+01 0.24824293111E+01 0.23500354897E+01 0.23047314728E+01 0.23500253732E+01
 0.24824157279E+01 0.26910095619E+01 0.29566437415E+01 0.32514702473E+01 0.35407234399E+01
 0.37881635968E+01 0.39647565140E+01 0.40593348404E+01 0.40830190572E+01 0.40600273638E+01
 0.40185249125E+01 0.39829476414E+01 0.39692634791E+01 0.39829495440E+01 0.40185245897E+01
 0.40600253109E+01 0.40830199845E+01 0.40593378270E+01 0.39647546022E+01 0.37881549477E+01
 0.35407150438E+01 0.32514688116E+01 0.29566496869E+01 0.21514159428E+01 0.19638924675E+01
 0.18681319972E+01 0.18681323693E+01 0.19638939073E+01 0.21514158400E+01 0.24204098967E+01
 0.27509309431E+01 0.31113413881E+01 0.34605205170E+01 0.37558032129E+01 0.39647545821E+01
 0.40777749855E+01 0.41115238313E+01 0.40961978075E+01 0.40641906425E+01 0.40412409866E+01
 0.40412428521E+01 0.40641921587E+01 0.40961953176E+01 0.41115220585E+01 0.40777772408E+01
 0.39647546022E+01 0.37557967376E+01 0.34605158210E+01 0.31113474778E+01 0.27509430292E+01
 0.24204169756E+01 0.16913209036E+01 0.15484111198E+01 0.15009762197E+01 0.15484208075E+01
 0.16913383862E+01 0.19291218678E+01 0.22539732205E+01 0.26444891548E+01 0.30630616583E+01
 0.34605182435E+01 0.37881558838E+01 0.40128069009E+01 0.41304167587E+01 0.41652603102E+01
 0.41535169835E+01 0.41301763999E+01 0.41195388079E+01 0.41301803274E+01 0.41535168382E+01
 0.41652564112E+01 0.41304170301E+01 0.40128104484E+01 0.37881549477E+01 0.34605158210E+01
 0.30630683600E+01 0.26445018670E+01 0.22539755926E+01 0.19291082749E+01 0.13499211383E+01
 0.12607815642E+01 0.12607818637E+01 0.13499281009E+01 0.15343873311E+01 0.18193006811E+01
 0.21981554386E+01 0.26444950422E+01 0.31113470543E+01 0.35407164669E+01 0.38804678152E+01
 0.41014848969E+01 0.42097958781E+01 0.42382722945E+01 0.42276757216E+01 0.42126871754E+01
 0.42126911299E+01 0.42276798829E+01 0.42382688223E+01 0.42097921262E+01 0.41014885192E+01
 0.38804720561E+01 0.35407150438E+01 0.31113474778E+01 0.26445018670E+01 0.21981567704E+01
 0.18192874879E+01 0.15343705756E+01 0.11325948134E+01 0.10930232926E+01 0.11325791128E+01
 0.12579723073E+01 0.14838278410E+01 0.18192925088E+01 0.22539750925E+01 0.27509452665E+01
 0.32514744047E+01 0.36908798728E+01 0.40191175219E+01 0.42174628307E+01 0.43052634754E+01
 0.43230006983E+01 0.43130702024E+01 0.43060972495E+01 0.43130769740E+01 0.43230010399E+01
 0.43052568988E+01 0.42174622094E+01 0.40191237720E+01 0.36908808629E+01 0.32514688116E+01
 0.27509430292E+01 0.22539755926E+01 0.18192874879E+01 0.14838236110E+01 0.12579820575E+01
 0.10195863943E+01 0.10195720367E+01 0.10933709332E+01 0.12579690360E+01 0.15343695099E+01
 0.19291070052E+01 0.24204177433E+01 0.29566576202E+01 0.34686603750E+01 0.38911639631E+01
 0.41838129199E+01 0.43443733385E+01 0.44052892159E+01 0.44116603266E+01 0.44034545365E+01
 0.44034595348E+01 0.44116653581E+01 0.44052841671E+01 0.43443679474E+01 0.41838173807E+01
 0.38911687807E+01 0.34686548816E+01 0.29566496869E+01 0.24204169756E+01 0.19291082749E+01
 0.15343705756E+01 0.12579820575E+01 0.10933968919E+01 0.11290771522E+01 0.11691511837E+01
 0.12975509751E+01 0.15317977950E+01 0.18823909906E+01 0.23368470619E+01 0.28535699953E+01
 0.33695152442E+01 0.38185740942E+01 0.41523427321E+01 0.43547435856E+01 0.44460076011E+01
 0.44664001765E+01 0.44581119938E+01 0.44516932782E+01 0.44581244967E+01 0.44664001089E+01
 0.44459950612E+01 0.43547437977E+01 0.41523556349E+01 0.38185740874E+01 0.33695014944E+01
 0.28535673414E+01 0.23368570992E+01 0.18823919858E+01 0.15317921533E+01 0.12975617825E+01
 0.11691720584E+01 0.11691511837E+01 0.12540122919E+01 0.14386939315E+01 0.17395722292E+01
 0.21560606844E+01 0.26587395164E+01 0.31912240637E+01 0.36853132793E+01 0.40822127486E+01
 0.43501176845E+01 0.44931818819E+01 0.45442769293E+01 0.45462968335E+01 0.45366913965E+01
 0.45366997470E+01 0.45463050603E+01 0.45442683619E+01 0.44931737166E+01 0.43501268859E+01
 0.40822220630E+01 0.36853055311E+01 0.31912166506E+01 0.26587498559E+01 0.21560702921E+01
 0.17395604293E+01 0.14386758108E+01 0.12540091242E+01 0.11691543422E+01 0.12975509751E+01
 0.14386939315E+01 0.16917881795E+01 0.20630272526E+01 0.25340736780E+01 0.30581565196E+01