   2   2   0   0
  0.2284762E+02  0.3194050E-09  0.3194050E-09  0.5171980E-09  0.5000000E-15
  1.000000000000000E-004
  CAR 
 Mg                                      
     55.59411793     -7.14462195  301      2.58276231      1.00000000
     -7.145  0.0000E+00  0.0000E+00
     -6.935  0.0000E+00  0.0000E+00
     -6.726  0.0000E+00  0.0000E+00
     -6.517  0.0000E+00  0.0000E+00
     -6.308  0.0000E+00  0.0000E+00
     -6.099  0.0000E+00  0.0000E+00
     -5.890  0.0000E+00  0.0000E+00
     -5.681  0.0000E+00  0.0000E+00
     -5.472  0.0000E+00  0.0000E+00
     -5.262  0.0000E+00  0.0000E+00
     -5.053  0.0000E+00  0.0000E+00
     -4.844  0.0000E+00  0.0000E+00
     -4.635  0.0000E+00  0.0000E+00
     -4.426  0.4686E-06  0.9799E-07
     -4.217  0.1656E-01  0.3464E-02
     -4.008  0.1381E+00  0.3235E-01
     -3.799  0.1843E+00  0.7088E-01
     -3.589  0.2498E+00  0.1231E+00
     -3.380  0.2131E+00  0.1677E+00
     -3.171  0.4203E+00  0.2556E+00
     -2.962  0.3466E+00  0.3281E+00
     -2.753  0.2846E+00  0.3876E+00
     -2.544  0.3550E+00  0.4618E+00
     -2.335  0.6625E+00  0.6004E+00
     -2.126  0.3391E+00  0.6713E+00
     -1.916  0.4999E+00  0.7758E+00
     -1.707  0.3836E+00  0.8560E+00
     -1.498  0.5844E+00  0.9782E+00
     -1.289  0.6829E+00  0.1121E+01
     -1.080  0.6216E+00  0.1251E+01
     -0.871  0.3133E+00  0.1317E+01
     -0.662  0.6779E+00  0.1458E+01
     -0.452  0.6900E+00  0.1603E+01
     -0.243  0.6489E+00  0.1738E+01
     -0.034  0.8288E+00  0.1912E+01
      0.175  0.6373E+00  0.2045E+01
      0.384  0.4084E+00  0.2130E+01
      0.593  0.8000E+00  0.2298E+01
      0.802  0.8839E+00  0.2483E+01
      1.011  0.8596E+00  0.2662E+01
      1.221  0.7464E+00  0.2818E+01
      1.430  0.8260E+00  0.2991E+01
      1.639  0.9795E+00  0.3196E+01
      1.848  0.6577E+00  0.3333E+01
      2.057  0.7053E+00  0.3481E+01
      2.266  0.8031E+00  0.3649E+01
      2.475  0.8574E+00  0.3828E+01
      2.684  0.1107E+01  0.4060E+01
      2.894  0.7011E+00  0.4206E+01
      3.103  0.7350E+00  0.4360E+01
      3.312  0.8360E+00  0.4535E+01
      3.521  0.8723E+00  0.4717E+01
      3.730  0.1474E+01  0.5026E+01
      3.939  0.7410E+00  0.5181E+01
      4.148  0.7411E+00  0.5336E+01
      4.357  0.1060E+01  0.5557E+01
      4.567  0.1036E+01  0.5774E+01
      4.776  0.8704E+00  0.5956E+01
      4.985  0.9814E+00  0.6161E+01
      5.194  0.1141E+01  0.6400E+01
      5.403  0.9779E+00  0.6605E+01
      5.612  0.1121E+01  0.6839E+01
      5.821  0.1115E+01  0.7072E+01
      6.031  0.7087E+00  0.7220E+01
      6.240  0.1615E+01  0.7558E+01
      6.449  0.1051E+01  0.7778E+01
      6.658  0.1077E+01  0.8003E+01
      6.867  0.1069E+01  0.8227E+01
      7.076  0.1087E+01  0.8454E+01
      7.285  0.1225E+01  0.8710E+01
      7.494  0.9716E+00  0.8913E+01
      7.704  0.8770E+00  0.9097E+01
      7.913  0.1060E+01  0.9318E+01
      8.122  0.1373E+01  0.9605E+01
      8.331  0.1258E+01  0.9868E+01
      8.540  0.1396E+01  0.1016E+02
      8.749  0.6536E+00  0.1030E+02
      8.958  0.9205E+00  0.1049E+02
      9.167  0.1682E+01  0.1084E+02
      9.377  0.2007E+01  0.1126E+02
      9.586  0.8399E+00  0.1144E+02
      9.795  0.1122E+01  0.1167E+02
     10.004  0.8305E+00  0.1185E+02
     10.213  0.1260E+01  0.1211E+02
     10.422  0.1832E+01  0.1249E+02
     10.631  0.1216E+01  0.1275E+02
     10.840  0.1654E+01  0.1309E+02
     11.050  0.9960E+00  0.1330E+02
     11.259  0.1540E+01  0.1362E+02
     11.468  0.1343E+01  0.1390E+02
     11.677  0.1027E+01  0.1412E+02
     11.886  0.1441E+01  0.1442E+02
     12.095  0.1420E+01  0.1472E+02
     12.304  0.1396E+01  0.1501E+02
     12.514  0.9347E+00  0.1520E+02
     12.723  0.1513E+01  0.1552E+02
     12.932  0.2136E+01  0.1597E+02
     13.141  0.1540E+01  0.1629E+02
     13.350  0.1450E+01  0.1659E+02
     13.559  0.1290E+01  0.1686E+02
     13.768  0.1217E+01  0.1712E+02
     13.977  0.1364E+01  0.1740E+02
     14.187  0.1548E+01  0.1773E+02
     14.396  0.1213E+01  0.1798E+02
     14.605  0.1240E+01  0.1824E+02
     14.814  0.1575E+01  0.1857E+02
     15.023  0.1547E+01  0.1889E+02
     15.232  0.1691E+01  0.1924E+02
     15.441  0.1716E+01  0.1960E+02
     15.650  0.1185E+01  0.1985E+02
     15.860  0.1819E+01  0.2023E+02
     16.069  0.1229E+01  0.2049E+02
     16.278  0.1767E+01  0.2086E+02
     16.487  0.1180E+01  0.2110E+02
     16.696  0.2328E+01  0.2159E+02
     16.905  0.1178E+01  0.2184E+02
     17.114  0.1541E+01  0.2216E+02
     17.323  0.2049E+01  0.2259E+02
     17.533  0.1852E+01  0.2298E+02
     17.742  0.1432E+01  0.2328E+02
     17.951  0.1435E+01  0.2358E+02
     18.160  0.2188E+01  0.2403E+02
     18.369  0.1689E+01  0.2439E+02
     18.578  0.1173E+01  0.2463E+02
     18.787  0.1996E+01  0.2505E+02
     18.997  0.1466E+01  0.2536E+02
     19.206  0.1506E+01  0.2567E+02
     19.415  0.1862E+01  0.2606E+02
     19.624  0.2093E+01  0.2650E+02
     19.833  0.1593E+01  0.2683E+02
     20.042  0.2155E+01  0.2728E+02
     20.251  0.1243E+01  0.2754E+02
     20.460  0.1691E+01  0.2790E+02
     20.670  0.1781E+01  0.2827E+02
     20.879  0.2233E+01  0.2873E+02
     21.088  0.1610E+01  0.2907E+02
     21.297  0.2327E+01  0.2956E+02
     21.506  0.1681E+01  0.2991E+02
     21.715  0.2254E+01  0.3038E+02
     21.924  0.1859E+01  0.3077E+02
     22.133  0.1730E+01  0.3113E+02
     22.343  0.1213E+01  0.3139E+02
     22.552  0.2120E+01  0.3183E+02
     22.761  0.1792E+01  0.3220E+02
     22.970  0.2047E+01  0.3263E+02
     23.179  0.1266E+01  0.3290E+02
     23.388  0.2292E+01  0.3338E+02
     23.597  0.2411E+01  0.3388E+02
     23.806  0.2130E+01  0.3432E+02
     24.016  0.1517E+01  0.3464E+02
     24.225  0.1396E+01  0.3493E+02
     24.434  0.2104E+01  0.3537E+02
     24.643  0.2118E+01  0.3582E+02
     24.852  0.2172E+01  0.3627E+02
     25.061  0.1505E+01  0.3659E+02
     25.270  0.2059E+01  0.3702E+02
     25.480  0.1749E+01  0.3738E+02
     25.689  0.1560E+01  0.3771E+02
     25.898  0.1646E+01  0.3805E+02
     26.107  0.2233E+01  0.3852E+02
     26.316  0.1674E+01  0.3887E+02
     26.525  0.1832E+01  0.3925E+02
     26.734  0.1999E+01  0.3967E+02
     26.943  0.1021E+01  0.3988E+02
     27.153  0.8546E+00  0.4006E+02
     27.362  0.1281E+01  0.4033E+02
     27.571  0.1675E+01  0.4068E+02
     27.780  0.1975E+01  0.4109E+02
     27.989  0.1357E+01  0.4138E+02
     28.198  0.1437E+01  0.4168E+02
     28.407  0.1015E+01  0.4189E+02
     28.616  0.7989E+00  0.4206E+02
     28.826  0.2268E+01  0.4253E+02
     29.035  0.1286E+01  0.4280E+02
     29.244  0.1858E+01  0.4319E+02
     29.453  0.1499E+01  0.4350E+02
     29.662  0.1205E+01  0.4375E+02
     29.871  0.2556E+01  0.4429E+02
     30.080  0.1968E+01  0.4470E+02
     30.289  0.1610E+01  0.4504E+02
     30.499  0.1937E+01  0.4544E+02
     30.708  0.2262E+01  0.4592E+02
     30.917  0.2227E+01  0.4638E+02
     31.126  0.2099E+01  0.4682E+02
     31.335  0.1485E+01  0.4713E+02
     31.544  0.1800E+01  0.4751E+02
     31.753  0.1490E+01  0.4782E+02
     31.963  0.1837E+01  0.4820E+02
     32.172  0.2191E+01  0.4866E+02
     32.381  0.1884E+01  0.4906E+02
     32.590  0.2308E+01  0.4954E+02
     32.799  0.2015E+01  0.4996E+02
     33.008  0.1983E+01  0.5037E+02
     33.217  0.2390E+01  0.5087E+02
     33.426  0.2356E+01  0.5137E+02
     33.636  0.2481E+01  0.5189E+02
     33.845  0.1209E+01  0.5214E+02
     34.054  0.2236E+01  0.5261E+02
     34.263  0.2897E+01  0.5321E+02
     34.472  0.2375E+01  0.5371E+02
     34.681  0.1772E+01  0.5408E+02
     34.890  0.2166E+01  0.5453E+02
     35.099  0.2437E+01  0.5504E+02
     35.309  0.1691E+01  0.5540E+02
     35.518  0.1893E+01  0.5579E+02
     35.727  0.2348E+01  0.5628E+02
     35.936  0.2272E+01  0.5676E+02
     36.145  0.2178E+01  0.5721E+02
     36.354  0.2653E+01  0.5777E+02
     36.563  0.2100E+01  0.5821E+02
     36.772  0.2659E+01  0.5876E+02
     36.982  0.2451E+01  0.5928E+02
     37.191  0.1957E+01  0.5969E+02
     37.400  0.2023E+01  0.6011E+02
     37.609  0.1478E+01  0.6042E+02
     37.818  0.2649E+01  0.6097E+02
     38.027  0.2225E+01  0.6144E+02
     38.236  0.2339E+01  0.6193E+02
     38.446  0.1752E+01  0.6229E+02
     38.655  0.2016E+01  0.6271E+02
     38.864  0.2189E+01  0.6317E+02
     39.073  0.2339E+01  0.6366E+02
     39.282  0.2688E+01  0.6422E+02
     39.491  0.2287E+01  0.6470E+02
     39.700  0.2497E+01  0.6522E+02
     39.909  0.2100E+01  0.6566E+02
     40.119  0.1875E+01  0.6605E+02
     40.328  0.2228E+01  0.6652E+02
     40.537  0.2310E+01  0.6700E+02
     40.746  0.2627E+01  0.6755E+02
     40.955  0.2336E+01  0.6804E+02
     41.164  0.2482E+01  0.6856E+02
     41.373  0.2362E+01  0.6905E+02
     41.582  0.1815E+01  0.6943E+02
     41.792  0.3080E+01  0.7008E+02
     42.001  0.2386E+01  0.7058E+02
     42.210  0.1814E+01  0.7096E+02
     42.419  0.2214E+01  0.7142E+02
     42.628  0.2739E+01  0.7199E+02
     42.837  0.2120E+01  0.7244E+02
     43.046  0.1599E+01  0.7277E+02
     43.255  0.2111E+01  0.7321E+02
     43.465  0.2683E+01  0.7377E+02
     43.674  0.1828E+01  0.7416E+02
     43.883  0.2450E+01  0.7467E+02
     44.092  0.2138E+01  0.7511E+02
     44.301  0.1638E+01  0.7546E+02
     44.510  0.2176E+01  0.7591E+02
     44.719  0.2522E+01  0.7644E+02
     44.929  0.2201E+01  0.7690E+02
     45.138  0.2666E+01  0.7746E+02
     45.347  0.3270E+01  0.7814E+02
     45.556  0.2464E+01  0.7866E+02
     45.765  0.3248E+01  0.7934E+02
     45.974  0.3108E+01  0.7999E+02
     46.183  0.2191E+01  0.8044E+02
     46.392  0.2211E+01  0.8091E+02
     46.602  0.2634E+01  0.8146E+02
     46.811  0.3609E+01  0.8221E+02
     47.020  0.2729E+01  0.8278E+02
     47.229  0.2779E+01  0.8336E+02
     47.438  0.1600E+01  0.8370E+02
     47.647  0.2150E+01  0.8415E+02
     47.856  0.2737E+01  0.8472E+02
     48.065  0.2800E+01  0.8531E+02
     48.275  0.1947E+01  0.8571E+02
     48.484  0.2541E+01  0.8624E+02
     48.693  0.2379E+01  0.8674E+02
     48.902  0.2415E+01  0.8725E+02
     49.111  0.2153E+01  0.8770E+02
     49.320  0.2809E+01  0.8828E+02
     49.529  0.3336E+01  0.8898E+02
     49.739  0.3213E+01  0.8965E+02
     49.948  0.3260E+01  0.9034E+02
     50.157  0.3182E+01  0.9100E+02
     50.366  0.3393E+01  0.9171E+02
     50.575  0.3270E+01  0.9240E+02
     50.784  0.2606E+01  0.9294E+02
     50.993  0.3102E+01  0.9359E+02
     51.202  0.3625E+01  0.9435E+02
     51.412  0.2604E+01  0.9489E+02
     51.621  0.2294E+01  0.9537E+02
     51.830  0.1506E+01  0.9569E+02
     52.039  0.7451E+00  0.9584E+02
     52.248  0.4518E+00  0.9594E+02
     52.457  0.1682E+00  0.9597E+02
     52.666  0.4502E-01  0.9598E+02
     52.875  0.8892E-01  0.9600E+02
     53.085  0.5550E-05  0.9600E+02
     53.294  0.0000E+00  0.9600E+02
     53.503  0.0000E+00  0.9600E+02
     53.712  0.0000E+00  0.9600E+02
     53.921  0.0000E+00  0.9600E+02
     54.130  0.0000E+00  0.9600E+02
     54.339  0.0000E+00  0.9600E+02
     54.548  0.0000E+00  0.9600E+02
     54.758  0.0000E+00  0.9600E+02
     54.967  0.0000E+00  0.9600E+02
     55.176  0.0000E+00  0.9600E+02
     55.385  0.0000E+00  0.9600E+02
     55.594  0.0000E+00  0.9600E+02
