    2    2    1    1
  0.2284762E+02  0.3194050E-09  0.3194050E-09  0.5171980E-09  0.5000000E-15
  1.000000000000000E-004
  CAR 
 Mg                                      
      4    133     48
 
  0.0000000E+00  0.0000000E+00  0.0000000E+00  0.5787037E-03
      1         -4.292861   1.000000
      2          0.981800   1.000000
      3          1.443312   1.000000
      4         13.603822   0.000000
      5         13.603840   0.000000
      6         13.719348   0.000000
      7         13.719353   0.000000
      8         14.541632   0.000000
      9         16.103159   0.000000
     10         17.276831   0.000000
     11         17.310996   0.000000
     12         17.794383   0.000000
     13         17.794386   0.000000
     14         18.156027   0.000000
     15         18.156046   0.000000
     16         19.036204   0.000000
     17         19.036206   0.000000
     18         19.740825   0.000000
     19         19.740827   0.000000
     20         20.060810   0.000000
     21         21.594105   0.000000
     22         22.432168   0.000000
     23         28.415839   0.000000
     24         31.306633   0.000000
     25         31.306640   0.000000
     26         34.806977   0.000000
     27         34.806994   0.000000
     28         35.805476   0.000000
     29         35.805483   0.000000
     30         35.893078   0.000000
     31         35.893085   0.000000
     32         37.849369   0.000000
     33         38.265361   0.000000
     34         39.820572   0.000000
     35         41.040225   0.000000
     36         42.382394   0.000000
     37         44.972103   0.000000
     38         48.063193   0.000000
     39         48.063371   0.000000
     40         50.605705   0.000000
     41         50.684791   0.000000
     42         50.685049   0.000000
     43         51.191869   0.000000
     44         51.195559   0.000000
     45         51.325006   0.000000
     46         51.501322   0.000000
     47         51.503393   0.000000
     48         52.150596   0.000000
 
  0.8333333E-01 -0.1036144E-17  0.0000000E+00  0.3472222E-02
      1         -4.155947   1.000000
      2          1.106770   1.000000
      3          1.576263   1.000000
      4         11.325367   0.000000
      5         12.400083   0.000000
      6         13.213130   0.000000
      7         15.109934   0.000000
      8         15.435494   0.000000
      9         16.029415   0.000000
     10         16.858768   0.000000
     11         17.038194   0.000000
     12         17.271727   0.000000
     13         17.419015   0.000000
     14         17.450952   0.000000
     15         18.165728   0.000000
     16         18.820619   0.000000
     17         19.635979   0.000000
     18         20.009454   0.000000
     19         20.735354   0.000000
     20         21.450717   0.000000
     21         23.338483   0.000000
     22         23.441203   0.000000
     23         28.784004   0.000000
     24         30.469563   0.000000
     25         30.865338   0.000000
     26         34.029908   0.000000
     27         34.448560   0.000000
     28         34.642108   0.000000
     29         35.530289   0.000000
     30         36.287721   0.000000
     31         37.208968   0.000000
     32         38.362697   0.000000
     33         39.438129   0.000000
     34         40.771212   0.000000
     35         41.371446   0.000000
     36         42.888420   0.000000
     37         45.038952   0.000000
     38         45.255687   0.000000
     39         47.085322   0.000000
     40         48.447904   0.000000
     41         49.558288   0.000000
     42         50.100614   0.000000
     43         50.863891   0.000000
     44         51.449208   0.000000
     45         51.716206   0.000000
     46         51.719911   0.000000
     47         52.033796   0.000000
     48         52.392504   0.000000
 
  0.1666667E+00 -0.2042584E-16  0.0000000E+00  0.3472222E-02
      1         -3.746388   1.000000
      2          1.481925   1.000000
      3          1.969928   1.000000
      4          8.797473   0.000000
      5         11.367153   0.000000
      6         11.991675   0.000000
      7         13.544830   0.000000
      8         14.483443   0.000000
      9         15.967532   0.000000
     10         16.080435   0.000000
     11         16.439986   0.000000
     12         17.354101   0.000000
     13         17.620251   0.000000
     14         17.821172   0.000000
     15         18.074018   0.000000
     16         20.250400   0.000000
     17         21.227655   0.000000
     18         21.534727   0.000000
     19         22.496807   0.000000
     20         23.434033   0.000000
     21         25.576186   0.000000
     22         25.980256   0.000000
     23         29.163663   0.000000
     24         29.519415   0.000000
     25         30.114006   0.000000
     26         32.225034   0.000000
     27         33.638156   0.000000
     28         33.806133   0.000000
     29         35.752678   0.000000
     30         37.147156   0.000000
     31         38.446761   0.000000
     32         39.535380   0.000000
     33         41.585810   0.000000
     34         41.608801   0.000000
     35         41.926272   0.000000
     36         42.356240   0.000000
     37         44.518381   0.000000
     38         44.959211   0.000000
     39         45.208575   0.000000
     40         45.309778   0.000000
     41         49.129436   0.000000
     42         49.155880   0.000000
     43         49.265239   0.000000
     44         49.403817   0.000000
     45         50.852183   0.000000
     46         51.684526   0.000000
     47         51.823269   0.000000
     48         51.879446   0.000000
 
  0.2500000E+00 -0.1038039E-16  0.0000000E+00  0.3472222E-02
      1         -3.067688   1.000000
      2          2.107851   1.000000
      3          2.599973   0.313207
      4          6.461581   0.000000
      5         10.564386   0.000000
      6         10.684812   0.000000
      7         11.186111   0.000000
      8         12.896439   0.000000
      9         15.075942   0.000000
     10         15.622095   0.000000
     11         16.415483   0.000000
     12         16.813850   0.000000
     13         18.292368   0.000000
     14         18.669126   0.000000
     15         19.103300   0.000000
     16         21.726183   0.000000
     17         23.278796   0.000000
     18         24.415995   0.000000
     19         24.546040   0.000000
     20         25.544072   0.000000
     21         25.979198   0.000000
     22         27.817284   0.000000
     23         28.838902   0.000000
     24         29.620671   0.000000
     25         30.875893   0.000000
     26         32.629585   0.000000
     27         32.842256   0.000000
     28         33.219779   0.000000
     29         35.228813   0.000000
     30         37.258483   0.000000
     31         39.178726   0.000000
     32         39.464212   0.000000
     33         40.659817   0.000000
     34         40.797153   0.000000
     35         42.062127   0.000000
     36         43.430314   0.000000
     37         44.081918   0.000000
     38         45.109257   0.000000
     39         45.137803   0.000000
     40         45.630449   0.000000
     41         46.672692   0.000000
     42         46.789831   0.000000
     43         48.406470   0.000000
     44         49.364808   0.000000
     45         50.775864   0.000000
     46         50.812806   0.000000
     47         51.215781   0.000000
     48         51.508679   0.000000
 
  0.3333333E+00  0.2461250E-17  0.0000000E+00  0.3472222E-02
      1         -2.125730   1.000000
      2          2.985393   0.000000
      3          3.254175   0.000000
      4          4.560823   0.000000
      5          9.050377   0.000000
      6          9.221691   0.000000
      7          9.992524   0.000000
      8         11.763211   0.000000
      9         14.427853   0.000000
     10         15.162008   0.000000
     11         16.197632   0.000000
     12         16.210252   0.000000
     13         19.045435   0.000000
     14         19.485426   0.000000
     15         21.269491   0.000000
     16         23.145352   0.000000
     17         24.282230   0.000000
     18         25.131134   0.000000
     19         26.004624   0.000000
     20         27.412014   0.000000
     21         27.863695   0.000000
     22         28.025894   0.000000
     23         29.935416   0.000000
     24         29.985583   0.000000
     25         32.229758   0.000000
     26         32.782345   0.000000
     27         34.142748   0.000000
     28         34.392050   0.000000
     29         34.500042   0.000000
     30         35.208987   0.000000
     31         37.247737   0.000000
     32         38.727216   0.000000
     33         39.736956   0.000000
     34         40.885312   0.000000
     35         41.817723   0.000000
     36         41.885095   0.000000
     37         44.372689   0.000000
     38         44.446016   0.000000
     39         45.968355   0.000000
     40         46.815490   0.000000
     41         46.876214   0.000000
     42         47.766961   0.000000
     43         48.275302   0.000000
     44         48.711381   0.000000
     45         49.795784   0.000000
     46         50.331964   0.000000
     47         50.522411   0.000000
     48         51.173734   0.000000
 
  0.4166667E+00 -0.5846855E-17  0.0000000E+00  0.3472222E-02
      1         -0.929037   1.000000
      2          2.141809   1.000000
      3          4.112821   0.000000
      4          4.877489   0.000000
      5          7.162034   0.000000
      6          7.672292   0.000000
      7          9.650076   0.000000
      8         11.148490   0.000000
      9         14.035637   0.000000
     10         14.876587   0.000000
     11         15.828802   0.000000
     12         16.001952   0.000000
     13         20.010431   0.000000
     14         20.571716   0.000000
     15         22.703379   0.000000
     16         23.207044   0.000000
     17         23.587857   0.000000
     18         26.638954   0.000000
     19         26.651655   0.000000
     20         27.454873   0.000000
     21         29.899811   0.000000
     22         30.634426   0.000000
     23         31.367935   0.000000
     24         31.663924   0.000000
     25         32.047314   0.000000
     26         32.428943   0.000000
     27         32.518664   0.000000
     28         33.901845   0.000000
     29         34.767865   0.000000
     30         36.416698   0.000000
     31         37.246636   0.000000
     32         37.624800   0.000000
     33         38.502657   0.000000
     34         38.991491   0.000000
     35         40.791891   0.000000
     36         42.793408   0.000000
     37         44.028955   0.000000
     38         45.681991   0.000000
     39         46.265313   0.000000
     40         46.532103   0.000000
     41         46.676355   0.000000
     42         47.102398   0.000000
     43         48.100584   0.000000
     44         48.190651   0.000000
     45         49.607618   0.000000
     46         49.637934   0.000000
     47         50.375436   0.000000
     48         51.086592   0.000000
 
  0.5000000E+00 -0.2076079E-16  0.0000000E+00  0.1736111E-02
      1          0.502865   1.000000
      2          0.514185   1.000000
      3          5.331507   0.000000
      4          5.689365   0.000000
      5          5.971972   0.000000
      6          6.376222   0.000000
      7          9.536048   0.000000
      8         10.956118   0.000000
      9         13.904555   0.000000
     10         14.780729   0.000000
     11         15.706040   0.000000
     12         15.921126   0.000000
     13         20.946905   0.000000
     14         21.520519   0.000000
     15         21.555119   0.000000
     16         22.380946   0.000000
     17         25.310454   0.000000
     18         26.535155   0.000000
     19         26.756766   0.000000
     20         28.013485   0.000000
     21         30.968246   0.000000
     22         31.070968   0.000000
     23         31.527265   0.000000
     24         31.539040   0.000000
     25         32.387020   0.000000
     26         32.997799   0.000000
     27         33.505211   0.000000
     28         34.087201   0.000000
     29         34.144696   0.000000
     30         34.712808   0.000000
     31         36.726545   0.000000
     32         36.730972   0.000000
     33         39.028158   0.000000
     34         40.326480   0.000000
     35         41.028441   0.000000
     36         41.966455   0.000000
     37         44.240573   0.000000
     38         44.248841   0.000000
     39         45.658649   0.000000
     40         46.973361   0.000000
     41         47.134561   0.000000
     42         47.785182   0.000000
     43         48.249768   0.000000
     44         48.386747   0.000000
     45         48.748468   0.000000
     46         49.619710   0.000000
     47         49.681029   0.000000
     48         50.569770   0.000000
 
  0.1666667E+00  0.8333333E-01  0.0000000E+00  0.3472222E-02
      1         -3.882711   1.000000
      2          1.356835   1.000000
      3          1.839709   1.000000
      4          9.987496   0.000000
      5         10.285905   0.000000
      6         14.253519   0.000000
      7         14.316647   0.000000
      8         14.583036   0.000000
      9         15.306359   0.000000
     10         15.361081   0.000000
     11         15.872737   0.000000
     12         17.250216   0.000000
     13         17.631851   0.000000
     14         19.191803   0.000000
     15         19.387047   0.000000
     16         19.563469   0.000000
     17         20.236776   0.000000
     18         20.264106   0.000000
     19         21.036083   0.000000
     20         23.794758   0.000000
     21         25.024115   0.000000
     22         25.189553   0.000000
     23         29.363761   0.000000
     24         29.616649   0.000000
     25         29.947563   0.000000
     26         33.056313   0.000000
     27         33.092821   0.000000
     28         34.537733   0.000000
     29         36.027476   0.000000
     30         37.019840   0.000000
     31         37.288231   0.000000
     32         39.494061   0.000000
     33         41.112353   0.000000
     34         41.680756   0.000000
     35         42.070441   0.000000
     36         42.439700   0.000000
     37         43.881763   0.000000
     38         45.148736   0.000000
     39         45.909358   0.000000
     40         46.631186   0.000000
     41         47.854222   0.000000
     42         49.072734   0.000000
     43         49.456865   0.000000
     44         51.541337   0.000000
     45         51.692257   0.000000
     46         51.794666   0.000000
     47         52.093216   0.000000
     48         52.220493   0.000000
 
  0.2500000E+00  0.8333333E-01  0.0000000E+00  0.6944444E-02
      1         -3.338587   1.000000
      2          1.857394   1.000000
      3          2.354163   1.000000
      4          7.675446   0.000000
      5          9.158448   0.000000
      6         12.396648   0.000000
      7         12.719160   0.000000
      8         14.040612   0.000000
      9         14.228216   0.000000
     10         14.526423   0.000000
     11         16.506933   0.000000
     12         17.639816   0.000000
     13         18.046901   0.000000
     14         18.902431   0.000000
     15         19.576373   0.000000
     16         21.572574   0.000000
     17         21.885463   0.000000
     18         21.887786   0.000000
     19         23.272470   0.000000
     20         25.841916   0.000000
     21         26.567689   0.000000
     22         27.251320   0.000000
     23         29.291385   0.000000
     24         29.476253   0.000000
     25         29.686927   0.000000
     26         31.890944   0.000000
     27         32.673449   0.000000
     28         34.335676   0.000000
     29         36.340303   0.000000
     30         37.280843   0.000000
     31         37.765085   0.000000
     32         39.507870   0.000000
     33         40.894999   0.000000
     34         41.946730   0.000000
     35         42.861132   0.000000
     36         43.259970   0.000000
     37         43.573199   0.000000
     38         44.821880   0.000000
     39         45.222740   0.000000
     40         45.717585   0.000000
     41         46.190259   0.000000
     42         47.750672   0.000000
     43         48.880559   0.000000
     44         49.497632   0.000000
     45         51.142140   0.000000
     46         51.423622   0.000000
     47         51.602533   0.000000
     48         52.285590   0.000000
 
  0.3333333E+00  0.8333333E-01  0.0000000E+00  0.6944444E-02
      1         -2.528262   1.000000
      2          2.609232   0.227029
      3          3.061259   0.000000
      4          5.495742   0.000000
      5          8.349676   0.000000
      6         10.173776   0.000000
      7         10.955272   0.000000
      8         13.238099   0.000000
      9         13.406043   0.000000
     10         13.966695   0.000000
     11         17.454920   0.000000
     12         18.114759   0.000000
     13         18.651986   0.000000
     14         18.756012   0.000000
     15         20.036395   0.000000
     16         23.327933   0.000000
     17         23.763727   0.000000
     18         24.009693   0.000000
     19         25.190489   0.000000
     20         26.395053   0.000000
     21         27.090372   0.000000
     22         28.106541   0.000000
     23         29.350574   0.000000
     24         29.987562   0.000000
     25         31.905450   0.000000
     26         32.765112   0.000000
     27         33.908262   0.000000
     28         33.943666   0.000000
     29         34.576974   0.000000
     30         36.165620   0.000000
     31         38.205268   0.000000
     32         39.030444   0.000000
     33         40.098372   0.000000
     34         40.520927   0.000000
     35         42.230328   0.000000
     36         42.736460   0.000000
     37         43.775535   0.000000
     38         45.262851   0.000000
     39         46.026545   0.000000
     40         46.745011   0.000000
     41         46.890051   0.000000
     42         46.939310   0.000000
     43         48.026044   0.000000
     44         49.228011   0.000000
     45         50.007817   0.000000
     46         50.359308   0.000000
     47         51.235107   0.000000
     48         51.622727   0.000000
 
  0.4166667E+00  0.8333333E-01  0.0000000E+00  0.6944444E-02
      1         -1.458830   1.000000
      2          3.026938   0.000000
      3          3.612289   0.000000
      4          4.501276   0.000000
      5          7.655700   0.000000
      6          8.166067   0.000000
      7          9.374278   0.000000
      8         12.714343   0.000000
      9         12.865197   0.000000
     10         13.556154   0.000000
     11         17.517535   0.000000
     12         17.644966   0.000000
     13         19.594742   0.000000
     14         19.986648   0.000000
     15         21.537248   0.000000
     16         23.557803   0.000000
     17         24.095044   0.000000
     18         25.459842   0.000000
     19         25.742609   0.000000
     20         27.436449   0.000000
     21         27.921004   0.000000
     22         28.915743   0.000000
     23         31.221783   0.000000
     24         31.986298   0.000000
     25         32.022068   0.000000
     26         32.638541   0.000000
     27         33.615643   0.000000
     28         34.941293   0.000000
     29         35.847074   0.000000
     30         35.970832   0.000000
     31         36.404289   0.000000
     32         37.277608   0.000000
     33         38.882058   0.000000
     34         40.769954   0.000000
     35         41.775102   0.000000
     36         42.420653   0.000000
     37         44.400797   0.000000
     38         44.808554   0.000000
     39         45.829275   0.000000
     40         46.390979   0.000000
     41         47.169961   0.000000
     42         47.298593   0.000000
     43         48.029659   0.000000
     44         48.065737   0.000000
     45         49.394997   0.000000
     46         50.813298   0.000000
     47         50.865180   0.000000
     48         50.990837   0.000000
 
  0.5000000E+00  0.8333333E-01  0.0000000E+00  0.6944444E-02
      1         -0.140921   1.000000
      2          1.403747   1.000000
      3          4.857877   0.000000
      4          5.508268   0.000000
      5          6.414169   0.000000
      6          6.731396   0.000000
      7          8.465468   0.000000
      8         12.454090   0.000000
      9         12.597657   0.000000
     10         13.343939   0.000000
     11         17.401197   0.000000
     12         17.448194   0.000000
     13         20.641259   0.000000
     14         21.195985   0.000000
     15         22.090420   0.000000
     16         22.676240   0.000000
     17         24.043633   0.000000
     18         26.167980   0.000000
     19         26.208278   0.000000
     20         27.613828   0.000000
     21         30.121017   0.000000
     22         30.297459   0.000000
     23         30.634462   0.000000
     24         32.656448   0.000000
     25         32.717570   0.000000
     26         33.108173   0.000000
     27         33.390059   0.000000
     28         33.815520   0.000000
     29         34.936563   0.000000
     30         35.684946   0.000000
     31         37.881456   0.000000
     32         38.051113   0.000000
     33         39.440475   0.000000
     34         40.149948   0.000000
     35         40.882002   0.000000
     36         41.745850   0.000000
     37         44.322742   0.000000
     38         44.827219   0.000000
     39         45.298912   0.000000
     40         46.515704   0.000000
     41         46.704078   0.000000
     42         47.157542   0.000000
     43         47.251250   0.000000
     44         47.850057   0.000000
     45         48.828712   0.000000
     46         49.402708   0.000000
     47         50.279644   0.000000
     48         50.446594   0.000000
 
  0.3333333E+00  0.1666667E+00  0.0000000E+00  0.3472222E-02
      1         -2.662850   1.000000
      2          2.483735   0.997452
      3          2.963373   0.000000
      4          6.611117   0.000000
      5          7.043274   0.000000
      6         11.254439   0.000000
      7         11.951387   0.000000
      8         11.976316   0.000000
      9         12.815210   0.000000
     10         15.562928   0.000000
     11         16.231525   0.000000
     12         18.292066   0.000000
     13         18.583330   0.000000
     14         20.674299   0.000000
     15         20.859949   0.000000
     16         21.375214   0.000000
     17         21.937774   0.000000
     18         24.100334   0.000000
     19         25.539382   0.000000
     20         26.124046   0.000000
     21         26.278942   0.000000
     22         28.770790   0.000000
     23         29.052880   0.000000
     24         30.409093   0.000000
     25         31.452538   0.000000
     26         31.789334   0.000000
     27         33.623145   0.000000
     28         34.655348   0.000000
     29         35.412357   0.000000
     30         37.084472   0.000000
     31         37.292623   0.000000
     32         38.744078   0.000000
     33         39.944123   0.000000
     34         41.285262   0.000000
     35         42.422684   0.000000
     36         43.073348   0.000000
     37         44.185390   0.000000
     38         44.369037   0.000000
     39         45.836139   0.000000
     40         46.465188   0.000000
     41         46.985421   0.000000
     42         47.364396   0.000000
     43         49.247082   0.000000
     44         49.697867   0.000000
     45         50.414313   0.000000
     46         50.695319   0.000000
     47         51.417385   0.000000
     48         51.488734   0.000000
 
  0.4166667E+00  0.1666667E+00  0.0000000E+00  0.6944444E-02
      1         -1.724974   1.000000
      2          3.361694   0.000000
      3          3.591960   0.000000
      4          4.852748   0.000000
      5          6.280096   0.000000
      6          9.390530   0.000000
      7         10.333225   0.000000
      8         11.037086   0.000000
      9         12.024978   0.000000
     10         15.334452   0.000000
     11         17.959089   0.000000
     12         19.030088   0.000000
     13         19.301498   0.000000
     14         20.407034   0.000000
     15         21.154815   0.000000
     16         23.338130   0.000000
     17         23.453134   0.000000
     18         24.631635   0.000000
     19         25.120981   0.000000
     20         25.976441   0.000000
     21         26.842875   0.000000
     22         29.058034   0.000000
     23         30.250258   0.000000
     24         31.893293   0.000000
     25         32.895511   0.000000
     26         33.167288   0.000000
     27         34.762746   0.000000
     28         35.354096   0.000000
     29         35.502936   0.000000
     30         35.626571   0.000000
     31         36.603635   0.000000
     32         38.214979   0.000000
     33         39.135627   0.000000
     34         41.086312   0.000000
     35         41.632662   0.000000
     36         42.667942   0.000000
     37         44.431818   0.000000
     38         45.078019   0.000000
     39         46.441412   0.000000
     40         46.675730   0.000000
     41         47.395963   0.000000
     42         47.555098   0.000000
     43         47.884513   0.000000
     44         49.413859   0.000000
     45         50.047229   0.000000
     46         50.423009   0.000000
     47         50.476496   0.000000
     48         50.615933   0.000000
 
  0.5000000E+00  0.1666667E+00  0.0000000E+00  0.6944444E-02
      1         -0.533695   1.000000
      2          2.520237   0.961509
      3          4.488612   0.000000
      4          4.893692   0.000000
      5          6.052549   0.000000
      6          7.531873   0.000000
      7          8.707897   0.000000
      8         10.621388   0.000000
      9         11.644741   0.000000
     10         15.017345   0.000000
     11         19.190503   0.000000
     12         19.830582   0.000000
     13         20.265390   0.000000
     14         20.480605   0.000000
     15         21.804485   0.000000
     16         23.073418   0.000000
     17         24.030784   0.000000
     18         24.832867   0.000000
     19         25.050956   0.000000
     20         26.400636   0.000000
     21         26.859203   0.000000
     22         29.839694   0.000000
     23         30.933809   0.000000
     24         32.607939   0.000000
     25         32.852499   0.000000
     26         33.270135   0.000000
     27         34.948253   0.000000
     28         35.107599   0.000000
     29         36.334108   0.000000
     30         36.761266   0.000000
     31         37.976099   0.000000
     32         38.800262   0.000000
     33         39.948269   0.000000
     34         41.230388   0.000000
     35         41.944726   0.000000
     36         42.969644   0.000000
     37         43.156889   0.000000
     38         43.504676   0.000000
     39         45.094941   0.000000
     40         45.889513   0.000000
     41         46.229500   0.000000
     42         46.684409   0.000000
     43         47.164424   0.000000
     44         48.722543   0.000000
     45         49.300486   0.000000
     46         49.678272   0.000000
     47         50.249256   0.000000
     48         50.685335   0.000000
 
 -0.4166667E+00  0.1666667E+00  0.0000000E+00  0.3472222E-02
      1          0.886675   1.000000
      2          0.906938   1.000000
      3          5.185014   0.000000
      4          5.699147   0.000000
      5          6.072260   0.000000
      6          6.315552   0.000000
      7          7.775579   0.000000
      8         10.487389   0.000000
      9         11.521312   0.000000
     10         14.906797   0.000000
     11         19.333533   0.000000
     12         19.793307   0.000000
     13         21.289997   0.000000
     14         21.551646   0.000000
     15         21.973208   0.000000
     16         22.531949   0.000000
     17         23.026625   0.000000
     18         24.977363   0.000000
     19         24.997445   0.000000
     20         26.355959   0.000000
     21         29.196938   0.000000
     22         29.498593   0.000000
     23         29.858030   0.000000
     24         31.525744   0.000000
     25         32.882255   0.000000
     26         34.256224   0.000000
     27         34.599174   0.000000
     28         35.129946   0.000000
     29         38.448079   0.000000
     30         38.493405   0.000000
     31         38.755187   0.000000
     32         39.087961   0.000000
     33         39.418148   0.000000
     34         40.522208   0.000000
     35         42.051134   0.000000
     36         42.086321   0.000000
     37         43.970736   0.000000
     38         43.977248   0.000000
     39         44.482751   0.000000
     40         44.655335   0.000000
     41         45.745259   0.000000
     42         45.749957   0.000000
     43         46.702377   0.000000
     44         47.700234   0.000000
     45         48.048037   0.000000
     46         48.747270   0.000000
     47         49.885107   0.000000
     48         50.876333   0.000000
 
  0.5000000E+00  0.2500000E+00  0.0000000E+00  0.3472222E-02
      1         -0.665098   1.000000
      2          3.652956   0.000000
      3          3.948245   0.000000
      4          4.364337   0.000000
      5          5.601781   0.000000
      6          8.654687   0.000000
      7          9.251767   0.000000
      8          9.572757   0.000000