 DBCSR| CPU Multiplication driver                                           BLAS (U)
 DBCSR| Multrec recursion limit                                              512 (U)
 DBCSR| Multiplication stack size                                           1000 (D)
 DBCSR| Maximum elements for images                                    UNLIMITED (U)
 DBCSR| Multiplicative factor virtual images                                   1 (U)
 DBCSR| Use multiplication densification                                       T (D)
 DBCSR| Multiplication size stacks                                             3 (U)
 DBCSR| Use memory pool for CPU allocation                                     F (U)
 DBCSR| Number of 3D layers                                               SINGLE (U)
 DBCSR| Use MPI memory allocation                                              F (U)
 DBCSR| Use RMA algorithm                                                      F (U)
 DBCSR| Use Communication thread                                               T (U)
 DBCSR| Communication thread load                                             45 (D)
 DBCSR| MPI: My process id                                                     0
 DBCSR| MPI: Number of processes                                               8
 DBCSR| OMP: Current number of threads                                        12
 DBCSR| OMP: Max number of threads                                            12
 DBCSR| Split modifier for TAS multiplication algorithm                  1.0E+00 (U)


  **** **** ******  **  PROGRAM STARTED AT               2025-08-04 21:59:38.389
 ***** ** ***  *** **   PROGRAM STARTED ON                          i04r08c02s04
 **    ****   ******    PROGRAM STARTED BY                               di38fab
 ***** **    ** ** **   PROGRAM PROCESS ID                                317964
  **** **  *******  **  PROGRAM STARTED IN /hppfs/scratch/04/di38fab/09_GTH/Delt
                                           a_Set/Sn/aug-DZVP-MOLOPT-GTH-tier-2/8
                                           x8x8

 CP2K| version string:                 CP2K version 2025.1 (Development Version)
 CP2K| source code revision number:                                  git:3130539
 CP2K| cp2kflags: omp libint fftw3 libxc parallel scalapack max_contr=4         
 CP2K| is freely available from                            https://www.cp2k.org/
 CP2K| Program compiled at                         Tue Jun  3 16:14:32 CEST 2025
 CP2K| Program compiled on                                               login01
 CP2K| Program compiled for                                        Supermuc-foss
 CP2K| Data directory path                  /hppfs/work/pn36zo/di38fab/cp2k/data
 CP2K| Input file name                                                    GW.inp

 GLOBAL| Force Environment number                                              1
 GLOBAL| Basis set file name            /hppfs/scratch/04/di38fab/09_GTH/BASIS_A
 GLOBAL| Potential file name            /hppfs/work/pn36zo/di38fab/cp2k/data/GTH
 GLOBAL| MM Potential file name                                     MM_POTENTIAL
 GLOBAL| Coordinate file name                                             Sn.cif
 GLOBAL| Method name                                                        CP2K
 GLOBAL| Project name                                                       WSe2
 GLOBAL| Run type                                                         ENERGY
 GLOBAL| FFT library                                                       FFTW3
 GLOBAL| Diagonalization library                                       ScaLAPACK
 GLOBAL| Cholesky decomposition library                                ScaLAPACK
 GLOBAL| DGEMM library                                                      BLAS
 GLOBAL| Orthonormality check for eigenvectors                          DISABLED
 GLOBAL| Matrix multiplication library                                 ScaLAPACK
 GLOBAL| All-to-all communication in single precision                          F
 GLOBAL| FFTs using library dependent lengths                                  F
 GLOBAL| Grid backend                                                       AUTO
 GLOBAL| Global print level                                               MEDIUM
 GLOBAL| MPI I/O enabled                                                       T
 GLOBAL| Total number of message passing processes                             8
 GLOBAL| Number of threads for this process                                   12
 GLOBAL| This output is from process                                           0
 GLOBAL| OpenMP stack size per thread (OMP_STACKSIZE)                    default
 GLOBAL| CPU model name             Intel(R) Xeon(R) Platinum 8174 CPU @ 3.10GHz

 MEMORY| system memory details [Kb]
 MEMORY|                        rank 0           min           max       average
 MEMORY| MemTotal             98436664      98436664      98436664      98436664
 MEMORY| MemFree              84610240      84610240      85502988      85056614
 MEMORY| Buffers                     0             0             0             0
 MEMORY| Cached                2411520       2378568       2411520       2395044
 MEMORY| Slab                  1282852       1181464       1282852       1232158
 MEMORY| SReclaimable           281744        264960        281744        273352
 MEMORY| MemLikelyFree        87303504      87303504      88146516      87725010


 *** Fundamental physical constants (SI units) ***

 *** Literature: B. J. Mohr and B. N. Taylor,
 ***             CODATA recommended values of the fundamental physical
 ***             constants: 2006, Web Version 5.1
 ***             http://physics.nist.gov/constants

 Speed of light in vacuum [m/s]                             2.99792458000000E+08
 Magnetic constant or permeability of vacuum [N/A**2]       1.25663706143592E-06
 Electric constant or permittivity of vacuum [F/m]          8.85418781762039E-12
 Planck constant (h) [J*s]                                  6.62606896000000E-34
 Planck constant (h-bar) [J*s]                              1.05457162825177E-34
 Elementary charge [C]                                      1.60217648700000E-19
 Electron mass [kg]                                         9.10938215000000E-31
 Electron g factor [ ]                                     -2.00231930436220E+00
 Proton mass [kg]                                           1.67262163700000E-27
 Fine-structure constant                                    7.29735253760000E-03
 Rydberg constant [1/m]                                     1.09737315685270E+07
 Avogadro constant [1/mol]                                  6.02214179000000E+23
 Boltzmann constant [J/K]                                   1.38065040000000E-23
 Atomic mass unit [kg]                                      1.66053878200000E-27
 Bohr radius [m]                                            5.29177208590000E-11

 *** Conversion factors ***

 [u] -> [a.u.]                                              1.82288848426455E+03
 [Angstrom] -> [Bohr] = [a.u.]                              1.88972613288564E+00
 [a.u.] = [Bohr] -> [Angstrom]                              5.29177208590000E-01
 [a.u.] -> [s]                                              2.41888432650478E-17
 [a.u.] -> [fs]                                             2.41888432650478E-02
 [a.u.] -> [J]                                              4.35974393937059E-18
 [a.u.] -> [N]                                              8.23872205491840E-08
 [a.u.] -> [K]                                              3.15774647902944E+05
 [a.u.] -> [kJ/mol]                                         2.62549961709828E+03
 [a.u.] -> [kcal/mol]                                       6.27509468713739E+02
 [a.u.] -> [Pa]                                             2.94210107994716E+13
 [a.u.] -> [bar]                                            2.94210107994716E+08
 [a.u.] -> [atm]                                            2.90362800883016E+08
 [a.u.] -> [eV]                                             2.72113838565563E+01
 [a.u.] -> [Hz]                                             6.57968392072181E+15
 [a.u.] -> [1/cm] (wave numbers)                            2.19474631370540E+05
 [a.u./Bohr**2] -> [1/cm]                                   5.14048714338585E+03
 

 CELL_TOP| Volume [angstrom^3]:                                        73.717549
 CELL_TOP| Vector a [angstrom     4.706     0.000     0.000   |a| =     4.706470
 CELL_TOP| Vector b [angstrom     2.353     4.076     0.000   |b| =     4.706470
 CELL_TOP| Vector c [angstrom     2.353     1.359     3.843   |c| =     4.706470
 CELL_TOP| Angle (b,c), alpha [degree]:                                60.000000
 CELL_TOP| Angle (a,c), beta  [degree]:                                60.000000
 CELL_TOP| Angle (a,b), gamma [degree]:                                60.000000
 CELL_TOP| Numerically orthorhombic:                                          NO
 CELL_TOP| Periodicity                                                       XYZ

 CELL_CIF| Volume [angstrom^3]:                                        73.717549
 CELL_CIF| Vector a [angstrom     4.706     0.000     0.000   |a| =     4.706470
 CELL_CIF| Vector b [angstrom     2.353     4.076     0.000   |b| =     4.706470
 CELL_CIF| Vector c [angstrom     2.353     1.359     3.843   |c| =     4.706470
 CELL_CIF| Angle (b,c), alpha [degree]:                                60.000000
 CELL_CIF| Angle (a,c), beta  [degree]:                                60.000000
 CELL_CIF| Angle (a,b), gamma [degree]:                                60.000000
 CELL_CIF| Numerically orthorhombic:                                          NO
 CELL_CIF| Periodicity                                                       XYZ

 GENERATE|  Preliminary Number of Bonds generated:                             0
 GENERATE|  Achieved consistency in connectivity generation.

 CELL| Volume [angstrom^3]:                                            73.717549
 CELL| Vector a [angstrom]:       4.706     0.000     0.000   |a| =     4.706470
 CELL| Vector b [angstrom]:       2.353     4.076     0.000   |b| =     4.706470
 CELL| Vector c [angstrom]:       2.353     1.359     3.843   |c| =     4.706470
 CELL| Angle (b,c), alpha [degree]:                                    60.000000
 CELL| Angle (a,c), beta  [degree]:                                    60.000000
 CELL| Angle (a,b), gamma [degree]:                                    60.000000
 CELL| Numerically orthorhombic:                                              NO
 CELL| Periodicity                                                           XYZ

 CELL_REF| Volume [angstrom^3]:                                        73.717549
 CELL_REF| Vector a [angstrom     4.706     0.000     0.000   |a| =     4.706470
 CELL_REF| Vector b [angstrom     2.353     4.076     0.000   |b| =     4.706470
 CELL_REF| Vector c [angstrom     2.353     1.359     3.843   |c| =     4.706470
 CELL_REF| Angle (b,c), alpha [degree]:                                60.000000
 CELL_REF| Angle (a,c), beta  [degree]:                                60.000000
 CELL_REF| Angle (a,b), gamma [degree]:                                60.000000
 CELL_REF| Numerically orthorhombic:                                          NO
 CELL_REF| Periodicity                                                       XYZ

 *** WARNING in cryssym.F:180 :: Symmetry library SPGLIB not available ***


 *******************************************************************************
                                    Kpoints
 *******************************************************************************
 BRILLOUIN| K-point scheme                                        Monkhorst-Pack
 BRILLOUIN| K-Point grid                                             8    8    8
 BRILLOUIN| Accuracy in Symmetry determination                      0.100000E-05
 BRILLOUIN| K-Point point group symmetrization                               OFF
 BRILLOUIN| Wavefunction type                                            COMPLEX
 BRILLOUIN| List of Kpoints [2 Pi/Bohr]                                      256
 BRILLOUIN| Number           Weight            X              Y              Z
 BRILLOUIN|     1           0.00391       -0.43750       -0.43750       -0.43750
 BRILLOUIN|     2           0.00391       -0.43750       -0.43750       -0.31250
 BRILLOUIN|     3           0.00391       -0.43750       -0.43750       -0.18750
 BRILLOUIN|     4           0.00391       -0.43750       -0.43750       -0.06250
 BRILLOUIN|     5           0.00391       -0.43750       -0.43750        0.06250
 BRILLOUIN|     6           0.00391       -0.43750       -0.43750        0.18750
 BRILLOUIN|     7           0.00391       -0.43750       -0.43750        0.31250
 BRILLOUIN|     8           0.00391       -0.43750       -0.43750        0.43750
 BRILLOUIN|     9           0.00391       -0.43750       -0.31250       -0.43750
 BRILLOUIN|    10           0.00391       -0.43750       -0.31250       -0.31250
 BRILLOUIN|    11           0.00391       -0.43750       -0.31250       -0.18750
 BRILLOUIN|    12           0.00391       -0.43750       -0.31250       -0.06250
 BRILLOUIN|    13           0.00391       -0.43750       -0.31250        0.06250
 BRILLOUIN|    14           0.00391       -0.43750       -0.31250        0.18750
 BRILLOUIN|    15           0.00391       -0.43750       -0.31250        0.31250
 BRILLOUIN|    16           0.00391       -0.43750       -0.31250        0.43750
 BRILLOUIN|    17           0.00391       -0.43750       -0.18750       -0.43750
 BRILLOUIN|    18           0.00391       -0.43750       -0.18750       -0.31250
 BRILLOUIN|    19           0.00391       -0.43750       -0.18750       -0.18750
 BRILLOUIN|    20           0.00391       -0.43750       -0.18750       -0.06250
 BRILLOUIN|    21           0.00391       -0.43750       -0.18750        0.06250
 BRILLOUIN|    22           0.00391       -0.43750       -0.18750        0.18750
 BRILLOUIN|    23           0.00391       -0.43750       -0.18750        0.31250
 BRILLOUIN|    24           0.00391       -0.43750       -0.18750        0.43750
 BRILLOUIN|    25           0.00391       -0.43750       -0.06250       -0.43750
 BRILLOUIN|    26           0.00391       -0.43750       -0.06250       -0.31250
 BRILLOUIN|    27           0.00391       -0.43750       -0.06250       -0.18750
 BRILLOUIN|    28           0.00391       -0.43750       -0.06250       -0.06250
 BRILLOUIN|    29           0.00391       -0.43750       -0.06250        0.06250
 BRILLOUIN|    30           0.00391       -0.43750       -0.06250        0.18750
 BRILLOUIN|    31           0.00391       -0.43750       -0.06250        0.31250
 BRILLOUIN|    32           0.00391       -0.43750       -0.06250        0.43750
 BRILLOUIN|    33           0.00391       -0.43750        0.06250       -0.43750
 BRILLOUIN|    34           0.00391       -0.43750        0.06250       -0.31250
 BRILLOUIN|    35           0.00391       -0.43750        0.06250       -0.18750
 BRILLOUIN|    36           0.00391       -0.43750        0.06250       -0.06250
 BRILLOUIN|    37           0.00391       -0.43750        0.06250        0.06250
 BRILLOUIN|    38           0.00391       -0.43750        0.06250        0.18750
 BRILLOUIN|    39           0.00391       -0.43750        0.06250        0.31250
 BRILLOUIN|    40           0.00391       -0.43750        0.06250        0.43750
 BRILLOUIN|    41           0.00391       -0.43750        0.18750       -0.43750
 BRILLOUIN|    42           0.00391       -0.43750        0.18750       -0.31250
 BRILLOUIN|    43           0.00391       -0.43750        0.18750       -0.18750
 BRILLOUIN|    44           0.00391       -0.43750        0.18750       -0.06250
 BRILLOUIN|    45           0.00391       -0.43750        0.18750        0.06250
 BRILLOUIN|    46           0.00391       -0.43750        0.18750        0.18750
 BRILLOUIN|    47           0.00391       -0.43750        0.18750        0.31250
 BRILLOUIN|    48           0.00391       -0.43750        0.18750        0.43750
 BRILLOUIN|    49           0.00391       -0.43750        0.31250       -0.43750
 BRILLOUIN|    50           0.00391       -0.43750        0.31250       -0.31250
 BRILLOUIN|    51           0.00391       -0.43750        0.31250       -0.18750
 BRILLOUIN|    52           0.00391       -0.43750        0.31250       -0.06250
 BRILLOUIN|    53           0.00391       -0.43750        0.31250        0.06250
 BRILLOUIN|    54           0.00391       -0.43750        0.31250        0.18750
 BRILLOUIN|    55           0.00391       -0.43750        0.31250        0.31250
 BRILLOUIN|    56           0.00391       -0.43750        0.31250        0.43750
 BRILLOUIN|    57           0.00391       -0.43750        0.43750       -0.43750
 BRILLOUIN|    58           0.00391       -0.43750        0.43750       -0.31250
 BRILLOUIN|    59           0.00391       -0.43750        0.43750       -0.18750
 BRILLOUIN|    60           0.00391       -0.43750        0.43750       -0.06250
 BRILLOUIN|    61           0.00391       -0.43750        0.43750        0.06250
 BRILLOUIN|    62           0.00391       -0.43750        0.43750        0.18750
 BRILLOUIN|    63           0.00391       -0.43750        0.43750        0.31250
 BRILLOUIN|    64           0.00391       -0.43750        0.43750        0.43750
 BRILLOUIN|    65           0.00391       -0.31250       -0.43750       -0.43750
 BRILLOUIN|    66           0.00391       -0.31250       -0.43750       -0.31250
 BRILLOUIN|    67           0.00391       -0.31250       -0.43750       -0.18750
 BRILLOUIN|    68           0.00391       -0.31250       -0.43750       -0.06250
 BRILLOUIN|    69           0.00391       -0.31250       -0.43750        0.06250
 BRILLOUIN|    70           0.00391       -0.31250       -0.43750        0.18750
 BRILLOUIN|    71           0.00391       -0.31250       -0.43750        0.31250
 BRILLOUIN|    72           0.00391       -0.31250       -0.43750        0.43750
 BRILLOUIN|    73           0.00391       -0.31250       -0.31250       -0.43750
 BRILLOUIN|    74           0.00391       -0.31250       -0.31250       -0.31250
 BRILLOUIN|    75           0.00391       -0.31250       -0.31250       -0.18750
 BRILLOUIN|    76           0.00391       -0.31250       -0.31250       -0.06250
 BRILLOUIN|    77           0.00391       -0.31250       -0.31250        0.06250
 BRILLOUIN|    78           0.00391       -0.31250       -0.31250        0.18750
 BRILLOUIN|    79           0.00391       -0.31250       -0.31250        0.31250
 BRILLOUIN|    80           0.00391       -0.31250       -0.31250        0.43750
 BRILLOUIN|    81           0.00391       -0.31250       -0.18750       -0.43750
 BRILLOUIN|    82           0.00391       -0.31250       -0.18750       -0.31250
 BRILLOUIN|    83           0.00391       -0.31250       -0.18750       -0.18750
 BRILLOUIN|    84           0.00391       -0.31250       -0.18750       -0.06250
 BRILLOUIN|    85           0.00391       -0.31250       -0.18750        0.06250
 BRILLOUIN|    86           0.00391       -0.31250       -0.18750        0.18750
 BRILLOUIN|    87           0.00391       -0.31250       -0.18750        0.31250
 BRILLOUIN|    88           0.00391       -0.31250       -0.18750        0.43750
 BRILLOUIN|    89           0.00391       -0.31250       -0.06250       -0.43750
 BRILLOUIN|    90           0.00391       -0.31250       -0.06250       -0.31250
 BRILLOUIN|    91           0.00391       -0.31250       -0.06250       -0.18750
 BRILLOUIN|    92           0.00391       -0.31250       -0.06250       -0.06250
 BRILLOUIN|    93           0.00391       -0.31250       -0.06250        0.06250
 BRILLOUIN|    94           0.00391       -0.31250       -0.06250        0.18750
 BRILLOUIN|    95           0.00391       -0.31250       -0.06250        0.31250
 BRILLOUIN|    96           0.00391       -0.31250       -0.06250        0.43750
 BRILLOUIN|    97           0.00391       -0.31250        0.06250       -0.43750
 BRILLOUIN|    98           0.00391       -0.31250        0.06250       -0.31250
 BRILLOUIN|    99           0.00391       -0.31250        0.06250       -0.18750
 BRILLOUIN|   100           0.00391       -0.31250        0.06250       -0.06250
 BRILLOUIN|   101           0.00391       -0.31250        0.06250        0.06250
 BRILLOUIN|   102           0.00391       -0.31250        0.06250        0.18750
 BRILLOUIN|   103           0.00391       -0.31250        0.06250        0.31250
 BRILLOUIN|   104           0.00391       -0.31250        0.06250        0.43750
 BRILLOUIN|   105           0.00391       -0.31250        0.18750       -0.43750
 BRILLOUIN|   106           0.00391       -0.31250        0.18750       -0.31250
 BRILLOUIN|   107           0.00391       -0.31250        0.18750       -0.18750
 BRILLOUIN|   108           0.00391       -0.31250        0.18750       -0.06250
 BRILLOUIN|   109           0.00391       -0.31250        0.18750        0.06250
 BRILLOUIN|   110           0.00391       -0.31250        0.18750        0.18750
 BRILLOUIN|   111           0.00391       -0.31250        0.18750        0.31250
 BRILLOUIN|   112           0.00391       -0.31250        0.18750        0.43750
 BRILLOUIN|   113           0.00391       -0.31250        0.31250       -0.43750
 BRILLOUIN|   114           0.00391       -0.31250        0.31250       -0.31250
 BRILLOUIN|   115           0.00391       -0.31250        0.31250       -0.18750
 BRILLOUIN|   116           0.00391       -0.31250        0.31250       -0.06250
 BRILLOUIN|   117           0.00391       -0.31250        0.31250        0.06250
 BRILLOUIN|   118           0.00391       -0.31250        0.31250        0.18750
 BRILLOUIN|   119           0.00391       -0.31250        0.31250        0.31250
 BRILLOUIN|   120           0.00391       -0.31250        0.31250        0.43750
 BRILLOUIN|   121           0.00391       -0.31250        0.43750       -0.43750
 BRILLOUIN|   122           0.00391       -0.31250        0.43750       -0.31250
 BRILLOUIN|   123           0.00391       -0.31250        0.43750       -0.18750
 BRILLOUIN|   124           0.00391       -0.31250        0.43750       -0.06250
 BRILLOUIN|   125           0.00391       -0.31250        0.43750        0.06250
 BRILLOUIN|   126           0.00391       -0.31250        0.43750        0.18750
 BRILLOUIN|   127           0.00391       -0.31250        0.43750        0.31250
 BRILLOUIN|   128           0.00391       -0.31250        0.43750        0.43750
 BRILLOUIN|   129           0.00391       -0.18750       -0.43750       -0.43750
 BRILLOUIN|   130           0.00391       -0.18750       -0.43750       -0.31250
 BRILLOUIN|   131           0.00391       -0.18750       -0.43750       -0.18750
 BRILLOUIN|   132           0.00391       -0.18750       -0.43750       -0.06250
 BRILLOUIN|   133           0.00391       -0.18750       -0.43750        0.06250
 BRILLOUIN|   134           0.00391       -0.18750       -0.43750        0.18750
 BRILLOUIN|   135           0.00391       -0.18750       -0.43750        0.31250
 BRILLOUIN|   136           0.00391       -0.18750       -0.43750        0.43750
 BRILLOUIN|   137           0.00391       -0.18750       -0.31250       -0.43750
 BRILLOUIN|   138           0.00391       -0.18750       -0.31250       -0.31250
 BRILLOUIN|   139           0.00391       -0.18750       -0.31250       -0.18750
 BRILLOUIN|   140           0.00391       -0.18750       -0.31250       -0.06250
 BRILLOUIN|   141           0.00391       -0.18750       -0.31250        0.06250
 BRILLOUIN|   142           0.00391       -0.18750       -0.31250        0.18750
 BRILLOUIN|   143           0.00391       -0.18750       -0.31250        0.31250
 BRILLOUIN|   144           0.00391       -0.18750       -0.31250        0.43750
 BRILLOUIN|   145           0.00391       -0.18750       -0.18750       -0.43750
 BRILLOUIN|   146           0.00391       -0.18750       -0.18750       -0.31250
 BRILLOUIN|   147           0.00391       -0.18750       -0.18750       -0.18750
 BRILLOUIN|   148           0.00391       -0.18750       -0.18750       -0.06250
 BRILLOUIN|   149           0.00391       -0.18750       -0.18750        0.06250
 BRILLOUIN|   150           0.00391       -0.18750       -0.18750        0.18750
 BRILLOUIN|   151           0.00391       -0.18750       -0.18750        0.31250
 BRILLOUIN|   152           0.00391       -0.18750       -0.18750        0.43750
 BRILLOUIN|   153           0.00391       -0.18750       -0.06250       -0.43750
 BRILLOUIN|   154           0.00391       -0.18750       -0.06250       -0.31250
 BRILLOUIN|   155           0.00391       -0.18750       -0.06250       -0.18750
 BRILLOUIN|   156           0.00391       -0.18750       -0.06250       -0.06250
 BRILLOUIN|   157           0.00391       -0.18750       -0.06250        0.06250
 BRILLOUIN|   158           0.00391       -0.18750       -0.06250        0.18750
 BRILLOUIN|   159           0.00391       -0.18750       -0.06250        0.31250
 BRILLOUIN|   160           0.00391       -0.18750       -0.06250        0.43750
 BRILLOUIN|   161           0.00391       -0.18750        0.06250       -0.43750
 BRILLOUIN|   162           0.00391       -0.18750        0.06250       -0.31250
 BRILLOUIN|   163           0.00391       -0.18750        0.06250       -0.18750
 BRILLOUIN|   164           0.00391       -0.18750        0.06250       -0.06250
 BRILLOUIN|   165           0.00391       -0.18750        0.06250        0.06250
 BRILLOUIN|   166           0.00391       -0.18750        0.06250        0.18750
 BRILLOUIN|   167           0.00391       -0.18750        0.06250        0.31250
 BRILLOUIN|   168           0.00391       -0.18750        0.06250        0.43750
 BRILLOUIN|   169           0.00391       -0.18750        0.18750       -0.43750
 BRILLOUIN|   170           0.00391       -0.18750        0.18750       -0.31250
 BRILLOUIN|   171           0.00391       -0.18750        0.18750       -0.18750
 BRILLOUIN|   172           0.00391       -0.18750        0.18750       -0.06250
 BRILLOUIN|   173           0.00391       -0.18750        0.18750        0.06250
 BRILLOUIN|   174           0.00391       -0.18750        0.18750        0.18750
 BRILLOUIN|   175           0.00391       -0.18750        0.18750        0.31250
 BRILLOUIN|   176           0.00391       -0.18750        0.18750        0.43750
 BRILLOUIN|   177           0.00391       -0.18750        0.31250       -0.43750
 BRILLOUIN|   178           0.00391       -0.18750        0.31250       -0.31250
 BRILLOUIN|   179           0.00391       -0.18750        0.31250       -0.18750
 BRILLOUIN|   180           0.00391       -0.18750        0.31250       -0.06250
 BRILLOUIN|   181           0.00391       -0.18750        0.31250        0.06250
 BRILLOUIN|   182           0.00391       -0.18750        0.31250        0.18750
 BRILLOUIN|   183           0.00391       -0.18750        0.31250        0.31250
 BRILLOUIN|   184           0.00391       -0.18750        0.31250        0.43750
 BRILLOUIN|   185           0.00391       -0.18750        0.43750       -0.43750
 BRILLOUIN|   186           0.00391       -0.18750        0.43750       -0.31250
 BRILLOUIN|   187           0.00391       -0.18750        0.43750       -0.18750
 BRILLOUIN|   188           0.00391       -0.18750        0.43750       -0.06250
 BRILLOUIN|   189           0.00391       -0.18750        0.43750        0.06250
 BRILLOUIN|   190           0.00391       -0.18750        0.43750        0.18750
 BRILLOUIN|   191           0.00391       -0.18750        0.43750        0.31250
 BRILLOUIN|   192           0.00391       -0.18750        0.43750        0.43750
 BRILLOUIN|   193           0.00391       -0.06250       -0.43750       -0.43750
 BRILLOUIN|   194           0.00391       -0.06250       -0.43750       -0.31250
 BRILLOUIN|   195           0.00391       -0.06250       -0.43750       -0.18750
 BRILLOUIN|   196           0.00391       -0.06250       -0.43750       -0.06250
 BRILLOUIN|   197           0.00391       -0.06250       -0.43750        0.06250
 BRILLOUIN|   198           0.00391       -0.06250       -0.43750        0.18750
 BRILLOUIN|   199           0.00391       -0.06250       -0.43750        0.31250
 BRILLOUIN|   200           0.00391       -0.06250       -0.43750        0.43750
 BRILLOUIN|   201           0.00391       -0.06250       -0.31250       -0.43750
 BRILLOUIN|   202           0.00391       -0.06250       -0.31250       -0.31250
 BRILLOUIN|   203           0.00391       -0.06250       -0.31250       -0.18750
 BRILLOUIN|   204           0.00391       -0.06250       -0.31250       -0.06250
 BRILLOUIN|   205           0.00391       -0.06250       -0.31250        0.06250
 BRILLOUIN|   206           0.00391       -0.06250       -0.31250        0.18750
 BRILLOUIN|   207           0.00391       -0.06250       -0.31250        0.31250
 BRILLOUIN|   208           0.00391       -0.06250       -0.31250        0.43750
 BRILLOUIN|   209           0.00391       -0.06250       -0.18750       -0.43750
 BRILLOUIN|   210           0.00391       -0.06250       -0.18750       -0.31250
 BRILLOUIN|   211           0.00391       -0.06250       -0.18750       -0.18750
 BRILLOUIN|   212           0.00391       -0.06250       -0.18750       -0.06250
 BRILLOUIN|   213           0.00391       -0.06250       -0.18750        0.06250
 BRILLOUIN|   214           0.00391       -0.06250       -0.18750        0.18750
 BRILLOUIN|   215           0.00391       -0.06250       -0.18750        0.31250
 BRILLOUIN|   216           0.00391       -0.06250       -0.18750        0.43750
 BRILLOUIN|   217           0.00391       -0.06250       -0.06250       -0.43750
 BRILLOUIN|   218           0.00391       -0.06250       -0.06250       -0.31250
 BRILLOUIN|   219           0.00391       -0.06250       -0.06250       -0.18750
 BRILLOUIN|   220           0.00391       -0.06250       -0.06250       -0.06250
 BRILLOUIN|   221           0.00391       -0.06250       -0.06250        0.06250
 BRILLOUIN|   222           0.00391       -0.06250       -0.06250        0.18750
 BRILLOUIN|   223           0.00391       -0.06250       -0.06250        0.31250
 BRILLOUIN|   224           0.00391       -0.06250       -0.06250        0.43750
 BRILLOUIN|   225           0.00391       -0.06250        0.06250       -0.43750
 BRILLOUIN|   226           0.00391       -0.06250        0.06250       -0.31250
 BRILLOUIN|   227           0.00391       -0.06250        0.06250       -0.18750
 BRILLOUIN|   228           0.00391       -0.06250        0.06250       -0.06250
 BRILLOUIN|   229           0.00391       -0.06250        0.06250        0.06250
 BRILLOUIN|   230           0.00391       -0.06250        0.06250        0.18750
 BRILLOUIN|   231           0.00391       -0.06250        0.06250        0.31250
 BRILLOUIN|   232           0.00391       -0.06250        0.06250        0.43750
 BRILLOUIN|   233           0.00391       -0.06250        0.18750       -0.43750
 BRILLOUIN|   234           0.00391       -0.06250        0.18750       -0.31250
 BRILLOUIN|   235           0.00391       -0.06250        0.18750       -0.18750
 BRILLOUIN|   236           0.00391       -0.06250        0.18750       -0.06250
 BRILLOUIN|   237           0.00391       -0.06250        0.18750        0.06250
 BRILLOUIN|   238           0.00391       -0.06250        0.18750        0.18750
 BRILLOUIN|   239           0.00391       -0.06250        0.18750        0.31250
 BRILLOUIN|   240           0.00391       -0.06250        0.18750        0.43750
 BRILLOUIN|   241           0.00391       -0.06250        0.31250       -0.43750
 BRILLOUIN|   242           0.00391       -0.06250        0.31250       -0.31250
 BRILLOUIN|   243           0.00391       -0.06250        0.31250       -0.18750
 BRILLOUIN|   244           0.00391       -0.06250        0.31250       -0.06250
 BRILLOUIN|   245           0.00391       -0.06250        0.31250        0.06250
 BRILLOUIN|   246           0.00391       -0.06250        0.31250        0.18750
 BRILLOUIN|   247           0.00391       -0.06250        0.31250        0.31250
 BRILLOUIN|   248           0.00391       -0.06250        0.31250        0.43750
 BRILLOUIN|   249           0.00391       -0.06250        0.43750       -0.43750
 BRILLOUIN|   250           0.00391       -0.06250        0.43750       -0.31250
 BRILLOUIN|   251           0.00391       -0.06250        0.43750       -0.18750
 BRILLOUIN|   252           0.00391       -0.06250        0.43750       -0.06250
 BRILLOUIN|   253           0.00391       -0.06250        0.43750        0.06250
 BRILLOUIN|   254           0.00391       -0.06250        0.43750        0.18750
 BRILLOUIN|   255           0.00391       -0.06250        0.43750        0.31250
 BRILLOUIN|   256           0.00391       -0.06250        0.43750        0.43750
 *******************************************************************************

 *******************************************************************************
 *******************************************************************************
 **                                                                           **
 **     #####                         ##              ##                      **
 **    ##   ##            ##          ##              ##                      **
 **   ##     ##                       ##            ######                    **
 **   ##     ##  ##   ##  ##   #####  ##  ##   ####   ##    #####    #####    **
 **   ##     ##  ##   ##  ##  ##      ## ##   ##      ##   ##   ##  ##   ##   **
 **   ##  ## ##  ##   ##  ##  ##      ####     ###    ##   ######   ######    **
 **    ##  ###   ##   ##  ##  ##      ## ##      ##   ##   ##       ##        **
 **     #######   #####   ##   #####  ##  ##  ####    ##    #####   ##        **
 **           ##                                                    ##        **
 **                                                                           **
 **                                                ... make the atoms dance   **
 **                                                                           **
 **            Copyright (C) by CP2K developers group (2000-2025)             **
 **                      J. Chem. Phys. 152, 194103 (2020)                    **
 **                                                                           **
 *******************************************************************************

 DFT| Spin restricted Kohn-Sham (RKS) calculation                            RKS
 DFT| Multiplicity                                                             1
 DFT| Number of spin states                                                    1
 DFT| Charge                                                                   0
 DFT| Self-interaction correction (SIC)                                       NO
 DFT| Cutoffs: density                                              1.000000E-10
 DFT|          gradient                                             1.000000E-10
 DFT|          tau                                                  1.000000E-10
 DFT|          cutoff_smoothing_range                               0.000000E+00
 DFT| XC density smoothing                                                  NONE
 DFT| XC derivatives                                                          PW

 FUNCTIONAL| PBE:
 FUNCTIONAL| J.P.Perdew, K.Burke, M.Ernzerhof, Phys. Rev. Letter, vol. 77, n 18,
 FUNCTIONAL|  pp. 3865-3868, (1996) {spin unpolarized}                          


 QS| Method:                                                                 GPW
 QS| Density plane wave grid type                        NON-SPHERICAL FULLSPACE
 QS| Number of grid levels:                                                    4
 QS| Density cutoff [a.u.]:                                                500.0
 QS| Multi grid cutoff [a.u.]: 1) grid level                               500.0
 QS|                           2) grid level                               166.7
 QS|                           3) grid level                                55.6
 QS|                           4) grid level                                18.5
 QS| Grid level progression factor:                                          3.0
 QS| Relative density cutoff [a.u.]:                                        50.0
 QS| Interaction thresholds: eps_pgf_orb:                                1.0E-16
 QS|                         eps_filter_matrix:                          0.0E+00
 QS|                         eps_core_charge:                            1.0E-18
 QS|                         eps_rho_gspace:                             1.0E-16
 QS|                         eps_rho_rspace:                             1.0E-16
 QS|                         eps_gvg_rspace:                             1.0E-08
 QS|                         eps_ppl:                                    1.0E-02
 QS|                         eps_ppnl:                                   1.0E-10


 ATOMIC KIND INFORMATION

  1. Atomic kind: Sn                                    Number of atoms:       2

     Orbital Basis Set                                aug-DZVP-MOLOPT-GTH-tier-2

       Number of orbital shell sets:                                           1
       Number of orbital shells:                                               9
       Number of primitive Cartesian functions:                                6
       Number of Cartesian basis functions:                                   34
       Number of spherical basis functions:                                   29
       Norm type:                                                              2

       Normalised Cartesian orbitals:

                        Set   Shell   Orbital            Exponent    Coefficient

                          1       1    2s                0.063644       0.007393
                                                         0.064583       0.000000
                                                         0.065536      -0.028602
                                                         0.172776      -0.164135
                                                         0.486831      -0.306180
                                                         0.666670       0.520776

                          1       2    3s                0.063644       0.305207
                                                         0.064583       0.000000
                                                         0.065536      -0.189697
                                                         0.172776      -0.069724
                                                         0.486831      -0.377611
                                                         0.666670       0.493243

                          1       3    4s                0.063644      -0.213379
                                                         0.064583      -0.008745
                                                         0.065536       0.074992
                                                         0.172776       0.347080
                                                         0.486831      -0.140913
                                                         0.666670       0.170482

                          1       4    3px               0.063644       0.012992
                                                         0.064583       0.000000
                                                         0.065536      -0.029966
                                                         0.172776      -0.090433
                                                         0.486831      -0.396919
                                                         0.666670       0.519085
                          1       4    3py               0.063644       0.012992
                                                         0.064583       0.000000
                                                         0.065536      -0.029966
                                                         0.172776      -0.090433
                                                         0.486831      -0.396919
                                                         0.666670       0.519085
                          1       4    3pz               0.063644       0.012992
                                                         0.064583       0.000000
                                                         0.065536      -0.029966
                                                         0.172776      -0.090433
                                                         0.486831      -0.396919
                                                         0.666670       0.519085

                          1       5    4px               0.063644       0.174598
                                                         0.064583       0.000000
                                                         0.065536      -0.140797
                                                         0.172776       0.069716
                                                         0.486831      -0.723623
                                                         0.666670       0.740630
                          1       5    4py               0.063644       0.174598
                                                         0.064583       0.000000
                                                         0.065536      -0.140797
                                                         0.172776       0.069716
                                                         0.486831      -0.723623
                                                         0.666670       0.740630
                          1       5    4pz               0.063644       0.174598
                                                         0.064583       0.000000
                                                         0.065536      -0.140797
                                                         0.172776       0.069716
                                                         0.486831      -0.723623
                                                         0.666670       0.740630

                          1       6    5px               0.063644       2.200493
                                                         0.064583      -2.181127
                                                         0.065536      -0.015874
                                                         0.172776      -0.081098
                                                         0.486831       0.064798
                                                         0.666670       0.106517
                          1       6    5py               0.063644       2.200493
                                                         0.064583      -2.181127
                                                         0.065536      -0.015874
                                                         0.172776      -0.081098
                                                         0.486831       0.064798
                                                         0.666670       0.106517
                          1       6    5pz               0.063644       2.200493
                                                         0.064583      -2.181127
                                                         0.065536      -0.015874
                                                         0.172776      -0.081098
                                                         0.486831       0.064798
                                                         0.666670       0.106517

                          1       7    4dx2              0.063644       0.006227
                                                         0.064583       0.000000
                                                         0.065536      -0.014897
                                                         0.172776      -0.028531
                                                         0.486831      -0.202508
                                                         0.666670       0.239195
                          1       7    4dxy              0.063644       0.010786
                                                         0.064583       0.000000
                                                         0.065536      -0.025803
                                                         0.172776      -0.049418
                                                         0.486831      -0.350755
                                                         0.666670       0.414297
                          1       7    4dxz              0.063644       0.010786
                                                         0.064583       0.000000
                                                         0.065536      -0.025803
                                                         0.172776      -0.049418
                                                         0.486831      -0.350755
                                                         0.666670       0.414297
                          1       7    4dy2              0.063644       0.006227
                                                         0.064583       0.000000
                                                         0.065536      -0.014897
                                                         0.172776      -0.028531
                                                         0.486831      -0.202508
                                                         0.666670       0.239195
                          1       7    4dyz              0.063644       0.010786
                                                         0.064583       0.000000
                                                         0.065536      -0.025803
                                                         0.172776      -0.049418
                                                         0.486831      -0.350755
                                                         0.666670       0.414297
                          1       7    4dz2              0.063644       0.006227
                                                         0.064583       0.000000
                                                         0.065536      -0.014897
                                                         0.172776      -0.028531
                                                         0.486831      -0.202508
                                                         0.666670       0.239195

                          1       8    5dx2              0.063644       0.000608
                                                         0.064583       0.013929
                                                         0.065536       0.000036
                                                         0.172776      -0.007110
                                                         0.486831      -0.092991
                                                         0.666670      -0.017306
                          1       8    5dxy              0.063644       0.001054
                                                         0.064583       0.024126
                                                         0.065536       0.000063
                                                         0.172776      -0.012315
                                                         0.486831      -0.161065
                                                         0.666670      -0.029974
                          1       8    5dxz              0.063644       0.001054
                                                         0.064583       0.024126
                                                         0.065536       0.000063
                                                         0.172776      -0.012315
                                                         0.486831      -0.161065
                                                         0.666670      -0.029974
                          1       8    5dy2              0.063644       0.000608
                                                         0.064583       0.013929
                                                         0.065536       0.000036
                                                         0.172776      -0.007110
                                                         0.486831      -0.092991
                                                         0.666670      -0.017306
                          1       8    5dyz              0.063644       0.001054
                                                         0.064583       0.024126
                                                         0.065536       0.000063
                                                         0.172776      -0.012315
                                                         0.486831      -0.161065
                                                         0.666670      -0.029974
                          1       8    5dz2              0.063644       0.000608
                                                         0.064583       0.013929
                                                         0.065536       0.000036
                                                         0.172776      -0.007110
                                                         0.486831      -0.092991
                                                         0.666670      -0.017306

                          1       9    5fx3              0.063644      -0.000804
                                                         0.064583       0.000230
                                                         0.065536       0.000403
                                                         0.172776       0.025071
                                                         0.486831       0.068677
                                                         0.666670      -0.004331
                          1       9    5fx2y             0.063644      -0.001798
                                                         0.064583       0.000514
                                                         0.065536       0.000902
                                                         0.172776       0.056060
                                                         0.486831       0.153565
                                                         0.666670      -0.009684
                          1       9    5fx2z             0.063644      -0.001798
                                                         0.064583       0.000514
                                                         0.065536       0.000902
                                                         0.172776       0.056060
                                                         0.486831       0.153565
                                                         0.666670      -0.009684
                          1       9    5fxy2             0.063644      -0.001798
                                                         0.064583       0.000514
                                                         0.065536       0.000902
                                                         0.172776       0.056060
                                                         0.486831       0.153565
                                                         0.666670      -0.009684
                          1       9    5fxyz             0.063644      -0.003115
                                                         0.064583       0.000891
                                                         0.065536       0.001562
                                                         0.172776       0.097098
                                                         0.486831       0.265983
                                                         0.666670      -0.016774
                          1       9    5fxz2             0.063644      -0.001798
                                                         0.064583       0.000514
                                                         0.065536       0.000902
                                                         0.172776       0.056060
                                                         0.486831       0.153565
                                                         0.666670      -0.009684
                          1       9    5fy3              0.063644      -0.000804
                                                         0.064583       0.000230
                                                         0.065536       0.000403
                                                         0.172776       0.025071
                                                         0.486831       0.068677
                                                         0.666670      -0.004331
                          1       9    5fy2z             0.063644      -0.001798
                                                         0.064583       0.000514
                                                         0.065536       0.000902
                                                         0.172776       0.056060
                                                         0.486831       0.153565
                                                         0.666670      -0.009684
                          1       9    5fyz2             0.063644      -0.001798
                                                         0.064583       0.000514
                                                         0.065536       0.000902
                                                         0.172776       0.056060
                                                         0.486831       0.153565
                                                         0.666670      -0.009684
                          1       9    5fz3              0.063644      -0.000804
                                                         0.064583       0.000230
                                                         0.065536       0.000403
                                                         0.172776       0.025071
                                                         0.486831       0.068677
                                                         0.666670      -0.004331

       Atomic covalent radius [Angstrom]:                                  1.410

       Atomic van der Waals radius [Angstrom]:                             2.170

     GTH Potential information for                                       GTH-PBE

       Description:                       Goedecker-Teter-Hutter pseudopotential
                                           Goedecker et al., PRB 54, 1703 (1996)
                                          Hartwigsen et al., PRB 58, 3641 (1998)
                                                      Krack, TCA 114, 145 (2005)

       Gaussian exponent of the core charge distribution:               1.366027
       Electronic configuration (s p d ...):                               2   2

       Parameters of the local part of the GTH pseudopotential:

                          rloc        C1          C2          C3          C4
                        0.605000    6.266782

       Parameters of the non-local part of the GTH (SOC) pseudopotential:

                   l      r(l)      h(i,j,l)
                                    k(i,j,l)
                   0    0.566437    1.571181    1.470041   -1.178577
                                    1.470041   -3.814770    3.043072
                                   -1.178577    3.043072   -2.415363
                   1    0.641850    0.526898    0.403258
                                    0.403258   -0.477141
                                    0.221601   -0.112034
                                   -0.112034    0.132560
                   2    0.990873    0.198766
                                    0.004516


 MOLECULE KIND INFORMATION


 All atoms are their own molecule, skipping detailed information


 TOTAL NUMBERS AND MAXIMUM NUMBERS

  Total number of            - Atomic kinds:                                   1
                             - Atoms:                                          2
                             - Shell sets:                                     2
                             - Shells:                                        18
                             - Primitive Cartesian functions:                 12
                             - Cartesian basis functions:                     68
                             - Spherical basis functions:                     58

  Maximum angular momentum of- Orbital basis functions:                        3
                             - Local part of the GTH pseudopotential:          0
                             - Non-local part of the GTH pseudopotential:      4


 MODULE QUICKSTEP: ATOMIC COORDINATES IN ANGSTROM

   Atom Kind Element         X             Y             Z       Z(eff)     Mass
      1    1 Sn   50      0.000000      0.000000      0.000000   4.0000 118.7100
      2    1 Sn   50      2.353235      1.358641      0.960704   4.0000 118.7100



 SCF PARAMETERS         Density guess:                                    ATOMIC
                        --------------------------------------------------------
                        max_scf:                                             500
                        max_scf_history:                                       0
                        max_diis:                                              4
                        --------------------------------------------------------
                        eps_scf:                                        1.00E-09
                        eps_scf_history:                                0.00E+00
                        eps_diis:                                       1.00E-01
                        eps_eigval:                                     1.00E-05
                        --------------------------------------------------------
                        level_shift [a.u.]:                             0.000000
                        added MOs                                        54    0
                        --------------------------------------------------------
                        Mixing method:                            BROYDEN_MIXING
                                                charge density mixing in g-space
                        --------------------------------------------------------
                        Smear method:                                FERMI_DIRAC
                        Electronic temperature [K]:                        300.0
                        Electronic temperature [a.u.]:                  9.50E-04
                        Accuracy threshold:                             1.00E-10
                        --------------------------------------------------------
                        No outer SCF

 PW_GRID| Information for grid number                                          1
 PW_GRID| Grid distributed over                                     8 processors
 PW_GRID| Real space group dimensions                                     8    1
 PW_GRID| the grid is blocked:                                                NO
 PW_GRID| Cutoff [a.u.]                                                    500.0
 PW_GRID| spherical cutoff:                                                   NO
 PW_GRID|   Bounds   1            -45      44                Points:          90
 PW_GRID|   Bounds   2            -45      44                Points:          90
 PW_GRID|   Bounds   3            -45      44                Points:          90
 PW_GRID| Volume element (a.u.^3)  0.6824E-03     Volume (a.u.^3)       497.4707
 PW_GRID| Grid span                                                    FULLSPACE
 PW_GRID|   Distribution                         Average         Max         Min
 PW_GRID|   G-Vectors                            91125.0       91170       91080
 PW_GRID|   G-Rays                                1012.5        1013        1012
 PW_GRID|   Real Space Points                    91125.0       97200       89100

 PW_GRID| Information for grid number                                          2
 PW_GRID| Number of the reference grid                                         1
 PW_GRID| Grid distributed over                                     8 processors
 PW_GRID| Real space group dimensions                                     8    1
 PW_GRID| the grid is blocked:                                                NO
 PW_GRID| Cutoff [a.u.]                                                    166.7
 PW_GRID| spherical cutoff:                                                   NO
 PW_GRID|   Bounds   1            -27      26                Points:          54
 PW_GRID|   Bounds   2            -27      26                Points:          54
 PW_GRID|   Bounds   3            -27      26                Points:          54
 PW_GRID| Volume element (a.u.^3)  0.3159E-02     Volume (a.u.^3)       497.4707
 PW_GRID| Grid span                                                    FULLSPACE
 PW_GRID|   Distribution                         Average         Max         Min
 PW_GRID|   G-Vectors                            19683.0       19710       19656
 PW_GRID|   G-Rays                                 364.5         365         364
 PW_GRID|   Real Space Points                    19683.0       20412       17496

 PW_GRID| Information for grid number                                          3
 PW_GRID| Number of the reference grid                                         1
 PW_GRID| Grid distributed over                                     8 processors
 PW_GRID| Real space group dimensions                                     8    1
 PW_GRID| the grid is blocked:                                                NO
 PW_GRID| Cutoff [a.u.]                                                     55.6
 PW_GRID| spherical cutoff:                                                   NO
 PW_GRID|   Bounds   1            -15      14                Points:          30
 PW_GRID|   Bounds   2            -15      14                Points:          30
 PW_GRID|   Bounds   3            -15      14                Points:          30
 PW_GRID| Volume element (a.u.^3)  0.1842E-01     Volume (a.u.^3)       497.4707
 PW_GRID| Grid span                                                    FULLSPACE
 PW_GRID|   Distribution                         Average         Max         Min
 PW_GRID|   G-Vectors                             3375.0        3390        3360
 PW_GRID|   G-Rays                                 112.5         113         112
 PW_GRID|   Real Space Points                     3375.0        3600        2700

 PW_GRID| Information for grid number                                          4
 PW_GRID| Number of the reference grid                                         1
 PW_GRID| Grid distributed over                                     8 processors
 PW_GRID| Real space group dimensions                                     8    1
 PW_GRID| the grid is blocked:                                                NO
 PW_GRID| Cutoff [a.u.]                                                     18.5
 PW_GRID| spherical cutoff:                                                   NO
 PW_GRID|   Bounds   1             -9       8                Points:          18
 PW_GRID|   Bounds   2             -9       8                Points:          18
 PW_GRID|   Bounds   3             -9       8                Points:          18
 PW_GRID| Volume element (a.u.^3)  0.8530E-01     Volume (a.u.^3)       497.4707
 PW_GRID| Grid span                                                    FULLSPACE
 PW_GRID|   Distribution                         Average         Max         Min
 PW_GRID|   G-Vectors                              729.0         738         720
 PW_GRID|   G-Rays                                  40.5          41          40
 PW_GRID|   Real Space Points                      729.0         972         648

 POISSON| Solver                                                        PERIODIC
 POISSON| Periodicity                                                        XYZ

 RS_GRID| Information for grid number                                          1
 RS_GRID|   Bounds   1            -45      44                Points:          90
 RS_GRID|   Bounds   2            -45      44                Points:          90
 RS_GRID|   Bounds   3            -45      44                Points:          90
 RS_GRID| Real space fully replicated
 RS_GRID| Group size                                                           1

 RS_GRID| Information for grid number                                          2
 RS_GRID|   Bounds   1            -27      26                Points:          54
 RS_GRID|   Bounds   2            -27      26                Points:          54
 RS_GRID|   Bounds   3            -27      26                Points:          54
 RS_GRID| Real space fully replicated
 RS_GRID| Group size                                                           1

 RS_GRID| Information for grid number                                          3
 RS_GRID|   Bounds   1            -15      14                Points:          30
 RS_GRID|   Bounds   2            -15      14                Points:          30
 RS_GRID|   Bounds   3            -15      14                Points:          30
 RS_GRID| Real space fully replicated
 RS_GRID| Group size                                                           1

 RS_GRID| Information for grid number                                          4
 RS_GRID|   Bounds   1             -9       8                Points:          18
 RS_GRID|   Bounds   2             -9       8                Points:          18
 RS_GRID|   Bounds   3             -9       8                Points:          18
 RS_GRID| Real space fully replicated
 RS_GRID| Group size                                                           1

 Number of electrons:                                                          8
 Number of occupied orbitals:                                                  4
 Number of molecular orbitals:                                                58

 Number of orbital functions:                                                 58
 Number of independent orbital functions:                                     58

 Extrapolation method: initial_guess

 Atomic guess: The first density matrix is obtained in terms of atomic orbitals
               and electronic configurations assigned to each atomic kind

 Guess for atomic kind: Sn

 Electronic structure
    Total number of core electrons                                         46.00
    Total number of valence electrons                                       4.00
    Total number of electrons                                              50.00
    Multiplicity                                                   not specified
    S   [  2.00  2.00  2.00  2.00] 2.00
    P   [  6.00  6.00  6.00] 2.00
    D   [ 10.00 10.00]


 *******************************************************************************
                  Iteration          Convergence                     Energy [au]
 *******************************************************************************
                          1        0.165529                      -3.238538460015
                          2        0.496986E-01                  -3.272578392130
                          3        0.119117E-02                  -3.276293644412
                          4        0.603585E-04                  -3.276296085312
                          5        0.480547E-06                  -3.276296090727

 Energy components [Hartree]           Total Energy ::           -3.276296090727
                                        Band Energy ::           -0.940333424970
                                     Kinetic Energy ::            1.129877759496
                                   Potential Energy ::           -4.406173850223
                                      Virial (-V/T) ::            3.899690752553
                                        Core Energy ::           -5.002472026776
                                          XC Energy ::           -0.873532783852
                                     Coulomb Energy ::            2.599708719901
                       Total Pseudopotential Energy ::           -6.186757385166
                       Local Pseudopotential Energy ::           -6.247057107286
                    Nonlocal Pseudopotential Energy ::            0.060299722121
                                        Confinement ::            0.544075988938

 Orbital energies  State     L     Occupation   Energy[a.u.]          Energy[eV]

                       1     0          2.000      -0.361368           -9.833336

                       1     1          2.000      -0.108798           -2.960551


 Total Electron Density at R=0:                                         0.000736
 Re-scaling the density matrix to get the right number of electrons
                  # Electrons              Trace(P)               Scaling factor
                            8                 8.000                        1.000


 SCF WAVEFUNCTION OPTIMIZATION

  Step     Update method      Time    Convergence         Total energy    Change
  ------------------------------------------------------------------------------
     1 NoMix/Diag. 0.10E+00    8.5     0.37001170        -7.0131845883 -7.01E+00
     2 Broy./Diag. 0.10E+00   10.0     0.00031202        -7.0408683079 -2.77E-02
     3 Broy./Diag. 0.10E+00   10.2     0.00896279        -6.9340129620  1.07E-01
     4 Broy./Diag. 0.10E+00   10.0     0.00028385        -6.9523881051 -1.84E-02
     5 Broy./Diag. 0.10E+00   10.0     0.00436205        -6.9606256730 -8.24E-03
     6 Broy./Diag. 0.10E+00   10.0     0.00079278        -6.9673294821 -6.70E-03
     7 Broy./Diag. 0.10E+00   10.0     0.00451440        -6.9835614499 -1.62E-02
     8 Broy./Diag. 0.10E+00   10.0     0.00010587        -6.9856840639 -2.12E-03
     9 Broy./Diag. 0.10E+00   10.1     0.00070898        -6.9875401871 -1.86E-03
    10 Broy./Diag. 0.10E+00   10.0     0.00001577        -6.9878097137 -2.70E-04
    11 Broy./Diag. 0.10E+00   10.0     0.00002310        -6.9879969041 -1.87E-04
    12 Broy./Diag. 0.10E+00   10.0     0.00000731        -6.9880317277 -3.48E-05
    13 Broy./Diag. 0.10E+00   10.1     0.00001846        -6.9880533380 -2.16E-05
    14 Broy./Diag. 0.10E+00   10.0     0.00000104        -6.9880546506 -1.31E-06
    15 Broy./Diag. 0.10E+00   10.0     0.00000125        -6.9880543593  2.91E-07
    16 Broy./Diag. 0.10E+00   10.0     0.00000215        -6.9880549142 -5.55E-07
    17 Broy./Diag. 0.10E+00   10.0     0.00000003        -6.9880550230 -1.09E-07
    18 Broy./Diag. 0.10E+00   10.1     0.00000027        -6.9880548640  1.59E-07
    19 Broy./Diag. 0.10E+00   10.0     0.00000019        -6.9880550496 -1.86E-07
    20 Broy./Diag. 0.10E+00   10.1     0.00000003        -6.9880550544 -4.85E-09
    21 Broy./Diag. 0.10E+00   10.1     0.00000005        -6.9880549831  7.13E-08
    22 Broy./Diag. 0.10E+00   10.2     0.00000007        -6.9880549695  1.36E-08
    23 Broy./Diag. 0.10E+00   10.1     6.2504E-09        -6.9880549918 -2.23E-08
    24 Broy./Diag. 0.10E+00   10.1     6.4051E-09        -6.9880549627  2.91E-08
    25 Broy./Diag. 0.10E+00   10.1     3.0133E-09        -6.9880549386  2.41E-08
    26 Broy./Diag. 0.10E+00   10.0     4.3865E-09        -6.9880549523 -1.37E-08
    27 Broy./Diag. 0.10E+00   10.1     7.2107E-09        -6.9880549553 -3.02E-09
    28 Broy./Diag. 0.10E+00   10.1     0.00000001        -6.9880549568 -1.50E-09
    29 Broy./Diag. 0.10E+00   10.1     4.9535E-09        -6.9880549644 -7.63E-09
    30 Broy./Diag. 0.10E+00   10.0     2.7530E-09        -6.9880549670 -2.54E-09
    31 Broy./Diag. 0.10E+00   10.1     3.5214E-09        -6.9880549637  3.27E-09
    32 Broy./Diag. 0.10E+00   10.0     1.9225E-09        -6.9880549635  2.17E-10
    33 Broy./Diag. 0.10E+00   10.1     7.7589E-10        -6.9880549659 -2.44E-09

  *** SCF run converged in    33 steps ***


  Electronic density on regular grids:         -8.0000000000        0.0000000000
  Core density on regular grids:                8.0000000000       -0.0000000000
  Total charge density on r-space grids:        0.0000000000
  Total charge density g-space grids:           0.0000000000

  Overlap energy of the core charge distribution:               0.00000000228585
  Self energy of the core charge distribution:                -14.92071625911422
  Core Hamiltonian energy:                                      3.10797003537943
  Hartree energy:                                               6.87417009033663
  Exchange-correlation energy:                                 -2.04946599942943
  Electronic entropic energy:                                  -0.00001283538435
  Fermi energy:                                                 0.10026182026835

  Total energy:                                                -6.98805496592608

 !-----------------------------------------------------------------------------!
                     Mulliken Population Analysis

 #  Atom  Element  Kind  Atomic population                           Net charge
       1     Sn       1          4.000019                             -0.000019
       2     Sn       1          3.999981                              0.000019
 # Total charge                              8.000000                 -0.000000

 !-----------------------------------------------------------------------------!

 !-----------------------------------------------------------------------------!
                           Hirshfeld Charges

  #Atom  Element  Kind  Ref Charge     Population                    Net charge
      1       Sn     1       4.000          4.000                        -0.000
      2       Sn     1       4.000          4.000                         0.000

  Total Charge                                                           -0.000
 !-----------------------------------------------------------------------------!

 KPOINTS| Band Structure Calculation
 KPOINTS| Number of k-point sets                                               1
 KPOINTS| Number of added MOs/bands                                           -1
 KPOINTS| Number of k-points in set    1                                     148
 KPOINTS| In units of b-vector [2pi/Bohr]
 KPOINTS| Special point     1 not specifi     0.000000     0.000000     0.000000
 KPOINTS| Special point     2 not specifi     0.500000     0.000000     0.500000
 KPOINTS| Special point     3 not specifi     0.625000     0.250000     0.625000
 KPOINTS| Special point     4 not specifi     0.000000     0.000000     0.000000
 KPOINTS| Time for k-point line                                            2.997

 ENERGY| Total FORCE_EVAL ( QS ) energy [hartree]             -6.988054965926082

 -------------------------------------------------------------------------------
 -                                                                             -
 -                                DBCSR STATISTICS                             -
 -                                                                             -
 -------------------------------------------------------------------------------
 COUNTER                                    TOTAL       BLAS       SMM       ACC
 flops inhomo. stacks                           0       0.0%      0.0%      0.0%
 flops total                         0.000000E+00       0.0%      0.0%      0.0%
 flops max/rank                      0.000000E+00       0.0%      0.0%      0.0%
 matmuls inhomo. stacks                         0       0.0%      0.0%      0.0%
 matmuls total                                  0       0.0%      0.0%      0.0%
 number of processed stacks                     0       0.0%      0.0%      0.0%
 average stack size                                     0.0       0.0       0.0
 marketing flops                     0.000000E+00
 -------------------------------------------------------------------------------
 -                                                                             -
 -                      DBCSR MESSAGE PASSING PERFORMANCE                      -
 -                                                                             -
 -------------------------------------------------------------------------------
 ROUTINE             CALLS      AVE VOLUME [Bytes]
 MP_Bcast                1                     12.
 MP_Allreduce           19                     21.
 MP_Alltoall        732872                   5483.
 -------------------------------------------------------------------------------

 -------------------------------------------------------------------------------
 -                                                                             -
 -                                DBM STATISTICS                               -
 -                                                                             -
 -------------------------------------------------------------------------------
    M  x    N  x    K                                          COUNT     PERCENT
 -------------------------------------------------------------------------------

 -------------------------------------------------------------------------------
 -                                                                             -
 -                                GRID STATISTICS                              -
 -                                                                             -
 -------------------------------------------------------------------------------
 LP    KERNEL             BACKEND                              COUNT     PERCENT
 6     collocate general  CPU                                1051416      50.75%
 6     integrate general  CPU                                1020492      49.25%
 0     collocate general  CPU                                      4       0.00%
 0     integrate general  CPU                                      2       0.00%
 -------------------------------------------------------------------------------

 MEMORY| Estimated peak process memory [MiB]                                 524

 -------------------------------------------------------------------------------
 ----                             MULTIGRID INFO                            ----
 -------------------------------------------------------------------------------
 count for grid        1:              0          cutoff [a.u.]          500.00
 count for grid        2:           8150          cutoff [a.u.]          166.67
 count for grid        3:          58482          cutoff [a.u.]           55.56
 count for grid        4:          83604          cutoff [a.u.]           18.52
 total gridlevel count  :         150236

 -------------------------------------------------------------------------------
 -                                                                             -
 -                         MESSAGE PASSING PERFORMANCE                         -
 -                                                                             -
 -------------------------------------------------------------------------------

 ROUTINE             CALLS      AVE VOLUME [Bytes]
 MP_Group                6
 MP_Bcast           307888                   1624.
 MP_Allreduce       125191                     42.
 MP_Sync                 4
 MP_Alltoall           599                4006508.
 MP_SendRecv           966                 252096.
 MP_ISendRecv          931                 248377.
 MP_Wait            212535
 MP_comm_split           4
 MP_ISend           225164                    814.
 MP_IRecv           359552                    501.
 -------------------------------------------------------------------------------


 -------------------------------------------------------------------------------
 -                                                                             -
 -                           R E F E R E N C E S                               -
 -                                                                             -
 -------------------------------------------------------------------------------
 
 CP2K version 2025.1 (Development Version), the CP2K developers group (2025).
 CP2K is freely available from https://www.cp2k.org/ .
 
 T. D. Kuehne, M. Iannuzzi, M. Del Ben, V. V. Rybkin, P. Seewald, F. Stein, T. 
 Laino, R. Z. Khaliullin, O. Schuett, F. Schiffmann, D. Golze, J. Wilhelm, S. 
 Chulkov, M. H. Bani-Hashemian, V. Weber, U. Borstnik, M. Taillefumier, A. S. 
 Jakobovits, A. Lazzaro, H. Pabst, T. Mueller, R. Schade, M. Guidon, S. 
 Andermatt, N. Holmberg, G. K. Schenter, A. Hehn, A. Bussy, F. Belleflamme, G. 
 Tabacchi, A. Gloess, M. Lass, I. Bethune, C. J. Mundy, C. Plessl, M. Watkins, 
 J. VandeVondele, M. Krack, J. Hutter.
 J. Chem. Phys. 152, 194103 (2020).
 CP2K: An electronic structure and molecular dynamics software package - 
 Quickstep: Efficient and accurate electronic structure calculations.
 https://doi.org/10.1063/5.0007045

 O. Schuett, P. Messmer, J. Hutter, J. VandeVondele.
 Electronic Structure Calculations on Graphics Processing Units, 173-190 (2016).
 GPU-Accelerated Sparse Matrix-Matrix Multiplication for Linear Scaling Density 
 Functional Theory.
 https://doi.org/10.1002/9781118670712.ch8

 J. Hutter, M. Iannuzzi, F. Schiffmann, J. VandeVondele.
 WIREs Comput Mol Sci. 4, 15-25 (2014).
 CP2K: atomistic simulations of condensed matter systems.
 https://doi.org/10.1002/wcms.1159

 U. Borstnik, J. VandeVondele, V. Weber, J. Hutter.
 Parallel Comput. 40, 47-58 (2014).
 Sparse matrix multiplication: The distributed block-compressed sparse row 
 library.
 https://doi.org/10.1016/j.parco.2014.03.012

 J. VandeVondele, J. Hutter.
 J. Chem. Phys. 127, 114105 (2007).
 Gaussian basis sets for accurate calculations on molecular systems in gas and 
 condensed phases.
 https://doi.org/10.1063/1.2770708

 J. VandeVondele, M. Krack, F. Mohamed, M. Parrinello, T. Chassaing, J. Hutter.
 Comput. Phys. Commun. 167, 103-128 (2005).
 QUICKSTEP: Fast and accurate density functional calculations using a mixed 
 Gaussian and plane waves approach.
 https://doi.org/10.1016/j.cpc.2004.12.014

 M. Krack.
 Theor. Chem. Acc. 114, 145-152 (2005).
 Pseudopotentials for H to Kr optimized for gradient-corrected 
 exchange-correlation functionals.
 https://doi.org/10.1007/s00214-005-0655-y

 M. Frigo, S. G. Johnson.
 Proc. IEEE 93, 216-231 (2005).
 The design and implementation of FFTW3.
 https://doi.org/10.1109/JPROC.2004.840301

 C. Hartwigsen, S. Goedecker, J. Hutter.
 Phys. Rev. B 58, 3641-3662 (1998).
 Relativistic separable dual-space Gaussian pseudopotentials from H to Rn.
 https://doi.org/10.1103/PhysRevB.58.3641

 G. Lippert, J. Hutter, M. Parrinello.
 Mol. Phys. 92, 477-487 (1997).
 A hybrid Gaussian and plane wave density functional scheme.
 https://doi.org/10.1080/002689797170220

 S. Goedecker, M. Teter, J. Hutter.
 Phys. Rev. B 54, 1703-1710 (1996).
 Separable dual-space Gaussian pseudopotentials.
 https://doi.org/10.1103/PhysRevB.54.1703

 J. P. Perdew, K. Burke, M. Ernzerhof.
 Phys. Rev. Lett. 77, 3865-3868 (1996).
 Generalized gradient approximation made simple.
 https://doi.org/10.1103/PhysRevLett.77.3865


 -------------------------------------------------------------------------------
 -                                                                             -
 -                                T I M I N G                                  -
 -                                                                             -
 -------------------------------------------------------------------------------
 SUBROUTINE                       CALLS  ASD         SELF TIME        TOTAL TIME
                                MAXIMUM       AVERAGE  MAXIMUM  AVERAGE  MAXIMUM
 CP2K                                 1  1.0    0.014    0.018  340.125  340.125
 qs_energies                          1  2.0    0.023    0.151  339.834  339.907
 scf_env_do_scf                       1  3.0    0.000    0.000  333.528  333.528
 scf_env_do_scf_inner_loop           33  4.0    0.037    0.039  333.527  333.528
 do_general_diag_kp                  34  5.9    0.186    0.217  270.145  281.143
 qs_scf_new_mos_kp                   33  5.0    0.000    0.000  267.323  278.302
 mp_alltoall_i22                 125060  8.8  203.247  249.986  203.247  249.986
 dbcsr_desymmetrize_deep          71274  7.4    1.069    1.272  159.582  194.759
 rskp_transform                   17192  6.9   23.923  128.632   23.923  128.632
 dbcsr_complete_redistribute      53786  8.2    1.749    2.027   64.989   76.484
 kpoint_density_transform            33  7.0    0.084    0.100   67.049   67.232
 copy_fm_to_dbcsr                 16896  8.0    0.097    0.109   53.700   64.958
 qs_ks_update_qs_env                 33  5.0    0.000    0.000   13.797   61.193
 transform_dmat                    8448  8.0   11.283   60.496   11.283   60.496
 rebuild_ks_matrix                   33  6.0    0.000    0.000   12.533   59.930
 qs_ks_build_kohn_sham_matrix        33  7.0    0.069    0.072   12.533   59.929
 sum_up_and_integrate                33  8.0    0.000    0.000   11.370   58.736
 integrate_v_rspace                  33  9.0    0.035    0.183   11.369   58.734
 grid_integrate_task_list            33 10.0   10.990   58.239   10.990   58.239
 transfer_rs2pw                     138  8.0    0.002    0.002   41.257   50.785
 transfer_rs2pw_500                  36  8.9    0.098    0.109   41.191   50.718
 mp_sendrecv_dv                     966 10.0   41.134   50.664   41.134   50.664
 qs_rho_update_rho_low               34  5.0    0.000    0.000   50.176   50.183
 calculate_rho_elec                  34  6.0    0.029    0.057   50.176   50.183
 density_rs2pw                       34  7.0    0.001    0.002   40.630   49.948
 grid_collocate_task_list            34  7.0    9.513   49.627    9.513   49.627
 copy_dbcsr_to_fm                 36890  6.9    0.361    0.404   18.175   18.377
 cp_fm_start_copy_general         51280  7.3    0.758    1.106    4.631    4.668
 dbcsr_finalize                  145508  8.4    0.610    0.635    4.324    4.528
 mp_alltoall_d11v                375180  9.3    3.897    4.115    3.897    4.115
 mp_cart_sub                      73782  8.9    3.218    3.238    3.218    3.238
 hybrid_alltoall_any              71274  8.4    0.285    0.320    2.571    2.722
 dbcsr_merge_all                  53786 10.2    1.462    1.693    2.486    2.705
 mp_alltoall_i11v                232632  9.0    2.342    2.379    2.342    2.379
 cp_cfm_geeig_canon                1093  6.9    0.007    0.008    2.118    2.151
 mp_allgather_i                  102560  8.3    2.007    2.109    2.007    2.109
 cp_cfm_heevd                      2186  7.9    0.002    0.002    1.944    1.977
 cp_cfm_heevd_base                 2186  8.9    1.942    1.975    1.942    1.975
 write_kpoints_restart               33  5.0    0.010    0.014    1.937    1.937
 mp_cart_create                   36897  8.9    1.777    1.849    1.777    1.849
 init_scf_run                         1  3.0    0.000    0.000    1.743    1.795
 scf_env_initial_rho_setup            1  4.0    0.000    0.000    1.743    1.795
 dbcsr_dot                        82699  8.0    0.369    0.605    1.423    1.475
 mp_bcast_iv                     205146  8.3    1.239    1.411    1.239    1.411
 qs_energies_init_hamiltonians        1  3.0    0.000    0.000    1.331    1.331
 dbcsr_work_create               125060  8.8    0.734    0.767    1.184    1.283
 evaluate_core_matrix_traces         33  6.0    0.000    0.000    1.264    1.264
 calculate_ptrace_kp                 66  7.0    0.061    0.063    1.263    1.263
 dbcsr_create_new                270550  8.0    0.964    1.014    1.159    1.233
 mp_sum_d                         83381  9.0    1.016    1.177    1.016    1.177
 dbcsr_copy                      100847  6.9    0.487    0.537    0.856    1.064
 build_core_hamiltonian_matrix        1  4.0    0.005    0.005    0.266    1.064
 qs_env_update_s_mstruct              1  4.0    0.000    0.000    0.872    1.034
 calculate_rho_core                   1  5.0    0.002    0.005    0.817    1.021
 dbcsr_iterator_start            465507  8.9    0.863    0.894    0.989    1.021
 fft_wrap_pw1pw2                    599 10.0    0.005    0.006    0.975    0.993
 cp_dbcsr_alloc_block_from_nbl     8971  5.1    0.181    0.865    0.212    0.985
 self_consistency_check              33  5.0    0.058    0.061    0.907    0.952
 fft_wrap_pw1pw2_500                398 11.3    0.061    0.062    0.894    0.910
 dbcsr_work_destroy_all          125060  9.8    0.593    0.600    0.892    0.903
 dbcsr_data_new                 1352335  9.7    0.771    0.877    0.771    0.877
 cp_sm_mix                        41349  6.0    0.123    0.254    0.784    0.842
 tree_to_linear_d                 53786 11.2    0.811    0.837    0.811    0.837
 fft3d_ps                           599 12.0    0.312    0.358    0.806    0.830
 copy_fm_to_dbcsr_bc              16896  9.0    0.216    0.236    0.741    0.814
 copy_dbcsr_to_fm_bc              36890  7.9    0.353    0.363    0.794    0.803
 cp_fm_write_unformatted           2506  6.0    0.517    0.713    0.524    0.742
 dbcsr_data_release             1960390 10.1    0.687    0.734    0.687    0.734
 kpoint_set_mo_occupation            33  7.0    0.667    0.674    0.699    0.714
 qs_vxc_create                       33  8.0    0.001    0.001    0.656    0.658
 xc_vxc_pw_create                    33  9.0    0.024    0.026    0.656    0.658
 dbcsr_iterator_stop             465507  8.9    0.549    0.553    0.649    0.656
 mp_max_d                         41351  7.0    0.560    0.650    0.560    0.650
 dbcsr_destroy                   187852  8.0    0.303    0.330    0.569    0.629
 gspace_mixing                       32  5.0    0.021    0.022    0.530    0.530
 mp_alltoall_z22v                   599 14.0    0.437    0.481    0.437    0.481
 mp_bcast_im                     102560  8.3    0.399    0.462    0.399    0.462
 xc_pw_derive                       198 11.0    0.001    0.001    0.430    0.438
 broyden_mixing                      32  6.0    0.415    0.429    0.426    0.434
 quick_finalize                   71274  9.4    0.178    0.229    0.296    0.397
 mp_waitall_1                    212535  8.3    0.204    0.397    0.204    0.397
 dbcsr_set                       178519  7.6    0.158    0.168    0.245    0.397
 dbcsr_copy_into_existing         18149  9.7    0.134    0.282    0.235    0.386
 potential_pw2rs                     33 10.0    0.002    0.002    0.343    0.359
 xc_rho_set_and_dset_create          33 10.0    0.013    0.016    0.329    0.349
 build_core_ppl                       1  5.0    0.067    0.328    0.067    0.328
 cp_fm_finish_copy_general        21268  7.8    0.251    0.284    0.279    0.327
 xc_pw_divergence                    33 10.0    0.000    0.000    0.296    0.303
 kpoint_density_matrices             33  7.0    0.015    0.016    0.272    0.300
 mixing_allocate                      1  3.0    0.007    0.007    0.078    0.297
 mp_comm_free                    110713  8.9    0.254    0.282    0.254    0.282
 x_to_yz                            330 13.2    0.033    0.036    0.255    0.279
 parallel_gemm_fm                  4224  8.0    0.004    0.004    0.251    0.278
 calculate_first_density_matrix       1  5.0    0.001    0.001    0.226    0.278
 calculate_atomic_block_dm            1  6.0    0.001    0.001    0.224    0.276
 parallel_gemm_fm_gemm             4224  9.0    0.004    0.004    0.247    0.274
 cp_fm_gemm                        4224 10.0    0.243    0.270    0.243    0.270
 yz_to_x                            269 12.8    0.019    0.021    0.234    0.261
 dbcsr_zero                      178519  8.6    0.087    0.230    0.087    0.230
 calculate_ecore_overlap              1  4.0    0.000    0.000    0.181    0.224
 dbcsr_reserve_blocks             25867  9.3    0.099    0.189    0.117    0.214
 transfer_pw2rs                     133 11.0    0.001    0.001    0.213    0.213
 build_overlap_matrix_low             1  5.0    0.016    0.052    0.051    0.195
 build_kinetic_matrix_low             1  5.0    0.015    0.043    0.049    0.185
 mp_sum_dv                          328  3.4    0.097    0.177    0.097    0.177
 build_core_ppnl                      1  5.0    0.041    0.175    0.041    0.175
 dbcsr_iterator_seek             465507  9.9    0.126    0.164    0.126    0.164
 transfer_pw2rs_500                  34 11.9    0.083    0.086    0.156    0.158
 dbcsr_sort_indices              150927 11.0    0.086    0.156    0.086    0.156
 cp_cfm_gemm                       3279  7.9    0.153    0.155    0.153    0.155
 restraint_control                    1  2.0    0.000    0.000    0.074    0.147
 mp_sum_i                             4  2.8    0.074    0.147    0.074    0.147
 qs_env_rebuild_rho                   1  5.0    0.000    0.000    0.038    0.146
 qs_rho_rebuild                       1  6.0    0.003    0.004    0.038    0.146
 dbcsr_make_index_exist          270550  9.0    0.126    0.144    0.126    0.144
 mp_sum_iv                           24  5.3    0.110    0.135    0.110    0.135
 qs_scf_ensure_work_matrices          1  3.0    0.000    0.000    0.110    0.135
 dbcsr_reserve_all_blocks         16896 10.0    0.024    0.029    0.114    0.133
 xc_functional_eval                  33 11.0    0.000    0.000    0.108    0.129
 pbe_lda_eval                        33 12.0    0.108    0.128    0.108    0.128
 merge_index                      53786 11.2    0.108    0.116    0.108    0.116
 mp_irecv_iv                     205120  8.3    0.013    0.102    0.013    0.102
 mp_isend_dv                      51872  8.3    0.091    0.100    0.091    0.100
 parser_read_line                  7193  4.0    0.002    0.003    0.092    0.094
 parser_read_line_low                25  6.1    0.009    0.036    0.090    0.092
 qs_create_task_list                  1  5.0    0.000    0.000    0.017    0.091
 generate_qs_task_list                1  6.0    0.013    0.072    0.017    0.090
 broadcast_input_information         25  7.1    0.027    0.032    0.081    0.087
 dbcsr_switch_data_area           71274 10.4    0.065    0.065    0.084    0.085
 cp_fm_cleanup_copy_general       36496  7.0    0.048    0.051    0.074    0.079
 scf_post_calculation_gpw             1  3.0    0.000    0.000    0.071    0.071
 mp_isend_iv                     115528  8.3    0.019    0.071    0.019    0.071
 write_available_results              1  4.0    0.000    0.000    0.071    0.071
 write_mo_free_results                1  5.0    0.001    0.001    0.071    0.071
 create_qs_kind_set                   1  2.0    0.000    0.000    0.068    0.069
 read_qs_kind                         1  3.0    0.035    0.037    0.068    0.069
 dbcsr_data_copy_aa2              53786 11.0    0.032    0.068    0.032    0.068
 topology_control                     1  2.0    0.000    0.000    0.065    0.066
 pw_scatter_p                       330 12.2    0.055    0.062    0.055    0.062
 fft_wrap_pw1pw2_170                 67 10.5    0.003    0.003    0.053    0.056
 pw_poisson_solve                    33  8.0    0.000    0.000    0.052    0.053
 dbcsr_distribution_new           53788  8.5    0.039    0.051    0.039    0.051
 mp_isendrecv_dv                    931 13.0    0.022    0.050    0.022    0.050
 mp_irecv_im2                    102560  8.3    0.006    0.050    0.006    0.050
 mp_sum_dm3                          33  8.0    0.032    0.049    0.032    0.049
 transfer_rs2pw_170                  34  9.0    0.018    0.020    0.047    0.049
 read_cell_cif                        2  4.5    0.002    0.005    0.045    0.046
 transfer_pw2rs_170                  33 12.0    0.018    0.019    0.042    0.045
 dbcsr_get_data_size_used        125060  9.8    0.040    0.045    0.040    0.045
 qs_init_subsys                       1  2.0    0.002    0.002    0.041    0.041
 dbcsr_make_dbcsr_index          150927 10.9    0.038    0.039    0.038    0.039
 coordinate_control                   1  3.0    0.001    0.001    0.039    0.039
 coordinate_control_READ_COORDI       1  4.0    0.000    0.000    0.038    0.039
 read_coordinate_cif                  1  5.0    0.002    0.002    0.038    0.039
 mp_bcast_i_src                     100  8.1    0.032    0.039    0.032    0.039
 qs_env_setup                         1  3.0    0.000    0.000    0.038    0.038
 qs_env_rebuild_pw_env                2  3.5    0.000    0.000    0.037    0.038
 pw_env_rebuild                       1  5.0    0.000    0.000    0.037    0.038
 pw_gather_p                        269 11.8    0.030    0.037    0.030    0.037
 pw_grid_setup                        4  6.0    0.000    0.000    0.035    0.036
 pw_grid_setup_internal               4  7.0    0.001    0.001    0.035    0.035
 -------------------------------------------------------------------------------

 The number of warnings for this run is : 1
 
 -------------------------------------------------------------------------------
  **** **** ******  **  PROGRAM ENDED AT                 2025-08-04 22:05:18.814
 ***** ** ***  *** **   PROGRAM RAN ON                              i04r08c02s04
 **    ****   ******    PROGRAM RAN BY                                   di38fab
 ***** **    ** ** **   PROGRAM PROCESS ID                                317964
  **** **  *******  **  PROGRAM STOPPED IN /hppfs/scratch/04/di38fab/09_GTH/Delt
                                           a_Set/Sn/aug-DZVP-MOLOPT-GTH-tier-2/8
                                           x8x8
