 DBCSR| CPU Multiplication driver                                           BLAS (U)
 DBCSR| Multrec recursion limit                                              512 (U)
 DBCSR| Multiplication stack size                                           1000 (D)
 DBCSR| Maximum elements for images                                    UNLIMITED (U)
 DBCSR| Multiplicative factor virtual images                                   1 (U)
 DBCSR| Use multiplication densification                                       T (D)
 DBCSR| Multiplication size stacks                                             3 (U)
 DBCSR| Use memory pool for CPU allocation                                     F (U)
 DBCSR| Number of 3D layers                                               SINGLE (U)
 DBCSR| Use MPI memory allocation                                              F (U)
 DBCSR| Use RMA algorithm                                                      F (U)
 DBCSR| Use Communication thread                                               T (U)
 DBCSR| Communication thread load                                             45 (D)
 DBCSR| MPI: My process id                                                     0
 DBCSR| MPI: Number of processes                                               8
 DBCSR| OMP: Current number of threads                                        12
 DBCSR| OMP: Max number of threads                                            12
 DBCSR| Split modifier for TAS multiplication algorithm                  1.0E+00 (U)


  **** **** ******  **  PROGRAM STARTED AT               2025-08-05 00:10:52.523
 ***** ** ***  *** **   PROGRAM STARTED ON                          i02r04c02s06
 **    ****   ******    PROGRAM STARTED BY                               di38fab
 ***** **    ** ** **   PROGRAM PROCESS ID                               3318613
  **** **  *******  **  PROGRAM STARTED IN /hppfs/scratch/04/di38fab/09_GTH/Delt
                                           a_Set/Sr/aug-DZVP-MOLOPT-GTH-tier-1/8
                                           x8x8

 CP2K| version string:                 CP2K version 2025.1 (Development Version)
 CP2K| source code revision number:                                  git:3130539
 CP2K| cp2kflags: omp libint fftw3 libxc parallel scalapack max_contr=4         
 CP2K| is freely available from                            https://www.cp2k.org/
 CP2K| Program compiled at                         Tue Jun  3 16:14:32 CEST 2025
 CP2K| Program compiled on                                               login01
 CP2K| Program compiled for                                        Supermuc-foss
 CP2K| Data directory path                  /hppfs/work/pn36zo/di38fab/cp2k/data
 CP2K| Input file name                                                    GW.inp

 GLOBAL| Force Environment number                                              1
 GLOBAL| Basis set file name            /hppfs/scratch/04/di38fab/09_GTH/BASIS_A
 GLOBAL| Potential file name            /hppfs/work/pn36zo/di38fab/cp2k/data/GTH
 GLOBAL| MM Potential file name                                     MM_POTENTIAL
 GLOBAL| Coordinate file name                                             Sr.cif
 GLOBAL| Method name                                                        CP2K
 GLOBAL| Project name                                                       WSe2
 GLOBAL| Run type                                                         ENERGY
 GLOBAL| FFT library                                                       FFTW3
 GLOBAL| Diagonalization library                                       ScaLAPACK
 GLOBAL| Cholesky decomposition library                                ScaLAPACK
 GLOBAL| DGEMM library                                                      BLAS
 GLOBAL| Orthonormality check for eigenvectors                          DISABLED
 GLOBAL| Matrix multiplication library                                 ScaLAPACK
 GLOBAL| All-to-all communication in single precision                          F
 GLOBAL| FFTs using library dependent lengths                                  F
 GLOBAL| Grid backend                                                       AUTO
 GLOBAL| Global print level                                               MEDIUM
 GLOBAL| MPI I/O enabled                                                       T
 GLOBAL| Total number of message passing processes                             8
 GLOBAL| Number of threads for this process                                   12
 GLOBAL| This output is from process                                           0
 GLOBAL| OpenMP stack size per thread (OMP_STACKSIZE)                    default
 GLOBAL| CPU model name             Intel(R) Xeon(R) Platinum 8174 CPU @ 3.10GHz

 MEMORY| system memory details [Kb]
 MEMORY|                        rank 0           min           max       average
 MEMORY| MemTotal             98436660      98436660      98436708      98436684
 MEMORY| MemFree              86055304      84386476      86055304      85220890
 MEMORY| Buffers                     0             0             0             0
 MEMORY| Cached                2355832       2355832       2400208       2378020
 MEMORY| Slab                  1055916       1055916       1279848       1167882
 MEMORY| SReclaimable           243320        243320        274080        258700
 MEMORY| MemLikelyFree        88654456      87060764      88654456      87857610


 *** Fundamental physical constants (SI units) ***

 *** Literature: B. J. Mohr and B. N. Taylor,
 ***             CODATA recommended values of the fundamental physical
 ***             constants: 2006, Web Version 5.1
 ***             http://physics.nist.gov/constants

 Speed of light in vacuum [m/s]                             2.99792458000000E+08
 Magnetic constant or permeability of vacuum [N/A**2]       1.25663706143592E-06
 Electric constant or permittivity of vacuum [F/m]          8.85418781762039E-12
 Planck constant (h) [J*s]                                  6.62606896000000E-34
 Planck constant (h-bar) [J*s]                              1.05457162825177E-34
 Elementary charge [C]                                      1.60217648700000E-19
 Electron mass [kg]                                         9.10938215000000E-31
 Electron g factor [ ]                                     -2.00231930436220E+00
 Proton mass [kg]                                           1.67262163700000E-27
 Fine-structure constant                                    7.29735253760000E-03
 Rydberg constant [1/m]                                     1.09737315685270E+07
 Avogadro constant [1/mol]                                  6.02214179000000E+23
 Boltzmann constant [J/K]                                   1.38065040000000E-23
 Atomic mass unit [kg]                                      1.66053878200000E-27
 Bohr radius [m]                                            5.29177208590000E-11

 *** Conversion factors ***

 [u] -> [a.u.]                                              1.82288848426455E+03
 [Angstrom] -> [Bohr] = [a.u.]                              1.88972613288564E+00
 [a.u.] = [Bohr] -> [Angstrom]                              5.29177208590000E-01
 [a.u.] -> [s]                                              2.41888432650478E-17
 [a.u.] -> [fs]                                             2.41888432650478E-02
 [a.u.] -> [J]                                              4.35974393937059E-18
 [a.u.] -> [N]                                              8.23872205491840E-08
 [a.u.] -> [K]                                              3.15774647902944E+05
 [a.u.] -> [kJ/mol]                                         2.62549961709828E+03
 [a.u.] -> [kcal/mol]                                       6.27509468713739E+02
 [a.u.] -> [Pa]                                             2.94210107994716E+13
 [a.u.] -> [bar]                                            2.94210107994716E+08
 [a.u.] -> [atm]                                            2.90362800883016E+08
 [a.u.] -> [eV]                                             2.72113838565563E+01
 [a.u.] -> [Hz]                                             6.57968392072181E+15
 [a.u.] -> [1/cm] (wave numbers)                            2.19474631370540E+05
 [a.u./Bohr**2] -> [1/cm]                                   5.14048714338585E+03
 

 CELL_TOP| Volume [angstrom^3]:                                       218.133506
 CELL_TOP| Vector a [angstrom     6.020     0.000     0.000   |a| =     6.019690
 CELL_TOP| Vector b [angstrom     0.000     6.020     0.000   |b| =     6.019690
 CELL_TOP| Vector c [angstrom     0.000     0.000     6.020   |c| =     6.019690
 CELL_TOP| Angle (b,c), alpha [degree]:                                90.000000
 CELL_TOP| Angle (a,c), beta  [degree]:                                90.000000
 CELL_TOP| Angle (a,b), gamma [degree]:                                90.000000
 CELL_TOP| Numerically orthorhombic:                                         YES
 CELL_TOP| Periodicity                                                       XYZ

 CELL_CIF| Volume [angstrom^3]:                                       218.133506
 CELL_CIF| Vector a [angstrom     6.020     0.000     0.000   |a| =     6.019690
 CELL_CIF| Vector b [angstrom     0.000     6.020     0.000   |b| =     6.019690
 CELL_CIF| Vector c [angstrom     0.000     0.000     6.020   |c| =     6.019690
 CELL_CIF| Angle (b,c), alpha [degree]:                                90.000000
 CELL_CIF| Angle (a,c), beta  [degree]:                                90.000000
 CELL_CIF| Angle (a,b), gamma [degree]:                                90.000000
 CELL_CIF| Numerically orthorhombic:                                         YES
 CELL_CIF| Periodicity                                                       XYZ

 GENERATE|  Preliminary Number of Bonds generated:                             0
 GENERATE|  Achieved consistency in connectivity generation.

 CELL| Volume [angstrom^3]:                                           218.133506
 CELL| Vector a [angstrom]:       6.020     0.000     0.000   |a| =     6.019690
 CELL| Vector b [angstrom]:       0.000     6.020     0.000   |b| =     6.019690
 CELL| Vector c [angstrom]:       0.000     0.000     6.020   |c| =     6.019690
 CELL| Angle (b,c), alpha [degree]:                                    90.000000
 CELL| Angle (a,c), beta  [degree]:                                    90.000000
 CELL| Angle (a,b), gamma [degree]:                                    90.000000
 CELL| Numerically orthorhombic:                                             YES
 CELL| Periodicity                                                           XYZ

 CELL_REF| Volume [angstrom^3]:                                       218.133506
 CELL_REF| Vector a [angstrom     6.020     0.000     0.000   |a| =     6.019690
 CELL_REF| Vector b [angstrom     0.000     6.020     0.000   |b| =     6.019690
 CELL_REF| Vector c [angstrom     0.000     0.000     6.020   |c| =     6.019690
 CELL_REF| Angle (b,c), alpha [degree]:                                90.000000
 CELL_REF| Angle (a,c), beta  [degree]:                                90.000000
 CELL_REF| Angle (a,b), gamma [degree]:                                90.000000
 CELL_REF| Numerically orthorhombic:                                         YES
 CELL_REF| Periodicity                                                       XYZ

 *** WARNING in cryssym.F:180 :: Symmetry library SPGLIB not available ***


 *******************************************************************************
                                    Kpoints
 *******************************************************************************
 BRILLOUIN| K-point scheme                                        Monkhorst-Pack
 BRILLOUIN| K-Point grid                                             8    8    8
 BRILLOUIN| Accuracy in Symmetry determination                      0.100000E-05
 BRILLOUIN| K-Point point group symmetrization                               OFF
 BRILLOUIN| Wavefunction type                                            COMPLEX
 BRILLOUIN| List of Kpoints [2 Pi/Bohr]                                      256
 BRILLOUIN| Number           Weight            X              Y              Z
 BRILLOUIN|     1           0.00391       -0.43750       -0.43750       -0.43750
 BRILLOUIN|     2           0.00391       -0.43750       -0.43750       -0.31250
 BRILLOUIN|     3           0.00391       -0.43750       -0.43750       -0.18750
 BRILLOUIN|     4           0.00391       -0.43750       -0.43750       -0.06250
 BRILLOUIN|     5           0.00391       -0.43750       -0.43750        0.06250
 BRILLOUIN|     6           0.00391       -0.43750       -0.43750        0.18750
 BRILLOUIN|     7           0.00391       -0.43750       -0.43750        0.31250
 BRILLOUIN|     8           0.00391       -0.43750       -0.43750        0.43750
 BRILLOUIN|     9           0.00391       -0.43750       -0.31250       -0.43750
 BRILLOUIN|    10           0.00391       -0.43750       -0.31250       -0.31250
 BRILLOUIN|    11           0.00391       -0.43750       -0.31250       -0.18750
 BRILLOUIN|    12           0.00391       -0.43750       -0.31250       -0.06250
 BRILLOUIN|    13           0.00391       -0.43750       -0.31250        0.06250
 BRILLOUIN|    14           0.00391       -0.43750       -0.31250        0.18750
 BRILLOUIN|    15           0.00391       -0.43750       -0.31250        0.31250
 BRILLOUIN|    16           0.00391       -0.43750       -0.31250        0.43750
 BRILLOUIN|    17           0.00391       -0.43750       -0.18750       -0.43750
 BRILLOUIN|    18           0.00391       -0.43750       -0.18750       -0.31250
 BRILLOUIN|    19           0.00391       -0.43750       -0.18750       -0.18750
 BRILLOUIN|    20           0.00391       -0.43750       -0.18750       -0.06250
 BRILLOUIN|    21           0.00391       -0.43750       -0.18750        0.06250
 BRILLOUIN|    22           0.00391       -0.43750       -0.18750        0.18750
 BRILLOUIN|    23           0.00391       -0.43750       -0.18750        0.31250
 BRILLOUIN|    24           0.00391       -0.43750       -0.18750        0.43750
 BRILLOUIN|    25           0.00391       -0.43750       -0.06250       -0.43750
 BRILLOUIN|    26           0.00391       -0.43750       -0.06250       -0.31250
 BRILLOUIN|    27           0.00391       -0.43750       -0.06250       -0.18750
 BRILLOUIN|    28           0.00391       -0.43750       -0.06250       -0.06250
 BRILLOUIN|    29           0.00391       -0.43750       -0.06250        0.06250
 BRILLOUIN|    30           0.00391       -0.43750       -0.06250        0.18750
 BRILLOUIN|    31           0.00391       -0.43750       -0.06250        0.31250
 BRILLOUIN|    32           0.00391       -0.43750       -0.06250        0.43750
 BRILLOUIN|    33           0.00391       -0.43750        0.06250       -0.43750
 BRILLOUIN|    34           0.00391       -0.43750        0.06250       -0.31250
 BRILLOUIN|    35           0.00391       -0.43750        0.06250       -0.18750
 BRILLOUIN|    36           0.00391       -0.43750        0.06250       -0.06250
 BRILLOUIN|    37           0.00391       -0.43750        0.06250        0.06250
 BRILLOUIN|    38           0.00391       -0.43750        0.06250        0.18750
 BRILLOUIN|    39           0.00391       -0.43750        0.06250        0.31250
 BRILLOUIN|    40           0.00391       -0.43750        0.06250        0.43750
 BRILLOUIN|    41           0.00391       -0.43750        0.18750       -0.43750
 BRILLOUIN|    42           0.00391       -0.43750        0.18750       -0.31250
 BRILLOUIN|    43           0.00391       -0.43750        0.18750       -0.18750
 BRILLOUIN|    44           0.00391       -0.43750        0.18750       -0.06250
 BRILLOUIN|    45           0.00391       -0.43750        0.18750        0.06250
 BRILLOUIN|    46           0.00391       -0.43750        0.18750        0.18750
 BRILLOUIN|    47           0.00391       -0.43750        0.18750        0.31250
 BRILLOUIN|    48           0.00391       -0.43750        0.18750        0.43750
 BRILLOUIN|    49           0.00391       -0.43750        0.31250       -0.43750
 BRILLOUIN|    50           0.00391       -0.43750        0.31250       -0.31250
 BRILLOUIN|    51           0.00391       -0.43750        0.31250       -0.18750
 BRILLOUIN|    52           0.00391       -0.43750        0.31250       -0.06250
 BRILLOUIN|    53           0.00391       -0.43750        0.31250        0.06250
 BRILLOUIN|    54           0.00391       -0.43750        0.31250        0.18750
 BRILLOUIN|    55           0.00391       -0.43750        0.31250        0.31250
 BRILLOUIN|    56           0.00391       -0.43750        0.31250        0.43750
 BRILLOUIN|    57           0.00391       -0.43750        0.43750       -0.43750
 BRILLOUIN|    58           0.00391       -0.43750        0.43750       -0.31250
 BRILLOUIN|    59           0.00391       -0.43750        0.43750       -0.18750
 BRILLOUIN|    60           0.00391       -0.43750        0.43750       -0.06250
 BRILLOUIN|    61           0.00391       -0.43750        0.43750        0.06250
 BRILLOUIN|    62           0.00391       -0.43750        0.43750        0.18750
 BRILLOUIN|    63           0.00391       -0.43750        0.43750        0.31250
 BRILLOUIN|    64           0.00391       -0.43750        0.43750        0.43750
 BRILLOUIN|    65           0.00391       -0.31250       -0.43750       -0.43750
 BRILLOUIN|    66           0.00391       -0.31250       -0.43750       -0.31250
 BRILLOUIN|    67           0.00391       -0.31250       -0.43750       -0.18750
 BRILLOUIN|    68           0.00391       -0.31250       -0.43750       -0.06250
 BRILLOUIN|    69           0.00391       -0.31250       -0.43750        0.06250
 BRILLOUIN|    70           0.00391       -0.31250       -0.43750        0.18750
 BRILLOUIN|    71           0.00391       -0.31250       -0.43750        0.31250
 BRILLOUIN|    72           0.00391       -0.31250       -0.43750        0.43750
 BRILLOUIN|    73           0.00391       -0.31250       -0.31250       -0.43750
 BRILLOUIN|    74           0.00391       -0.31250       -0.31250       -0.31250
 BRILLOUIN|    75           0.00391       -0.31250       -0.31250       -0.18750
 BRILLOUIN|    76           0.00391       -0.31250       -0.31250       -0.06250
 BRILLOUIN|    77           0.00391       -0.31250       -0.31250        0.06250
 BRILLOUIN|    78           0.00391       -0.31250       -0.31250        0.18750
 BRILLOUIN|    79           0.00391       -0.31250       -0.31250        0.31250
 BRILLOUIN|    80           0.00391       -0.31250       -0.31250        0.43750
 BRILLOUIN|    81           0.00391       -0.31250       -0.18750       -0.43750
 BRILLOUIN|    82           0.00391       -0.31250       -0.18750       -0.31250
 BRILLOUIN|    83           0.00391       -0.31250       -0.18750       -0.18750
 BRILLOUIN|    84           0.00391       -0.31250       -0.18750       -0.06250
 BRILLOUIN|    85           0.00391       -0.31250       -0.18750        0.06250
 BRILLOUIN|    86           0.00391       -0.31250       -0.18750        0.18750
 BRILLOUIN|    87           0.00391       -0.31250       -0.18750        0.31250
 BRILLOUIN|    88           0.00391       -0.31250       -0.18750        0.43750
 BRILLOUIN|    89           0.00391       -0.31250       -0.06250       -0.43750
 BRILLOUIN|    90           0.00391       -0.31250       -0.06250       -0.31250
 BRILLOUIN|    91           0.00391       -0.31250       -0.06250       -0.18750
 BRILLOUIN|    92           0.00391       -0.31250       -0.06250       -0.06250
 BRILLOUIN|    93           0.00391       -0.31250       -0.06250        0.06250
 BRILLOUIN|    94           0.00391       -0.31250       -0.06250        0.18750
 BRILLOUIN|    95           0.00391       -0.31250       -0.06250        0.31250
 BRILLOUIN|    96           0.00391       -0.31250       -0.06250        0.43750
 BRILLOUIN|    97           0.00391       -0.31250        0.06250       -0.43750
 BRILLOUIN|    98           0.00391       -0.31250        0.06250       -0.31250
 BRILLOUIN|    99           0.00391       -0.31250        0.06250       -0.18750
 BRILLOUIN|   100           0.00391       -0.31250        0.06250       -0.06250
 BRILLOUIN|   101           0.00391       -0.31250        0.06250        0.06250
 BRILLOUIN|   102           0.00391       -0.31250        0.06250        0.18750
 BRILLOUIN|   103           0.00391       -0.31250        0.06250        0.31250
 BRILLOUIN|   104           0.00391       -0.31250        0.06250        0.43750
 BRILLOUIN|   105           0.00391       -0.31250        0.18750       -0.43750
 BRILLOUIN|   106           0.00391       -0.31250        0.18750       -0.31250
 BRILLOUIN|   107           0.00391       -0.31250        0.18750       -0.18750
 BRILLOUIN|   108           0.00391       -0.31250        0.18750       -0.06250
 BRILLOUIN|   109           0.00391       -0.31250        0.18750        0.06250
 BRILLOUIN|   110           0.00391       -0.31250        0.18750        0.18750
 BRILLOUIN|   111           0.00391       -0.31250        0.18750        0.31250
 BRILLOUIN|   112           0.00391       -0.31250        0.18750        0.43750
 BRILLOUIN|   113           0.00391       -0.31250        0.31250       -0.43750
 BRILLOUIN|   114           0.00391       -0.31250        0.31250       -0.31250
 BRILLOUIN|   115           0.00391       -0.31250        0.31250       -0.18750
 BRILLOUIN|   116           0.00391       -0.31250        0.31250       -0.06250
 BRILLOUIN|   117           0.00391       -0.31250        0.31250        0.06250
 BRILLOUIN|   118           0.00391       -0.31250        0.31250        0.18750
 BRILLOUIN|   119           0.00391       -0.31250        0.31250        0.31250
 BRILLOUIN|   120           0.00391       -0.31250        0.31250        0.43750
 BRILLOUIN|   121           0.00391       -0.31250        0.43750       -0.43750
 BRILLOUIN|   122           0.00391       -0.31250        0.43750       -0.31250
 BRILLOUIN|   123           0.00391       -0.31250        0.43750       -0.18750
 BRILLOUIN|   124           0.00391       -0.31250        0.43750       -0.06250
 BRILLOUIN|   125           0.00391       -0.31250        0.43750        0.06250
 BRILLOUIN|   126           0.00391       -0.31250        0.43750        0.18750
 BRILLOUIN|   127           0.00391       -0.31250        0.43750        0.31250
 BRILLOUIN|   128           0.00391       -0.31250        0.43750        0.43750
 BRILLOUIN|   129           0.00391       -0.18750       -0.43750       -0.43750
 BRILLOUIN|   130           0.00391       -0.18750       -0.43750       -0.31250
 BRILLOUIN|   131           0.00391       -0.18750       -0.43750       -0.18750
 BRILLOUIN|   132           0.00391       -0.18750       -0.43750       -0.06250
 BRILLOUIN|   133           0.00391       -0.18750       -0.43750        0.06250
 BRILLOUIN|   134           0.00391       -0.18750       -0.43750        0.18750
 BRILLOUIN|   135           0.00391       -0.18750       -0.43750        0.31250
 BRILLOUIN|   136           0.00391       -0.18750       -0.43750        0.43750
 BRILLOUIN|   137           0.00391       -0.18750       -0.31250       -0.43750
 BRILLOUIN|   138           0.00391       -0.18750       -0.31250       -0.31250
 BRILLOUIN|   139           0.00391       -0.18750       -0.31250       -0.18750
 BRILLOUIN|   140           0.00391       -0.18750       -0.31250       -0.06250
 BRILLOUIN|   141           0.00391       -0.18750       -0.31250        0.06250
 BRILLOUIN|   142           0.00391       -0.18750       -0.31250        0.18750
 BRILLOUIN|   143           0.00391       -0.18750       -0.31250        0.31250
 BRILLOUIN|   144           0.00391       -0.18750       -0.31250        0.43750
 BRILLOUIN|   145           0.00391       -0.18750       -0.18750       -0.43750
 BRILLOUIN|   146           0.00391       -0.18750       -0.18750       -0.31250
 BRILLOUIN|   147           0.00391       -0.18750       -0.18750       -0.18750
 BRILLOUIN|   148           0.00391       -0.18750       -0.18750       -0.06250
 BRILLOUIN|   149           0.00391       -0.18750       -0.18750        0.06250
 BRILLOUIN|   150           0.00391       -0.18750       -0.18750        0.18750
 BRILLOUIN|   151           0.00391       -0.18750       -0.18750        0.31250
 BRILLOUIN|   152           0.00391       -0.18750       -0.18750        0.43750
 BRILLOUIN|   153           0.00391       -0.18750       -0.06250       -0.43750
 BRILLOUIN|   154           0.00391       -0.18750       -0.06250       -0.31250
 BRILLOUIN|   155           0.00391       -0.18750       -0.06250       -0.18750
 BRILLOUIN|   156           0.00391       -0.18750       -0.06250       -0.06250
 BRILLOUIN|   157           0.00391       -0.18750       -0.06250        0.06250
 BRILLOUIN|   158           0.00391       -0.18750       -0.06250        0.18750
 BRILLOUIN|   159           0.00391       -0.18750       -0.06250        0.31250
 BRILLOUIN|   160           0.00391       -0.18750       -0.06250        0.43750
 BRILLOUIN|   161           0.00391       -0.18750        0.06250       -0.43750
 BRILLOUIN|   162           0.00391       -0.18750        0.06250       -0.31250
 BRILLOUIN|   163           0.00391       -0.18750        0.06250       -0.18750
 BRILLOUIN|   164           0.00391       -0.18750        0.06250       -0.06250
 BRILLOUIN|   165           0.00391       -0.18750        0.06250        0.06250
 BRILLOUIN|   166           0.00391       -0.18750        0.06250        0.18750
 BRILLOUIN|   167           0.00391       -0.18750        0.06250        0.31250
 BRILLOUIN|   168           0.00391       -0.18750        0.06250        0.43750
 BRILLOUIN|   169           0.00391       -0.18750        0.18750       -0.43750
 BRILLOUIN|   170           0.00391       -0.18750        0.18750       -0.31250
 BRILLOUIN|   171           0.00391       -0.18750        0.18750       -0.18750
 BRILLOUIN|   172           0.00391       -0.18750        0.18750       -0.06250
 BRILLOUIN|   173           0.00391       -0.18750        0.18750        0.06250
 BRILLOUIN|   174           0.00391       -0.18750        0.18750        0.18750
 BRILLOUIN|   175           0.00391       -0.18750        0.18750        0.31250
 BRILLOUIN|   176           0.00391       -0.18750        0.18750        0.43750
 BRILLOUIN|   177           0.00391       -0.18750        0.31250       -0.43750
 BRILLOUIN|   178           0.00391       -0.18750        0.31250       -0.31250
 BRILLOUIN|   179           0.00391       -0.18750        0.31250       -0.18750
 BRILLOUIN|   180           0.00391       -0.18750        0.31250       -0.06250
 BRILLOUIN|   181           0.00391       -0.18750        0.31250        0.06250
 BRILLOUIN|   182           0.00391       -0.18750        0.31250        0.18750
 BRILLOUIN|   183           0.00391       -0.18750        0.31250        0.31250
 BRILLOUIN|   184           0.00391       -0.18750        0.31250        0.43750
 BRILLOUIN|   185           0.00391       -0.18750        0.43750       -0.43750
 BRILLOUIN|   186           0.00391       -0.18750        0.43750       -0.31250
 BRILLOUIN|   187           0.00391       -0.18750        0.43750       -0.18750
 BRILLOUIN|   188           0.00391       -0.18750        0.43750       -0.06250
 BRILLOUIN|   189           0.00391       -0.18750        0.43750        0.06250
 BRILLOUIN|   190           0.00391       -0.18750        0.43750        0.18750
 BRILLOUIN|   191           0.00391       -0.18750        0.43750        0.31250
 BRILLOUIN|   192           0.00391       -0.18750        0.43750        0.43750
 BRILLOUIN|   193           0.00391       -0.06250       -0.43750       -0.43750
 BRILLOUIN|   194           0.00391       -0.06250       -0.43750       -0.31250
 BRILLOUIN|   195           0.00391       -0.06250       -0.43750       -0.18750
 BRILLOUIN|   196           0.00391       -0.06250       -0.43750       -0.06250
 BRILLOUIN|   197           0.00391       -0.06250       -0.43750        0.06250
 BRILLOUIN|   198           0.00391       -0.06250       -0.43750        0.18750
 BRILLOUIN|   199           0.00391       -0.06250       -0.43750        0.31250
 BRILLOUIN|   200           0.00391       -0.06250       -0.43750        0.43750
 BRILLOUIN|   201           0.00391       -0.06250       -0.31250       -0.43750
 BRILLOUIN|   202           0.00391       -0.06250       -0.31250       -0.31250
 BRILLOUIN|   203           0.00391       -0.06250       -0.31250       -0.18750
 BRILLOUIN|   204           0.00391       -0.06250       -0.31250       -0.06250
 BRILLOUIN|   205           0.00391       -0.06250       -0.31250        0.06250
 BRILLOUIN|   206           0.00391       -0.06250       -0.31250        0.18750
 BRILLOUIN|   207           0.00391       -0.06250       -0.31250        0.31250
 BRILLOUIN|   208           0.00391       -0.06250       -0.31250        0.43750
 BRILLOUIN|   209           0.00391       -0.06250       -0.18750       -0.43750
 BRILLOUIN|   210           0.00391       -0.06250       -0.18750       -0.31250
 BRILLOUIN|   211           0.00391       -0.06250       -0.18750       -0.18750
 BRILLOUIN|   212           0.00391       -0.06250       -0.18750       -0.06250
 BRILLOUIN|   213           0.00391       -0.06250       -0.18750        0.06250
 BRILLOUIN|   214           0.00391       -0.06250       -0.18750        0.18750
 BRILLOUIN|   215           0.00391       -0.06250       -0.18750        0.31250
 BRILLOUIN|   216           0.00391       -0.06250       -0.18750        0.43750
 BRILLOUIN|   217           0.00391       -0.06250       -0.06250       -0.43750
 BRILLOUIN|   218           0.00391       -0.06250       -0.06250       -0.31250
 BRILLOUIN|   219           0.00391       -0.06250       -0.06250       -0.18750
 BRILLOUIN|   220           0.00391       -0.06250       -0.06250       -0.06250
 BRILLOUIN|   221           0.00391       -0.06250       -0.06250        0.06250
 BRILLOUIN|   222           0.00391       -0.06250       -0.06250        0.18750
 BRILLOUIN|   223           0.00391       -0.06250       -0.06250        0.31250
 BRILLOUIN|   224           0.00391       -0.06250       -0.06250        0.43750
 BRILLOUIN|   225           0.00391       -0.06250        0.06250       -0.43750
 BRILLOUIN|   226           0.00391       -0.06250        0.06250       -0.31250
 BRILLOUIN|   227           0.00391       -0.06250        0.06250       -0.18750
 BRILLOUIN|   228           0.00391       -0.06250        0.06250       -0.06250
 BRILLOUIN|   229           0.00391       -0.06250        0.06250        0.06250
 BRILLOUIN|   230           0.00391       -0.06250        0.06250        0.18750
 BRILLOUIN|   231           0.00391       -0.06250        0.06250        0.31250
 BRILLOUIN|   232           0.00391       -0.06250        0.06250        0.43750
 BRILLOUIN|   233           0.00391       -0.06250        0.18750       -0.43750
 BRILLOUIN|   234           0.00391       -0.06250        0.18750       -0.31250
 BRILLOUIN|   235           0.00391       -0.06250        0.18750       -0.18750
 BRILLOUIN|   236           0.00391       -0.06250        0.18750       -0.06250
 BRILLOUIN|   237           0.00391       -0.06250        0.18750        0.06250
 BRILLOUIN|   238           0.00391       -0.06250        0.18750        0.18750
 BRILLOUIN|   239           0.00391       -0.06250        0.18750        0.31250
 BRILLOUIN|   240           0.00391       -0.06250        0.18750        0.43750
 BRILLOUIN|   241           0.00391       -0.06250        0.31250       -0.43750
 BRILLOUIN|   242           0.00391       -0.06250        0.31250       -0.31250
 BRILLOUIN|   243           0.00391       -0.06250        0.31250       -0.18750
 BRILLOUIN|   244           0.00391       -0.06250        0.31250       -0.06250
 BRILLOUIN|   245           0.00391       -0.06250        0.31250        0.06250
 BRILLOUIN|   246           0.00391       -0.06250        0.31250        0.18750
 BRILLOUIN|   247           0.00391       -0.06250        0.31250        0.31250
 BRILLOUIN|   248           0.00391       -0.06250        0.31250        0.43750
 BRILLOUIN|   249           0.00391       -0.06250        0.43750       -0.43750
 BRILLOUIN|   250           0.00391       -0.06250        0.43750       -0.31250
 BRILLOUIN|   251           0.00391       -0.06250        0.43750       -0.18750
 BRILLOUIN|   252           0.00391       -0.06250        0.43750       -0.06250
 BRILLOUIN|   253           0.00391       -0.06250        0.43750        0.06250
 BRILLOUIN|   254           0.00391       -0.06250        0.43750        0.18750
 BRILLOUIN|   255           0.00391       -0.06250        0.43750        0.31250
 BRILLOUIN|   256           0.00391       -0.06250        0.43750        0.43750
 *******************************************************************************

 *******************************************************************************
 *******************************************************************************
 **                                                                           **
 **     #####                         ##              ##                      **
 **    ##   ##            ##          ##              ##                      **
 **   ##     ##                       ##            ######                    **
 **   ##     ##  ##   ##  ##   #####  ##  ##   ####   ##    #####    #####    **
 **   ##     ##  ##   ##  ##  ##      ## ##   ##      ##   ##   ##  ##   ##   **
 **   ##  ## ##  ##   ##  ##  ##      ####     ###    ##   ######   ######    **
 **    ##  ###   ##   ##  ##  ##      ## ##      ##   ##   ##       ##        **
 **     #######   #####   ##   #####  ##  ##  ####    ##    #####   ##        **
 **           ##                                                    ##        **
 **                                                                           **
 **                                                ... make the atoms dance   **
 **                                                                           **
 **            Copyright (C) by CP2K developers group (2000-2025)             **
 **                      J. Chem. Phys. 152, 194103 (2020)                    **
 **                                                                           **
 *******************************************************************************

 DFT| Spin restricted Kohn-Sham (RKS) calculation                            RKS
 DFT| Multiplicity                                                             1
 DFT| Number of spin states                                                    1
 DFT| Charge                                                                   0
 DFT| Self-interaction correction (SIC)                                       NO
 DFT| Cutoffs: density                                              1.000000E-10
 DFT|          gradient                                             1.000000E-10
 DFT|          tau                                                  1.000000E-10
 DFT|          cutoff_smoothing_range                               0.000000E+00
 DFT| XC density smoothing                                                  NONE
 DFT| XC derivatives                                                          PW

 FUNCTIONAL| PBE:
 FUNCTIONAL| J.P.Perdew, K.Burke, M.Ernzerhof, Phys. Rev. Letter, vol. 77, n 18,
 FUNCTIONAL|  pp. 3865-3868, (1996) {spin unpolarized}                          


 QS| Method:                                                                 GPW
 QS| Density plane wave grid type                        NON-SPHERICAL FULLSPACE
 QS| Number of grid levels:                                                    4
 QS| Density cutoff [a.u.]:                                                500.0
 QS| Multi grid cutoff [a.u.]: 1) grid level                               500.0
 QS|                           2) grid level                               166.7
 QS|                           3) grid level                                55.6
 QS|                           4) grid level                                18.5
 QS| Grid level progression factor:                                          3.0
 QS| Relative density cutoff [a.u.]:                                        50.0
 QS| Interaction thresholds: eps_pgf_orb:                                1.0E-16
 QS|                         eps_filter_matrix:                          0.0E+00
 QS|                         eps_core_charge:                            1.0E-18
 QS|                         eps_rho_gspace:                             1.0E-16
 QS|                         eps_rho_rspace:                             1.0E-16
 QS|                         eps_gvg_rspace:                             1.0E-08
 QS|                         eps_ppl:                                    1.0E-02
 QS|                         eps_ppnl:                                   1.0E-10


 ATOMIC KIND INFORMATION

  1. Atomic kind: Sr                                    Number of atoms:       4

     Orbital Basis Set                                aug-DZVP-MOLOPT-GTH-tier-1

       Number of orbital shell sets:                                           1
       Number of orbital shells:                                               9
       Number of primitive Cartesian functions:                                8
       Number of Cartesian basis functions:                                   25
       Number of spherical basis functions:                                   23
       Norm type:                                                              2

       Normalised Cartesian orbitals:

                        Set   Shell   Orbital            Exponent    Coefficient

                          1       1    2s                0.030000       0.000000
                                                         0.050841       0.000549
                                                         0.103728       0.000000
                                                         0.211628       0.056304
                                                         0.532450       0.405577
                                                         1.283100       0.145520
                                                         2.536777      -0.825808
                                                         7.290112       0.221324

                          1       2    3s                0.030000       0.000000
                                                         0.050841       0.087968
                                                         0.103728       0.000000
                                                         0.211628      -0.022965
                                                         0.532450      -0.267898
                                                         1.283100      -0.049379
                                                         2.536777       0.317914
                                                         7.290112      -0.071450

                          1       3    4s                0.030000       0.000000
                                                         0.050841      -0.089363
                                                         0.103728       0.000000
                                                         0.211628       0.112964
                                                         0.532450      -0.013611
                                                         1.283100      -0.087771
                                                         2.536777      -0.439963
                                                         7.290112      -0.195599

                          1       4    5s                0.030000       0.098326
                                                         0.050841      -0.082773
                                                         0.103728       0.028715
                                                         0.211628      -0.055202
                                                         0.532450       0.040391
                                                         1.283100       0.000000
                                                         2.536777       0.000000
                                                         7.290112       0.000000

                          1       5    3px               0.030000       0.000000
                                                         0.050841       0.000047
                                                         0.103728       0.000000
                                                         0.211628       0.061570
                                                         0.532450       0.404860
                                                         1.283100       0.569764
                                                         2.536777      -1.004792
                                                         7.290112       0.684618
                          1       5    3py               0.030000       0.000000
                                                         0.050841       0.000047
                                                         0.103728       0.000000
                                                         0.211628       0.061570
                                                         0.532450       0.404860
                                                         1.283100       0.569764
                                                         2.536777      -1.004792
                                                         7.290112       0.684618
                          1       5    3pz               0.030000       0.000000
                                                         0.050841       0.000047
                                                         0.103728       0.000000
                                                         0.211628       0.061570
                                                         0.532450       0.404860
                                                         1.283100       0.569764
                                                         2.536777      -1.004792
                                                         7.290112       0.684618

                          1       6    4px               0.030000       0.000000
                                                         0.050841      -0.032800
                                                         0.103728       0.000000
                                                         0.211628       0.020525
                                                         0.532450       0.329279
                                                         1.283100       0.375292
                                                         2.536777      -0.665884
                                                         7.290112       0.451602
                          1       6    4py               0.030000       0.000000
                                                         0.050841      -0.032800
                                                         0.103728       0.000000
                                                         0.211628       0.020525
                                                         0.532450       0.329279
                                                         1.283100       0.375292
                                                         2.536777      -0.665884
                                                         7.290112       0.451602
                          1       6    4pz               0.030000       0.000000
                                                         0.050841      -0.032800
                                                         0.103728       0.000000
                                                         0.211628       0.020525
                                                         0.532450       0.329279
                                                         1.283100       0.375292
                                                         2.536777      -0.665884
                                                         7.290112       0.451602

                          1       7    5px               0.030000       0.016062
                                                         0.050841      -0.001050
                                                         0.103728       0.018564
                                                         0.211628      -0.010197
                                                         0.532450      -0.018969
                                                         1.283100       0.000000
                                                         2.536777       0.000000
                                                         7.290112       0.000000
                          1       7    5py               0.030000       0.016062
                                                         0.050841      -0.001050
                                                         0.103728       0.018564
                                                         0.211628      -0.010197
                                                         0.532450      -0.018969
                                                         1.283100       0.000000
                                                         2.536777       0.000000
                                                         7.290112       0.000000
                          1       7    5pz               0.030000       0.016062
                                                         0.050841      -0.001050
                                                         0.103728       0.018564
                                                         0.211628      -0.010197
                                                         0.532450      -0.018969
                                                         1.283100       0.000000
                                                         2.536777       0.000000
                                                         7.290112       0.000000

                          1       8    4dx2              0.030000       0.000000
                                                         0.050841       0.002656
                                                         0.103728       0.000000
                                                         0.211628       0.056922
                                                         0.532450       0.187018
                                                         1.283100       0.319711
                                                         2.536777      -0.159751
                                                         7.290112      -0.009122
                          1       8    4dxy              0.030000       0.000000
                                                         0.050841       0.004601
                                                         0.103728       0.000000
                                                         0.211628       0.098592
                                                         0.532450       0.323924
                                                         1.283100       0.553756
                                                         2.536777      -0.276697
                                                         7.290112      -0.015799
                          1       8    4dxz              0.030000       0.000000
                                                         0.050841       0.004601
                                                         0.103728       0.000000
                                                         0.211628       0.098592
                                                         0.532450       0.323924
                                                         1.283100       0.553756
                                                         2.536777      -0.276697
                                                         7.290112      -0.015799
                          1       8    4dy2              0.030000       0.000000
                                                         0.050841       0.002656
                                                         0.103728       0.000000
                                                         0.211628       0.056922
                                                         0.532450       0.187018
                                                         1.283100       0.319711
                                                         2.536777      -0.159751
                                                         7.290112      -0.009122
                          1       8    4dyz              0.030000       0.000000
                                                         0.050841       0.004601
                                                         0.103728       0.000000
                                                         0.211628       0.098592
                                                         0.532450       0.323924
                                                         1.283100       0.553756
                                                         2.536777      -0.276697
                                                         7.290112      -0.015799
                          1       8    4dz2              0.030000       0.000000
                                                         0.050841       0.002656
                                                         0.103728       0.000000
                                                         0.211628       0.056922
                                                         0.532450       0.187018
                                                         1.283100       0.319711
                                                         2.536777      -0.159751
                                                         7.290112      -0.009122

                          1       9    5dx2              0.030000       0.003210
                                                         0.050841      -0.001352
                                                         0.103728       0.011051
                                                         0.211628       0.003675
                                                         0.532450      -0.004749
                                                         1.283100       0.000000
                                                         2.536777       0.000000
                                                         7.290112       0.000000
                          1       9    5dxy              0.030000       0.005559
                                                         0.050841      -0.002341
                                                         0.103728       0.019141
                                                         0.211628       0.006365
                                                         0.532450      -0.008225
                                                         1.283100       0.000000
                                                         2.536777       0.000000
                                                         7.290112       0.000000
                          1       9    5dxz              0.030000       0.005559
                                                         0.050841      -0.002341
                                                         0.103728       0.019141
                                                         0.211628       0.006365
                                                         0.532450      -0.008225
                                                         1.283100       0.000000
                                                         2.536777       0.000000
                                                         7.290112       0.000000
                          1       9    5dy2              0.030000       0.003210
                                                         0.050841      -0.001352
                                                         0.103728       0.011051
                                                         0.211628       0.003675
                                                         0.532450      -0.004749
                                                         1.283100       0.000000
                                                         2.536777       0.000000
                                                         7.290112       0.000000
                          1       9    5dyz              0.030000       0.005559
                                                         0.050841      -0.002341
                                                         0.103728       0.019141
                                                         0.211628       0.006365
                                                         0.532450      -0.008225
                                                         1.283100       0.000000
                                                         2.536777       0.000000
                                                         7.290112       0.000000
                          1       9    5dz2              0.030000       0.003210
                                                         0.050841      -0.001352
                                                         0.103728       0.011051
                                                         0.211628       0.003675
                                                         0.532450      -0.004749
                                                         1.283100       0.000000
                                                         2.536777       0.000000
                                                         7.290112       0.000000

       Atomic covalent radius [Angstrom]:                                  1.910

       Atomic van der Waals radius [Angstrom]:                             2.490

     GTH Potential information for                                       GTH-PBE

       Description:                       Goedecker-Teter-Hutter pseudopotential
                                           Goedecker et al., PRB 54, 1703 (1996)
                                          Hartwigsen et al., PRB 58, 3641 (1998)
                                                      Krack, TCA 114, 145 (2005)

       Gaussian exponent of the core charge distribution:               2.170139
       Electronic configuration (s p d ...):                               4   6

       Parameters of the local part of the GTH pseudopotential:

                          rloc        C1          C2          C3          C4
                        0.480000    6.810950   -1.196110

       Parameters of the non-local part of the GTH (SOC) pseudopotential:

                   l      r(l)      h(i,j,l)
                                    k(i,j,l)
                   0    0.275886   21.289719   -7.899034
                                   -7.899034   10.197609
                   1    0.281741   11.709051  -10.965777
                                  -10.965777   12.974882
                                    1.346295   -2.371693
                                   -2.371693    2.806225
                   2    0.521089    0.360539
                                    0.007792


 MOLECULE KIND INFORMATION


 All atoms are their own molecule, skipping detailed information


 TOTAL NUMBERS AND MAXIMUM NUMBERS

  Total number of            - Atomic kinds:                                   1
                             - Atoms:                                          4
                             - Shell sets:                                     4
                             - Shells:                                        36
                             - Primitive Cartesian functions:                 32
                             - Cartesian basis functions:                    100
                             - Spherical basis functions:                     92

  Maximum angular momentum of- Orbital basis functions:                        2
                             - Local part of the GTH pseudopotential:          2
                             - Non-local part of the GTH pseudopotential:      3


 MODULE QUICKSTEP: ATOMIC COORDINATES IN ANGSTROM

   Atom Kind Element         X             Y             Z       Z(eff)     Mass
      1    1 Sr   38      0.000000      0.000000      0.000000  10.0000  87.6200
      2    1 Sr   38      0.000000      3.009845      3.009845  10.0000  87.6200
      3    1 Sr   38      3.009845      0.000000      3.009845  10.0000  87.6200
      4    1 Sr   38      3.009845      3.009845      0.000000  10.0000  87.6200



 SCF PARAMETERS         Density guess:                                    ATOMIC
                        --------------------------------------------------------
                        max_scf:                                             500
                        max_scf_history:                                       0
                        max_diis:                                              4
                        --------------------------------------------------------
                        eps_scf:                                        1.00E-09
                        eps_scf_history:                                0.00E+00
                        eps_diis:                                       1.00E-01
                        eps_eigval:                                     1.00E-05
                        --------------------------------------------------------
                        level_shift [a.u.]:                             0.000000
                        added MOs                                        72    0
                        --------------------------------------------------------
                        Mixing method:                            BROYDEN_MIXING
                                                charge density mixing in g-space
                        --------------------------------------------------------
                        Smear method:                                FERMI_DIRAC
                        Electronic temperature [K]:                        300.0
                        Electronic temperature [a.u.]:                  9.50E-04
                        Accuracy threshold:                             1.00E-10
                        --------------------------------------------------------
                        No outer SCF

 PW_GRID| Information for grid number                                          1
 PW_GRID| Grid distributed over                                     8 processors
 PW_GRID| Real space group dimensions                                     8    1
 PW_GRID| the grid is blocked:                                                NO
 PW_GRID| Cutoff [a.u.]                                                    500.0
 PW_GRID| spherical cutoff:                                                   NO
 PW_GRID|   Bounds   1            -60      59                Points:         120
 PW_GRID|   Bounds   2            -60      59                Points:         120
 PW_GRID|   Bounds   3            -60      59                Points:         120
 PW_GRID| Volume element (a.u.^3)  0.8519E-03     Volume (a.u.^3)      1472.0379
 PW_GRID| Grid span                                                    FULLSPACE
 PW_GRID|   Distribution                         Average         Max         Min
 PW_GRID|   G-Vectors                           216000.0      216000      216000
 PW_GRID|   G-Rays                                1800.0        1800        1800
 PW_GRID|   Real Space Points                   216000.0      216000      216000

 PW_GRID| Information for grid number                                          2
 PW_GRID| Number of the reference grid                                         1
 PW_GRID| Grid distributed over                                     8 processors
 PW_GRID| Real space group dimensions                                     8    1
 PW_GRID| the grid is blocked:                                                NO
 PW_GRID| Cutoff [a.u.]                                                    166.7
 PW_GRID| spherical cutoff:                                                   NO
 PW_GRID|   Bounds   1            -36      35                Points:          72
 PW_GRID|   Bounds   2            -36      35                Points:          72
 PW_GRID|   Bounds   3            -36      35                Points:          72
 PW_GRID| Volume element (a.u.^3)  0.3944E-02     Volume (a.u.^3)      1472.0379
 PW_GRID| Grid span                                                    FULLSPACE
 PW_GRID|   Distribution                         Average         Max         Min
 PW_GRID|   G-Vectors                            46656.0       46872       46512
 PW_GRID|   G-Rays                                 648.0         651         646
 PW_GRID|   Real Space Points                    46656.0       46656       46656

 PW_GRID| Information for grid number                                          3
 PW_GRID| Number of the reference grid                                         1
 PW_GRID| Grid distributed over                                     8 processors
 PW_GRID| Real space group dimensions                                     8    1
 PW_GRID| the grid is blocked:                                                NO
 PW_GRID| Cutoff [a.u.]                                                     55.6
 PW_GRID| spherical cutoff:                                                   NO
 PW_GRID|   Bounds   1            -20      19                Points:          40
 PW_GRID|   Bounds   2            -20      19                Points:          40
 PW_GRID|   Bounds   3            -20      19                Points:          40
 PW_GRID| Volume element (a.u.^3)  0.2300E-01     Volume (a.u.^3)      1472.0379
 PW_GRID| Grid span                                                    FULLSPACE
 PW_GRID|   Distribution                         Average         Max         Min
 PW_GRID|   G-Vectors                             8000.0        8120        7920
 PW_GRID|   G-Rays                                 200.0         203         198
 PW_GRID|   Real Space Points                     8000.0        8000        8000

 PW_GRID| Information for grid number                                          4
 PW_GRID| Number of the reference grid                                         1
 PW_GRID| Grid distributed over                                     8 processors
 PW_GRID| Real space group dimensions                                     8    1
 PW_GRID| the grid is blocked:                                                NO
 PW_GRID| Cutoff [a.u.]                                                     18.5
 PW_GRID| spherical cutoff:                                                   NO
 PW_GRID|   Bounds   1            -12      11                Points:          24
 PW_GRID|   Bounds   2            -12      11                Points:          24
 PW_GRID|   Bounds   3            -12      11                Points:          24
 PW_GRID| Volume element (a.u.^3)  0.1065         Volume (a.u.^3)      1472.0379
 PW_GRID| Grid span                                                    FULLSPACE
 PW_GRID|   Distribution                         Average         Max         Min
 PW_GRID|   G-Vectors                             1728.0        1800        1680
 PW_GRID|   G-Rays                                  72.0          75          70
 PW_GRID|   Real Space Points                     1728.0        1728        1728

 POISSON| Solver                                                        PERIODIC
 POISSON| Periodicity                                                        XYZ

 RS_GRID| Information for grid number                                          1
 RS_GRID|   Bounds   1            -60      59                Points:         120
 RS_GRID|   Bounds   2            -60      59                Points:         120
 RS_GRID|   Bounds   3            -60      59                Points:         120
 RS_GRID| Real space fully replicated
 RS_GRID| Group size                                                           1

 RS_GRID| Information for grid number                                          2
 RS_GRID|   Bounds   1            -36      35                Points:          72
 RS_GRID|   Bounds   2            -36      35                Points:          72
 RS_GRID|   Bounds   3            -36      35                Points:          72
 RS_GRID| Real space fully replicated
 RS_GRID| Group size                                                           1

 RS_GRID| Information for grid number                                          3
 RS_GRID|   Bounds   1            -20      19                Points:          40
 RS_GRID|   Bounds   2            -20      19                Points:          40
 RS_GRID|   Bounds   3            -20      19                Points:          40
 RS_GRID| Real space fully replicated
 RS_GRID| Group size                                                           1

 RS_GRID| Information for grid number                                          4
 RS_GRID|   Bounds   1            -12      11                Points:          24
 RS_GRID|   Bounds   2            -12      11                Points:          24
 RS_GRID|   Bounds   3            -12      11                Points:          24
 RS_GRID| Real space fully replicated
 RS_GRID| Group size                                                           1

 Number of electrons:                                                         40
 Number of occupied orbitals:                                                 20
 Number of molecular orbitals:                                                92

 Number of orbital functions:                                                 92
 Number of independent orbital functions:                                     92

 Extrapolation method: initial_guess

 Atomic guess: The first density matrix is obtained in terms of atomic orbitals
               and electronic configurations assigned to each atomic kind

 Guess for atomic kind: Sr

 Electronic structure
    Total number of core electrons                                         28.00
    Total number of valence electrons                                      10.00
    Total number of electrons                                              38.00
    Multiplicity                                                   not specified
    S   [  2.00  2.00  2.00] 2.00  2.00
    P   [  6.00  6.00] 6.00
    D   [ 10.00]


 *******************************************************************************
                  Iteration          Convergence                     Energy [au]
 *******************************************************************************
                          1        0.261197                     -30.463860205689
                          2        0.910250E-01                 -30.497058401071
                          3        0.556140E-03                 -30.500158845235
                          4        0.201087E-03                 -30.500159830469
                          5        0.182474E-05                 -30.500159855170
                          6        0.756749E-09                 -30.500159855172

 Energy components [Hartree]           Total Energy ::          -30.500159855172
                                        Band Energy ::           -8.051367305124
                                     Kinetic Energy ::            9.205231257848
                                   Potential Energy ::          -39.705391113020
                                      Virial (-V/T) ::            4.313350745987
                                        Core Energy ::          -50.110634671065
                                          XC Energy ::           -4.106893580265
                                     Coulomb Energy ::           23.717368396158
                       Total Pseudopotential Energy ::          -59.382682617247
                       Local Pseudopotential Energy ::          -61.841168069692
                    Nonlocal Pseudopotential Energy ::            2.458485452445
                                        Confinement ::            0.668166883334

 Orbital energies  State     L     Occupation   Energy[a.u.]          Energy[eV]

                       1     0          2.000      -1.480989          -40.299772
                       2     0          2.000      -0.102201           -2.781044

                       1     1          6.000      -0.814164          -22.154536


 Total Electron Density at R=0:                                         0.000044
 Re-scaling the density matrix to get the right number of electrons
                  # Electrons              Trace(P)               Scaling factor
                           40                40.000                        1.000


 SCF WAVEFUNCTION OPTIMIZATION

  Step     Update method      Time    Convergence         Total energy    Change
  ------------------------------------------------------------------------------
     1 NoMix/Diag. 0.10E+00    5.6     1.31216298      -123.2793722490 -1.23E+02
     2 Broy./Diag. 0.10E+00    5.9     0.00366807      -122.7946006598  4.85E-01
     3 Broy./Diag. 0.10E+00    6.0     0.06160926      -122.8759905851 -8.14E-02
     4 Broy./Diag. 0.10E+00    5.9     0.00320310      -122.9538572858 -7.79E-02
     5 Broy./Diag. 0.10E+00    6.0     0.02283709      -122.9936985068 -3.98E-02
     6 Broy./Diag. 0.10E+00    6.0     0.00307560      -122.9760078527  1.77E-02
     7 Broy./Diag. 0.10E+00    6.0     0.01757791      -122.9322766538  4.37E-02
     8 Broy./Diag. 0.10E+00    6.0     0.00023383      -122.9131300581  1.91E-02
     9 Broy./Diag. 0.10E+00    6.0     0.00145430      -122.9106184861  2.51E-03
    10 Broy./Diag. 0.10E+00    6.0     0.00001890      -122.9095977641  1.02E-03
    11 Broy./Diag. 0.10E+00    6.0     0.00008457      -122.9106119970 -1.01E-03
    12 Broy./Diag. 0.10E+00    5.9     0.00000127      -122.9105528763  5.91E-05
    13 Broy./Diag. 0.10E+00    6.0     0.00004161      -122.9104225396  1.30E-04
    14 Broy./Diag. 0.10E+00    6.0     0.00000154      -122.9103369149  8.56E-05
    15 Broy./Diag. 0.10E+00    6.0     0.00000559      -122.9103202548  1.67E-05
    16 Broy./Diag. 0.10E+00    6.0     0.00000182      -122.9103075440  1.27E-05
    17 Broy./Diag. 0.10E+00    6.0     0.00000057      -122.9103095101 -1.97E-06
    18 Broy./Diag. 0.10E+00    6.1     0.00000141      -122.9103171327 -7.62E-06
    19 Broy./Diag. 0.10E+00    6.0     0.00000112      -122.9103170707  6.19E-08
    20 Broy./Diag. 0.10E+00    6.0     0.00000125      -122.9103143230  2.75E-06
    21 Broy./Diag. 0.10E+00    6.0     0.00000005      -122.9103132020  1.12E-06
    22 Broy./Diag. 0.10E+00    6.0     0.00000011      -122.9103128562  3.46E-07
    23 Broy./Diag. 0.10E+00    6.0     0.00000001      -122.9103129059 -4.97E-08
    24 Broy./Diag. 0.10E+00    6.0     0.00000002      -122.9103130533 -1.47E-07
    25 Broy./Diag. 0.10E+00    6.0     0.00000002      -122.9103131001 -4.69E-08
    26 Broy./Diag. 0.10E+00    6.0     4.4037E-09      -122.9103130745  2.56E-08
    27 Broy./Diag. 0.10E+00    6.0     0.00000002      -122.9103130317  4.29E-08
    28 Broy./Diag. 0.10E+00    6.0     8.4880E-09      -122.9103129676  6.41E-08
    29 Broy./Diag. 0.10E+00    6.0     8.7186E-09      -122.9103129243  4.33E-08
    30 Broy./Diag. 0.10E+00    6.0     3.5616E-09      -122.9103129258 -1.45E-09
    31 Broy./Diag. 0.10E+00    6.0     6.4532E-09      -122.9103129554 -2.96E-08
    32 Broy./Diag. 0.10E+00    6.0     7.1648E-10      -122.9103129609 -5.44E-09

  *** SCF run converged in    32 steps ***


  Electronic density on regular grids:        -40.0000000000        0.0000000000
  Core density on regular grids:               40.0000000000        0.0000000000
  Total charge density on r-space grids:        0.0000000000
  Total charge density g-space grids:           0.0000000000

  Overlap energy of the core charge distribution:               0.00000000000000
  Self energy of the core charge distribution:               -235.07899314489848
  Core Hamiltonian energy:                                     51.19750463030556
  Hartree energy:                                              78.20784007108860
  Exchange-correlation energy:                                -17.23614584676025
  Electronic entropic energy:                                  -0.00051867059393
  Fermi energy:                                                 0.15349397409394

  Total energy:                                              -122.91031296085855

 !-----------------------------------------------------------------------------!
                     Mulliken Population Analysis

 #  Atom  Element  Kind  Atomic population                           Net charge
       1     Sr       1         10.000000                             -0.000000
       2     Sr       1         10.000000                              0.000000
       3     Sr       1         10.000000                             -0.000000
       4     Sr       1         10.000000                              0.000000
 # Total charge                             40.000000                 -0.000000

 !-----------------------------------------------------------------------------!

 !-----------------------------------------------------------------------------!
                           Hirshfeld Charges

  #Atom  Element  Kind  Ref Charge     Population                    Net charge
      1       Sr     1      10.000         10.000                        -0.000
      2       Sr     1      10.000         10.000                         0.000
      3       Sr     1      10.000         10.000                        -0.000
      4       Sr     1      10.000         10.000                         0.000

  Total Charge                                                           -0.000
 !-----------------------------------------------------------------------------!

 KPOINTS| Band Structure Calculation
 KPOINTS| Number of k-point sets                                               1
 KPOINTS| Number of added MOs/bands                                           -1
 KPOINTS| Number of k-points in set    1                                     148
 KPOINTS| In units of b-vector [2pi/Bohr]
 KPOINTS| Special point     1 not specifi     0.000000     0.000000     0.000000
 KPOINTS| Special point     2 not specifi     0.500000     0.000000     0.500000
 KPOINTS| Special point     3 not specifi     0.625000     0.250000     0.625000
 KPOINTS| Special point     4 not specifi     0.000000     0.000000     0.000000
 KPOINTS| Time for k-point line                                            2.456

 ENERGY| Total FORCE_EVAL ( QS ) energy [hartree]           -122.910312960858548

 -------------------------------------------------------------------------------
 -                                                                             -
 -                                DBCSR STATISTICS                             -
 -                                                                             -
 -------------------------------------------------------------------------------
 COUNTER                                    TOTAL       BLAS       SMM       ACC
 flops inhomo. stacks                           0       0.0%      0.0%      0.0%
 flops total                         0.000000E+00       0.0%      0.0%      0.0%
 flops max/rank                      0.000000E+00       0.0%      0.0%      0.0%
 matmuls inhomo. stacks                         0       0.0%      0.0%      0.0%
 matmuls total                                  0       0.0%      0.0%      0.0%
 number of processed stacks                     0       0.0%      0.0%      0.0%
 average stack size                                     0.0       0.0       0.0
 marketing flops                     0.000000E+00
 -------------------------------------------------------------------------------
 -                                                                             -
 -                      DBCSR MESSAGE PASSING PERFORMANCE                      -
 -                                                                             -
 -------------------------------------------------------------------------------
 ROUTINE             CALLS      AVE VOLUME [Bytes]
 MP_Bcast                1                     12.
 MP_Allreduce           19                     21.
 MP_Alltoall        714064                   3884.
 -------------------------------------------------------------------------------

 -------------------------------------------------------------------------------
 -                                                                             -
 -                                DBM STATISTICS                               -
 -                                                                             -
 -------------------------------------------------------------------------------
    M  x    N  x    K                                          COUNT     PERCENT
 -------------------------------------------------------------------------------

 -------------------------------------------------------------------------------
 -                                                                             -
 -                                GRID STATISTICS                              -
 -                                                                             -
 -------------------------------------------------------------------------------
 LP    KERNEL             BACKEND                              COUNT     PERCENT
 4     collocate ortho    CPU                                1828992      50.77%
 4     integrate ortho    CPU                                1773568      49.23%
 0     collocate general  CPU                                      8       0.00%
 0     integrate general  CPU                                      4       0.00%
 -------------------------------------------------------------------------------

 MEMORY| Estimated peak process memory [MiB]                                 659

 -------------------------------------------------------------------------------
 ----                             MULTIGRID INFO                            ----
 -------------------------------------------------------------------------------
 count for grid        1:          52728          cutoff [a.u.]          500.00
 count for grid        2:          68492          cutoff [a.u.]          166.67
 count for grid        3:          36344          cutoff [a.u.]           55.56
 count for grid        4:          99660          cutoff [a.u.]           18.52
 total gridlevel count  :         257224

 -------------------------------------------------------------------------------
 -                                                                             -
 -                         MESSAGE PASSING PERFORMANCE                         -
 -                                                                             -
 -------------------------------------------------------------------------------

 ROUTINE             CALLS      AVE VOLUME [Bytes]
 MP_Group                6
 MP_Bcast           298671                   1681.
 MP_Allreduce       130157                     58.
 MP_Sync                 4
 MP_Alltoall           581                9589449.
 MP_SendRecv           938                 562428.
 MP_ISendRecv          903                 553940.
 MP_Wait            206171
 MP_comm_split           4
 MP_ISend           218444                   1939.
 MP_IRecv           348800                   1217.
 -------------------------------------------------------------------------------


 -------------------------------------------------------------------------------
 -                                                                             -
 -                           R E F E R E N C E S                               -
 -                                                                             -
 -------------------------------------------------------------------------------
 
 CP2K version 2025.1 (Development Version), the CP2K developers group (2025).
 CP2K is freely available from https://www.cp2k.org/ .
 
 T. D. Kuehne, M. Iannuzzi, M. Del Ben, V. V. Rybkin, P. Seewald, F. Stein, T. 
 Laino, R. Z. Khaliullin, O. Schuett, F. Schiffmann, D. Golze, J. Wilhelm, S. 
 Chulkov, M. H. Bani-Hashemian, V. Weber, U. Borstnik, M. Taillefumier, A. S. 
 Jakobovits, A. Lazzaro, H. Pabst, T. Mueller, R. Schade, M. Guidon, S. 
 Andermatt, N. Holmberg, G. K. Schenter, A. Hehn, A. Bussy, F. Belleflamme, G. 
 Tabacchi, A. Gloess, M. Lass, I. Bethune, C. J. Mundy, C. Plessl, M. Watkins, 
 J. VandeVondele, M. Krack, J. Hutter.
 J. Chem. Phys. 152, 194103 (2020).
 CP2K: An electronic structure and molecular dynamics software package - 
 Quickstep: Efficient and accurate electronic structure calculations.
 https://doi.org/10.1063/5.0007045

 O. Schuett, P. Messmer, J. Hutter, J. VandeVondele.
 Electronic Structure Calculations on Graphics Processing Units, 173-190 (2016).
 GPU-Accelerated Sparse Matrix-Matrix Multiplication for Linear Scaling Density 
 Functional Theory.
 https://doi.org/10.1002/9781118670712.ch8

 J. Hutter, M. Iannuzzi, F. Schiffmann, J. VandeVondele.
 WIREs Comput Mol Sci. 4, 15-25 (2014).
 CP2K: atomistic simulations of condensed matter systems.
 https://doi.org/10.1002/wcms.1159

 U. Borstnik, J. VandeVondele, V. Weber, J. Hutter.
 Parallel Comput. 40, 47-58 (2014).
 Sparse matrix multiplication: The distributed block-compressed sparse row 
 library.
 https://doi.org/10.1016/j.parco.2014.03.012

 J. VandeVondele, J. Hutter.
 J. Chem. Phys. 127, 114105 (2007).
 Gaussian basis sets for accurate calculations on molecular systems in gas and 
 condensed phases.
 https://doi.org/10.1063/1.2770708

 J. VandeVondele, M. Krack, F. Mohamed, M. Parrinello, T. Chassaing, J. Hutter.
 Comput. Phys. Commun. 167, 103-128 (2005).
 QUICKSTEP: Fast and accurate density functional calculations using a mixed 
 Gaussian and plane waves approach.
 https://doi.org/10.1016/j.cpc.2004.12.014

 M. Krack.
 Theor. Chem. Acc. 114, 145-152 (2005).
 Pseudopotentials for H to Kr optimized for gradient-corrected 
 exchange-correlation functionals.
 https://doi.org/10.1007/s00214-005-0655-y

 M. Frigo, S. G. Johnson.
 Proc. IEEE 93, 216-231 (2005).
 The design and implementation of FFTW3.
 https://doi.org/10.1109/JPROC.2004.840301

 C. Hartwigsen, S. Goedecker, J. Hutter.
 Phys. Rev. B 58, 3641-3662 (1998).
 Relativistic separable dual-space Gaussian pseudopotentials from H to Rn.
 https://doi.org/10.1103/PhysRevB.58.3641

 G. Lippert, J. Hutter, M. Parrinello.
 Mol. Phys. 92, 477-487 (1997).
 A hybrid Gaussian and plane wave density functional scheme.
 https://doi.org/10.1080/002689797170220

 S. Goedecker, M. Teter, J. Hutter.
 Phys. Rev. B 54, 1703-1710 (1996).
 Separable dual-space Gaussian pseudopotentials.
 https://doi.org/10.1103/PhysRevB.54.1703

 J. P. Perdew, K. Burke, M. Ernzerhof.
 Phys. Rev. Lett. 77, 3865-3868 (1996).
 Generalized gradient approximation made simple.
 https://doi.org/10.1103/PhysRevLett.77.3865


 -------------------------------------------------------------------------------
 -                                                                             -
 -                                T I M I N G                                  -
 -                                                                             -
 -------------------------------------------------------------------------------
 SUBROUTINE                       CALLS  ASD         SELF TIME        TOTAL TIME
                                MAXIMUM       AVERAGE  MAXIMUM  AVERAGE  MAXIMUM
 CP2K                                 1  1.0    0.015    0.018  197.810  197.810
 qs_energies                          1  2.0    0.025    0.169  197.466  197.547
 scf_env_do_scf                       1  3.0    0.000    0.000  193.271  193.271
 scf_env_do_scf_inner_loop           32  4.0    0.041    0.044  193.271  193.271
 do_general_diag_kp                  33  5.9    0.210    0.225  168.128  170.006
 qs_scf_new_mos_kp                   32  5.0    0.000    0.000  165.871  167.748
 rskp_transform                   16680  6.9   50.835   82.432   50.835   82.432
 mp_alltoall_i22                 121840  8.8   54.150   72.175   54.150   72.175
 dbcsr_desymmetrize_deep          69408  7.4    1.189    1.249   45.070   58.299
 kpoint_density_transform            32  7.0    0.097    0.101   46.026   46.067
 transform_dmat                    8192  8.0   23.426   38.115   23.426   38.115
 dbcsr_complete_redistribute      52432  8.2    1.981    2.083   30.978   36.094
 copy_fm_to_dbcsr                 16384  8.0    0.105    0.110   19.522   24.484
 copy_dbcsr_to_fm                 36048  6.9    0.396    0.412   18.490   18.801
 qs_ks_update_qs_env                 32  5.0    0.000    0.000   13.118   18.763
 rebuild_ks_matrix                   32  6.0    0.000    0.000   11.826   17.471
 qs_ks_build_kohn_sham_matrix        32  7.0    0.074    0.077   11.826   17.471
 sum_up_and_integrate                32  8.0    0.000    0.000    9.887   15.526
 integrate_v_rspace                  32  9.0    0.081    0.131    9.885   15.523
 grid_integrate_task_list            32 10.0    9.197   14.792    9.197   14.792
 qs_rho_update_rho_low               33  5.0    0.000    0.000   10.002   10.032
 calculate_rho_elec                  33  6.0    0.064    0.079   10.002   10.032
 grid_collocate_task_list            33  7.0    5.735    9.005    5.735    9.005
 cp_fm_start_copy_general         49744  7.3    1.007    1.330    5.950    6.054
 cp_cfm_geeig_canon                1061  6.9    0.010    0.011    5.456    5.548
 transfer_rs2pw                     134  8.0    0.002    0.002    4.102    5.279
 density_rs2pw                       33  7.0    0.001    0.002    4.199    5.276
 transfer_rs2pw_500                  35  8.9    0.211    0.227    3.968    5.138
 mp_sendrecv_dv                     938 10.0    3.841    5.002    3.841    5.002
 cp_cfm_heevd                      2122  7.9    0.003    0.003    4.905    4.990
 cp_cfm_heevd_base                 2122  8.9    4.902    4.987    4.902    4.987
 dbcsr_finalize                  143732  8.4    0.611    0.652    4.397    4.711
 mp_alltoall_d11v                365520  9.3    3.999    4.082    3.999    4.082
 mp_allgather_i                   99488  8.3    3.078    3.256    3.078    3.256
 mp_cart_sub                      72098  8.9    3.095    3.103    3.095    3.103
 dbcsr_merge_all                  52432 10.2    1.336    1.577    2.450    2.727
 kpoint_set_mo_occupation            32  7.0    2.388    2.454    2.510    2.571
 hybrid_alltoall_any              69408  8.4    0.298    0.323    2.416    2.511
 mp_alltoall_i11v                226704  9.0    2.274    2.372    2.274    2.372
 write_kpoints_restart               32  5.0    0.009    0.014    2.250    2.251
 mp_cart_create                   36055  8.9    1.808    1.854    1.808    1.854
 fft_wrap_pw1pw2                    581 10.0    0.007    0.008    1.749    1.772
 fft_wrap_pw1pw2_500                386 11.3    0.139    0.143    1.633    1.655
 fft3d_ps                           581 12.0    0.599    0.618    1.361    1.380
 dbcsr_work_create               121840  8.8    0.733    0.804    1.258    1.365
 dbcsr_dot                        86017  8.0    0.455    0.525    1.323    1.356
 mp_bcast_iv                     199002  8.3    1.191    1.348    1.191    1.348
 evaluate_core_matrix_traces         32  6.0    0.000    0.000    1.292    1.292
 calculate_ptrace_kp                 64  7.0    0.063    0.065    1.292    1.292
 dbcsr_create_new                269924  8.0    1.018    1.058    1.231    1.284
 qs_vxc_create                       32  8.0    0.001    0.001    1.274    1.275
 xc_vxc_pw_create                    32  9.0    0.053    0.053    1.273    1.275
 gspace_mixing                       31  5.0    0.048    0.048    1.167    1.167
 dbcsr_copy                      103744  6.9    0.522    0.538    0.982    1.079
 dbcsr_iterator_start            461939  8.8    0.845    0.867    1.002    1.031
 broyden_mixing                      31  6.0    0.948    0.963    0.974    0.979
 cp_dbcsr_alloc_block_from_nbl     9602  5.1    0.539    0.847    0.607    0.940
 dbcsr_data_new                 1318933  9.7    0.862    0.927    0.862    0.927
 cp_fm_write_unformatted           2688  6.0    0.581    0.842    0.654    0.921
 dbcsr_work_destroy_all          121840  9.8    0.580    0.586    0.911    0.917
 qs_energies_init_hamiltonians        1  3.0    0.000    0.000    0.916    0.916
 tree_to_linear_d                 52432 11.2    0.870    0.897    0.870    0.897
 copy_dbcsr_to_fm_bc              36048  7.9    0.369    0.383    0.809    0.838
 copy_fm_to_dbcsr_bc              16384  9.0    0.232    0.241    0.793    0.823
 kpoint_density_matrices             32  7.0    0.023    0.024    0.777    0.822
 xc_pw_derive                       192 11.0    0.001    0.001    0.810    0.816
 mp_sum_d                         86695  9.0    0.706    0.806    0.706    0.806
 self_consistency_check              32  5.0    0.061    0.063    0.777    0.797
 parallel_gemm_fm                  4096  8.0    0.004    0.004    0.742    0.787
 parallel_gemm_fm_gemm             4096  9.0    0.004    0.004    0.738    0.783
 cp_fm_gemm                        4096 10.0    0.735    0.779    0.735    0.779
 dbcsr_data_release             1919688 10.1    0.740    0.755    0.740    0.755
 build_core_hamiltonian_matrix        1  4.0    0.005    0.005    0.486    0.704
 xc_rho_set_and_dset_create          32 10.0    0.025    0.026    0.698    0.703
 mp_alltoall_z22v                   581 14.0    0.661    0.694    0.661    0.694
 cp_sm_mix                        43008  6.0    0.176    0.216    0.635    0.662
 dbcsr_iterator_stop             461939  8.8    0.543    0.556    0.643    0.657
 cp_fm_finish_copy_general        20628  7.8    0.592    0.600    0.636    0.648
 potential_pw2rs                     32 10.0    0.003    0.003    0.607    0.632
 dbcsr_destroy                   183908  8.0    0.315    0.327    0.578    0.608
 xc_pw_divergence                    32 10.0    0.000    0.001    0.515    0.520
 cp_cfm_gemm                       3183  7.9    0.507    0.513    0.507    0.513
 mp_waitall_1                    206171  8.3    0.299    0.484    0.299    0.484
 init_scf_run                         1  3.0    0.000    0.000    0.440    0.472
 scf_env_initial_rho_setup            1  4.0    0.000    0.000    0.440    0.472
 x_to_yz                            320 13.2    0.059    0.060    0.433    0.444
 qs_env_update_s_mstruct              1  4.0    0.000    0.000    0.362    0.440
 transfer_pw2rs                     129 11.0    0.001    0.001    0.418    0.420
 mp_bcast_im                      99488  8.3    0.365    0.415    0.365    0.415
 mp_max_d                         43010  7.0    0.361    0.405    0.361    0.405
 dbcsr_copy_into_existing         17728  9.7    0.212    0.292    0.315    0.395
 quick_finalize                   69408  9.4    0.221    0.227    0.385    0.394
 yz_to_x                            261 12.8    0.036    0.038    0.324    0.351
 dbcsr_set                       180001  7.5    0.169    0.172    0.295    0.342
 calculate_rho_core                   1  5.0    0.002    0.003    0.248    0.330
 transfer_pw2rs_500                  33 11.9    0.166    0.172    0.310    0.317
 mp_comm_free                    108187  8.9    0.276    0.307    0.276    0.307
 mp_send_dv                        2688  7.0    0.064    0.298    0.064    0.298
 mixing_allocate                      1  3.0    0.008    0.008    0.191    0.286
 xc_functional_eval                  32 11.0    0.000    0.000    0.236    0.241
 pbe_lda_eval                        32 12.0    0.236    0.241    0.236    0.241
 mp_sum_dv                          327  3.4    0.118    0.215    0.118    0.215
 dbcsr_reserve_blocks             25986  9.2    0.144    0.171    0.169    0.196
 mp_sum_dm3                          32  8.0    0.122    0.191    0.122    0.191
 mp_isend_dv                      50336  8.3    0.171    0.179    0.171    0.179
 dbcsr_zero                      180001  8.5    0.127    0.174    0.127    0.174
 dbcsr_iterator_seek             461939  9.8    0.157    0.170    0.157    0.170
 restraint_control                    1  2.0    0.000    0.000    0.081    0.162
 mp_sum_i                             4  2.8    0.081    0.162    0.081    0.162
 build_overlap_matrix_low             1  5.0    0.018    0.023    0.106    0.159
 build_kinetic_matrix_low             1  5.0    0.016    0.020    0.104    0.155
 dbcsr_sort_indices              147826 10.7    0.146    0.150    0.146    0.150
 dbcsr_make_index_exist          269924  9.0    0.139    0.146    0.139    0.146
 build_core_ppnl                      1  5.0    0.104    0.143    0.104    0.143
 qs_env_rebuild_rho                   1  5.0    0.000    0.000    0.097    0.141
 qs_rho_rebuild                       1  6.0    0.004    0.004    0.097    0.141
 dbcsr_reserve_all_blocks         16384 10.0    0.029    0.031    0.133    0.139
 pw_scatter_p                       320 12.2    0.134    0.136    0.134    0.136
 calculate_first_density_matrix       1  5.0    0.001    0.001    0.101    0.134
 calculate_atomic_block_dm            1  6.0    0.001    0.001    0.098    0.131
 transfer_rs2pw_170                  33  9.0    0.040    0.042    0.104    0.125
 scf_post_calculation_gpw             1  3.0    0.000    0.000    0.116    0.116
 write_available_results              1  4.0    0.000    0.000    0.116    0.116
 write_mo_free_results                1  5.0    0.002    0.002    0.116    0.116
 merge_index                      52432 11.2    0.103    0.110    0.103    0.110
 pw_poisson_solve                    32  8.0    0.000    0.000    0.108    0.108
 mp_irecv_iv                     198976  8.3    0.012    0.099    0.012    0.099
 mp_isendrecv_dv                    903 13.0    0.042    0.098    0.042    0.098
 parser_read_line                  6350  4.1    0.002    0.002    0.088    0.090
 transfer_pw2rs_170                  32 12.0    0.041    0.044    0.083    0.090
 qs_init_subsys                       1  2.0    0.001    0.002    0.089    0.090
 parser_read_line_low                25  6.1    0.009    0.035    0.086    0.088
 qs_env_setup                         1  3.0    0.000    0.000    0.086    0.087
 qs_env_rebuild_pw_env                2  3.5    0.000    0.000    0.086    0.087
 pw_env_rebuild                       1  5.0    0.000    0.001    0.086    0.086
 fft_wrap_pw1pw2_170                 65 10.5    0.006    0.007    0.079    0.084
 dbcsr_switch_data_area           69408 10.4    0.063    0.063    0.082    0.083
 broadcast_input_information         25  7.1    0.027    0.031    0.078    0.083
 calculate_ecore_overlap              1  4.0    0.000    0.000    0.058    0.081
 mp_recv_dv                        8064  7.0    0.010    0.079    0.010    0.079
 cp_fm_cleanup_copy_general       35408  7.0    0.051    0.052    0.077    0.079
 dbcsr_data_copy_aa2              52432 11.2    0.062    0.079    0.062    0.079
 build_core_ppl                       1  5.0    0.050    0.072    0.050    0.072
 pw_integral_ab_c1d_c1d_gs           32  9.0    0.069    0.069    0.071    0.072
 pw_grid_setup                        4  6.0    0.000    0.000    0.069    0.069
 pw_grid_setup_internal               4  7.0    0.002    0.002    0.069    0.069
 mp_isend_iv                     112072  8.3    0.018    0.068    0.018    0.068
 mp_sum_iv                           24  5.3    0.048    0.064    0.048    0.064
 qs_scf_ensure_work_matrices          1  3.0    0.000    0.000    0.048    0.064
 create_qs_kind_set                   1  2.0    0.000    0.000    0.063    0.064
 read_qs_kind                         1  3.0    0.031    0.033    0.063    0.064
 topology_control                     1  2.0    0.000    0.000    0.062    0.062
 hirshfeld_integration                1  6.0    0.024    0.048    0.058    0.058
 pw_gather_p                        261 11.8    0.057    0.058    0.057    0.058
 cp_cfm_scale_and_add_fm           4244  6.9    0.049    0.050    0.049    0.050
 dbcsr_distribution_new           52434  8.5    0.047    0.049    0.047    0.049
 mp_irecv_im2                     99488  8.3    0.006    0.049    0.006    0.049
 pw_grid_sort                         4  8.0    0.034    0.034    0.048    0.048
 dbcsr_get_data_size_used        121840  9.8    0.042    0.047    0.042    0.047
 calculate_hirshfeld_normalizat       1  6.0    0.017    0.035    0.046    0.046
 pw_copy                            480 10.5    0.044    0.046    0.044    0.046
 read_cell_cif                        2  4.5    0.002    0.004    0.042    0.043
 dbcsr_make_dbcsr_index          147826 10.7    0.039    0.040    0.039    0.040
 pw_derive                          288 11.3    0.037    0.040    0.037    0.040
 coordinate_control                   1  3.0    0.000    0.001    0.038    0.038
 coordinate_control_READ_COORDI       1  4.0    0.000    0.000    0.038    0.038
 read_coordinate_cif                  1  5.0    0.002    0.002    0.038    0.038
 pw_copy_from_array                 320 12.2    0.031    0.036    0.031    0.036
 mp_bcast_i_src                     100  8.1    0.030    0.036    0.030    0.036
 mp_comm_size                     87083  9.0    0.023    0.032    0.023    0.032
 mixing_init                          1  5.0    0.031    0.032    0.032    0.032
 qs_create_task_list                  1  5.0    0.000    0.000    0.017    0.032
 generate_qs_task_list                1  6.0    0.013    0.023    0.017    0.032
 mp_isend_im2                     56036  8.3    0.008    0.031    0.008    0.031
 mp_irecv_dv                      50336  8.3    0.029    0.030    0.029    0.030
 pw_poisson_set                      33  8.9    0.000    0.000    0.024    0.025
 mp_sum_dm                           31  7.0    0.016    0.024    0.016    0.024
 transfer_rs2pw_60                   33  9.0    0.007    0.007    0.021    0.023
 mp_comm_rank                     87083  9.0    0.021    0.023    0.021    0.023
 fft_wrap_pw1pw2_60                  65 10.5    0.001    0.001    0.022    0.022
 mp_bcast_am_src                     25  8.1    0.015    0.016    0.020    0.021
 cp_cfm_to_fm                      1061  6.9    0.020    0.021    0.020    0.021
 transfer_pw2rs_60                   32 12.0    0.007    0.007    0.019    0.021
 -------------------------------------------------------------------------------

 The number of warnings for this run is : 1
 
 -------------------------------------------------------------------------------
  **** **** ******  **  PROGRAM ENDED AT                 2025-08-05 00:14:10.647
 ***** ** ***  *** **   PROGRAM RAN ON                              i02r04c02s06
 **    ****   ******    PROGRAM RAN BY                                   di38fab
 ***** **    ** ** **   PROGRAM PROCESS ID                               3318613
  **** **  *******  **  PROGRAM STOPPED IN /hppfs/scratch/04/di38fab/09_GTH/Delt
                                           a_Set/Sr/aug-DZVP-MOLOPT-GTH-tier-1/8
                                           x8x8
