 DBCSR| CPU Multiplication driver                                           BLAS (U)
 DBCSR| Multrec recursion limit                                              512 (U)
 DBCSR| Multiplication stack size                                           1000 (D)
 DBCSR| Maximum elements for images                                    UNLIMITED (U)
 DBCSR| Multiplicative factor virtual images                                   1 (U)
 DBCSR| Use multiplication densification                                       T (D)
 DBCSR| Multiplication size stacks                                             3 (U)
 DBCSR| Use memory pool for CPU allocation                                     F (U)
 DBCSR| Number of 3D layers                                               SINGLE (U)
 DBCSR| Use MPI memory allocation                                              F (U)
 DBCSR| Use RMA algorithm                                                      F (U)
 DBCSR| Use Communication thread                                               T (U)
 DBCSR| Communication thread load                                             45 (D)
 DBCSR| MPI: My process id                                                     0
 DBCSR| MPI: Number of processes                                               8
 DBCSR| OMP: Current number of threads                                        12
 DBCSR| OMP: Max number of threads                                            12
 DBCSR| Split modifier for TAS multiplication algorithm                  1.0E+00 (U)


  **** **** ******  **  PROGRAM STARTED AT               2025-08-04 02:39:20.471
 ***** ** ***  *** **   PROGRAM STARTED ON                          i03r10c04s10
 **    ****   ******    PROGRAM STARTED BY                               di38fab
 ***** **    ** ** **   PROGRAM PROCESS ID                               1026192
  **** **  *******  **  PROGRAM STARTED IN /hppfs/scratch/04/di38fab/09_GTH/Delt
                                           a_Set/Be/TZV2P-MOLOPT-PBE-GTH/8x8x8

 CP2K| version string:                 CP2K version 2025.1 (Development Version)
 CP2K| source code revision number:                                  git:3130539
 CP2K| cp2kflags: omp libint fftw3 libxc parallel scalapack max_contr=4         
 CP2K| is freely available from                            https://www.cp2k.org/
 CP2K| Program compiled at                         Tue Jun  3 16:14:32 CEST 2025
 CP2K| Program compiled on                                               login01
 CP2K| Program compiled for                                        Supermuc-foss
 CP2K| Data directory path                  /hppfs/work/pn36zo/di38fab/cp2k/data
 CP2K| Input file name                                                    GW.inp

 GLOBAL| Force Environment number                                              1
 GLOBAL| Basis set file name            /hppfs/scratch/04/di38fab/09_GTH/BASIS_A
 GLOBAL| Potential file name            /hppfs/work/pn36zo/di38fab/cp2k/data/GTH
 GLOBAL| MM Potential file name                                     MM_POTENTIAL
 GLOBAL| Coordinate file name                                             Be.cif
 GLOBAL| Method name                                                        CP2K
 GLOBAL| Project name                                                       WSe2
 GLOBAL| Run type                                                         ENERGY
 GLOBAL| FFT library                                                       FFTW3
 GLOBAL| Diagonalization library                                       ScaLAPACK
 GLOBAL| Cholesky decomposition library                                ScaLAPACK
 GLOBAL| DGEMM library                                                      BLAS
 GLOBAL| Orthonormality check for eigenvectors                          DISABLED
 GLOBAL| Matrix multiplication library                                 ScaLAPACK
 GLOBAL| All-to-all communication in single precision                          F
 GLOBAL| FFTs using library dependent lengths                                  F
 GLOBAL| Grid backend                                                       AUTO
 GLOBAL| Global print level                                               MEDIUM
 GLOBAL| MPI I/O enabled                                                       T
 GLOBAL| Total number of message passing processes                             8
 GLOBAL| Number of threads for this process                                   12
 GLOBAL| This output is from process                                           0
 GLOBAL| OpenMP stack size per thread (OMP_STACKSIZE)                    default
 GLOBAL| CPU model name             Intel(R) Xeon(R) Platinum 8174 CPU @ 3.10GHz

 MEMORY| system memory details [Kb]
 MEMORY|                        rank 0           min           max       average
 MEMORY| MemTotal             98436660      98436660      98436660      98436660
 MEMORY| MemFree              85189208      85189208      85221112      85205160
 MEMORY| Buffers                     0             0             0             0
 MEMORY| Cached                2337808       2337808       2362072       2349940
 MEMORY| Slab                  1220760       1209924       1220760       1215342
 MEMORY| SReclaimable           275372        269440        275372        272406
 MEMORY| MemLikelyFree        87802388      87802388      87852624      87827506


 *** Fundamental physical constants (SI units) ***

 *** Literature: B. J. Mohr and B. N. Taylor,
 ***             CODATA recommended values of the fundamental physical
 ***             constants: 2006, Web Version 5.1
 ***             http://physics.nist.gov/constants

 Speed of light in vacuum [m/s]                             2.99792458000000E+08
 Magnetic constant or permeability of vacuum [N/A**2]       1.25663706143592E-06
 Electric constant or permittivity of vacuum [F/m]          8.85418781762039E-12
 Planck constant (h) [J*s]                                  6.62606896000000E-34
 Planck constant (h-bar) [J*s]                              1.05457162825177E-34
 Elementary charge [C]                                      1.60217648700000E-19
 Electron mass [kg]                                         9.10938215000000E-31
 Electron g factor [ ]                                     -2.00231930436220E+00
 Proton mass [kg]                                           1.67262163700000E-27
 Fine-structure constant                                    7.29735253760000E-03
 Rydberg constant [1/m]                                     1.09737315685270E+07
 Avogadro constant [1/mol]                                  6.02214179000000E+23
 Boltzmann constant [J/K]                                   1.38065040000000E-23
 Atomic mass unit [kg]                                      1.66053878200000E-27
 Bohr radius [m]                                            5.29177208590000E-11

 *** Conversion factors ***

 [u] -> [a.u.]                                              1.82288848426455E+03
 [Angstrom] -> [Bohr] = [a.u.]                              1.88972613288564E+00
 [a.u.] = [Bohr] -> [Angstrom]                              5.29177208590000E-01
 [a.u.] -> [s]                                              2.41888432650478E-17
 [a.u.] -> [fs]                                             2.41888432650478E-02
 [a.u.] -> [J]                                              4.35974393937059E-18
 [a.u.] -> [N]                                              8.23872205491840E-08
 [a.u.] -> [K]                                              3.15774647902944E+05
 [a.u.] -> [kJ/mol]                                         2.62549961709828E+03
 [a.u.] -> [kcal/mol]                                       6.27509468713739E+02
 [a.u.] -> [Pa]                                             2.94210107994716E+13
 [a.u.] -> [bar]                                            2.94210107994716E+08
 [a.u.] -> [atm]                                            2.90362800883016E+08
 [a.u.] -> [eV]                                             2.72113838565563E+01
 [a.u.] -> [Hz]                                             6.57968392072181E+15
 [a.u.] -> [1/cm] (wave numbers)                            2.19474631370540E+05
 [a.u./Bohr**2] -> [1/cm]                                   5.14048714338585E+03
 

 CELL_TOP| Volume [angstrom^3]:                                        15.843827
 CELL_TOP| Vector a [angstrom     2.263     0.000     0.000   |a| =     2.262760
 CELL_TOP| Vector b [angstrom     1.131     1.960     0.000   |b| =     2.262760
 CELL_TOP| Vector c [angstrom     0.000     0.000     3.573   |c| =     3.573160
 CELL_TOP| Angle (b,c), alpha [degree]:                                90.000000
 CELL_TOP| Angle (a,c), beta  [degree]:                                90.000000
 CELL_TOP| Angle (a,b), gamma [degree]:                                60.000000
 CELL_TOP| Numerically orthorhombic:                                          NO
 CELL_TOP| Periodicity                                                       XYZ

 CELL_CIF| Volume [angstrom^3]:                                        15.843827
 CELL_CIF| Vector a [angstrom     2.263     0.000     0.000   |a| =     2.262760
 CELL_CIF| Vector b [angstrom     1.131     1.960     0.000   |b| =     2.262760
 CELL_CIF| Vector c [angstrom     0.000     0.000     3.573   |c| =     3.573160
 CELL_CIF| Angle (b,c), alpha [degree]:                                90.000000
 CELL_CIF| Angle (a,c), beta  [degree]:                                90.000000
 CELL_CIF| Angle (a,b), gamma [degree]:                                60.000000
 CELL_CIF| Numerically orthorhombic:                                          NO
 CELL_CIF| Periodicity                                                       XYZ

 GENERATE|  Preliminary Number of Bonds generated:                             0
 GENERATE|  Achieved consistency in connectivity generation.

 CELL| Volume [angstrom^3]:                                            15.843827
 CELL| Vector a [angstrom]:       2.263     0.000     0.000   |a| =     2.262760
 CELL| Vector b [angstrom]:       1.131     1.960     0.000   |b| =     2.262760
 CELL| Vector c [angstrom]:       0.000     0.000     3.573   |c| =     3.573160
 CELL| Angle (b,c), alpha [degree]:                                    90.000000
 CELL| Angle (a,c), beta  [degree]:                                    90.000000
 CELL| Angle (a,b), gamma [degree]:                                    60.000000
 CELL| Numerically orthorhombic:                                              NO
 CELL| Periodicity                                                           XYZ

 CELL_REF| Volume [angstrom^3]:                                        15.843827
 CELL_REF| Vector a [angstrom     2.263     0.000     0.000   |a| =     2.262760
 CELL_REF| Vector b [angstrom     1.131     1.960     0.000   |b| =     2.262760
 CELL_REF| Vector c [angstrom     0.000     0.000     3.573   |c| =     3.573160
 CELL_REF| Angle (b,c), alpha [degree]:                                90.000000
 CELL_REF| Angle (a,c), beta  [degree]:                                90.000000
 CELL_REF| Angle (a,b), gamma [degree]:                                60.000000
 CELL_REF| Numerically orthorhombic:                                          NO
 CELL_REF| Periodicity                                                       XYZ

 *** WARNING in cryssym.F:180 :: Symmetry library SPGLIB not available ***


 *******************************************************************************
                                    Kpoints
 *******************************************************************************
 BRILLOUIN| K-point scheme                                        Monkhorst-Pack
 BRILLOUIN| K-Point grid                                             8    8    8
 BRILLOUIN| Accuracy in Symmetry determination                      0.100000E-05
 BRILLOUIN| K-Point point group symmetrization                               OFF
 BRILLOUIN| Wavefunction type                                            COMPLEX
 BRILLOUIN| List of Kpoints [2 Pi/Bohr]                                      256
 BRILLOUIN| Number           Weight            X              Y              Z
 BRILLOUIN|     1           0.00391       -0.43750       -0.43750       -0.43750
 BRILLOUIN|     2           0.00391       -0.43750       -0.43750       -0.31250
 BRILLOUIN|     3           0.00391       -0.43750       -0.43750       -0.18750
 BRILLOUIN|     4           0.00391       -0.43750       -0.43750       -0.06250
 BRILLOUIN|     5           0.00391       -0.43750       -0.43750        0.06250
 BRILLOUIN|     6           0.00391       -0.43750       -0.43750        0.18750
 BRILLOUIN|     7           0.00391       -0.43750       -0.43750        0.31250
 BRILLOUIN|     8           0.00391       -0.43750       -0.43750        0.43750
 BRILLOUIN|     9           0.00391       -0.43750       -0.31250       -0.43750
 BRILLOUIN|    10           0.00391       -0.43750       -0.31250       -0.31250
 BRILLOUIN|    11           0.00391       -0.43750       -0.31250       -0.18750
 BRILLOUIN|    12           0.00391       -0.43750       -0.31250       -0.06250
 BRILLOUIN|    13           0.00391       -0.43750       -0.31250        0.06250
 BRILLOUIN|    14           0.00391       -0.43750       -0.31250        0.18750
 BRILLOUIN|    15           0.00391       -0.43750       -0.31250        0.31250
 BRILLOUIN|    16           0.00391       -0.43750       -0.31250        0.43750
 BRILLOUIN|    17           0.00391       -0.43750       -0.18750       -0.43750
 BRILLOUIN|    18           0.00391       -0.43750       -0.18750       -0.31250
 BRILLOUIN|    19           0.00391       -0.43750       -0.18750       -0.18750
 BRILLOUIN|    20           0.00391       -0.43750       -0.18750       -0.06250
 BRILLOUIN|    21           0.00391       -0.43750       -0.18750        0.06250
 BRILLOUIN|    22           0.00391       -0.43750       -0.18750        0.18750
 BRILLOUIN|    23           0.00391       -0.43750       -0.18750        0.31250
 BRILLOUIN|    24           0.00391       -0.43750       -0.18750        0.43750
 BRILLOUIN|    25           0.00391       -0.43750       -0.06250       -0.43750
 BRILLOUIN|    26           0.00391       -0.43750       -0.06250       -0.31250
 BRILLOUIN|    27           0.00391       -0.43750       -0.06250       -0.18750
 BRILLOUIN|    28           0.00391       -0.43750       -0.06250       -0.06250
 BRILLOUIN|    29           0.00391       -0.43750       -0.06250        0.06250
 BRILLOUIN|    30           0.00391       -0.43750       -0.06250        0.18750
 BRILLOUIN|    31           0.00391       -0.43750       -0.06250        0.31250
 BRILLOUIN|    32           0.00391       -0.43750       -0.06250        0.43750
 BRILLOUIN|    33           0.00391       -0.43750        0.06250       -0.43750
 BRILLOUIN|    34           0.00391       -0.43750        0.06250       -0.31250
 BRILLOUIN|    35           0.00391       -0.43750        0.06250       -0.18750
 BRILLOUIN|    36           0.00391       -0.43750        0.06250       -0.06250
 BRILLOUIN|    37           0.00391       -0.43750        0.06250        0.06250
 BRILLOUIN|    38           0.00391       -0.43750        0.06250        0.18750
 BRILLOUIN|    39           0.00391       -0.43750        0.06250        0.31250
 BRILLOUIN|    40           0.00391       -0.43750        0.06250        0.43750
 BRILLOUIN|    41           0.00391       -0.43750        0.18750       -0.43750
 BRILLOUIN|    42           0.00391       -0.43750        0.18750       -0.31250
 BRILLOUIN|    43           0.00391       -0.43750        0.18750       -0.18750
 BRILLOUIN|    44           0.00391       -0.43750        0.18750       -0.06250
 BRILLOUIN|    45           0.00391       -0.43750        0.18750        0.06250
 BRILLOUIN|    46           0.00391       -0.43750        0.18750        0.18750
 BRILLOUIN|    47           0.00391       -0.43750        0.18750        0.31250
 BRILLOUIN|    48           0.00391       -0.43750        0.18750        0.43750
 BRILLOUIN|    49           0.00391       -0.43750        0.31250       -0.43750
 BRILLOUIN|    50           0.00391       -0.43750        0.31250       -0.31250
 BRILLOUIN|    51           0.00391       -0.43750        0.31250       -0.18750
 BRILLOUIN|    52           0.00391       -0.43750        0.31250       -0.06250
 BRILLOUIN|    53           0.00391       -0.43750        0.31250        0.06250
 BRILLOUIN|    54           0.00391       -0.43750        0.31250        0.18750
 BRILLOUIN|    55           0.00391       -0.43750        0.31250        0.31250
 BRILLOUIN|    56           0.00391       -0.43750        0.31250        0.43750
 BRILLOUIN|    57           0.00391       -0.43750        0.43750       -0.43750
 BRILLOUIN|    58           0.00391       -0.43750        0.43750       -0.31250
 BRILLOUIN|    59           0.00391       -0.43750        0.43750       -0.18750
 BRILLOUIN|    60           0.00391       -0.43750        0.43750       -0.06250
 BRILLOUIN|    61           0.00391       -0.43750        0.43750        0.06250
 BRILLOUIN|    62           0.00391       -0.43750        0.43750        0.18750
 BRILLOUIN|    63           0.00391       -0.43750        0.43750        0.31250
 BRILLOUIN|    64           0.00391       -0.43750        0.43750        0.43750
 BRILLOUIN|    65           0.00391       -0.31250       -0.43750       -0.43750
 BRILLOUIN|    66           0.00391       -0.31250       -0.43750       -0.31250
 BRILLOUIN|    67           0.00391       -0.31250       -0.43750       -0.18750
 BRILLOUIN|    68           0.00391       -0.31250       -0.43750       -0.06250
 BRILLOUIN|    69           0.00391       -0.31250       -0.43750        0.06250
 BRILLOUIN|    70           0.00391       -0.31250       -0.43750        0.18750
 BRILLOUIN|    71           0.00391       -0.31250       -0.43750        0.31250
 BRILLOUIN|    72           0.00391       -0.31250       -0.43750        0.43750
 BRILLOUIN|    73           0.00391       -0.31250       -0.31250       -0.43750
 BRILLOUIN|    74           0.00391       -0.31250       -0.31250       -0.31250
 BRILLOUIN|    75           0.00391       -0.31250       -0.31250       -0.18750
 BRILLOUIN|    76           0.00391       -0.31250       -0.31250       -0.06250
 BRILLOUIN|    77           0.00391       -0.31250       -0.31250        0.06250
 BRILLOUIN|    78           0.00391       -0.31250       -0.31250        0.18750
 BRILLOUIN|    79           0.00391       -0.31250       -0.31250        0.31250
 BRILLOUIN|    80           0.00391       -0.31250       -0.31250        0.43750
 BRILLOUIN|    81           0.00391       -0.31250       -0.18750       -0.43750
 BRILLOUIN|    82           0.00391       -0.31250       -0.18750       -0.31250
 BRILLOUIN|    83           0.00391       -0.31250       -0.18750       -0.18750
 BRILLOUIN|    84           0.00391       -0.31250       -0.18750       -0.06250
 BRILLOUIN|    85           0.00391       -0.31250       -0.18750        0.06250
 BRILLOUIN|    86           0.00391       -0.31250       -0.18750        0.18750
 BRILLOUIN|    87           0.00391       -0.31250       -0.18750        0.31250
 BRILLOUIN|    88           0.00391       -0.31250       -0.18750        0.43750
 BRILLOUIN|    89           0.00391       -0.31250       -0.06250       -0.43750
 BRILLOUIN|    90           0.00391       -0.31250       -0.06250       -0.31250
 BRILLOUIN|    91           0.00391       -0.31250       -0.06250       -0.18750
 BRILLOUIN|    92           0.00391       -0.31250       -0.06250       -0.06250
 BRILLOUIN|    93           0.00391       -0.31250       -0.06250        0.06250
 BRILLOUIN|    94           0.00391       -0.31250       -0.06250        0.18750
 BRILLOUIN|    95           0.00391       -0.31250       -0.06250        0.31250
 BRILLOUIN|    96           0.00391       -0.31250       -0.06250        0.43750
 BRILLOUIN|    97           0.00391       -0.31250        0.06250       -0.43750
 BRILLOUIN|    98           0.00391       -0.31250        0.06250       -0.31250
 BRILLOUIN|    99           0.00391       -0.31250        0.06250       -0.18750
 BRILLOUIN|   100           0.00391       -0.31250        0.06250       -0.06250
 BRILLOUIN|   101           0.00391       -0.31250        0.06250        0.06250
 BRILLOUIN|   102           0.00391       -0.31250        0.06250        0.18750
 BRILLOUIN|   103           0.00391       -0.31250        0.06250        0.31250
 BRILLOUIN|   104           0.00391       -0.31250        0.06250        0.43750
 BRILLOUIN|   105           0.00391       -0.31250        0.18750       -0.43750
 BRILLOUIN|   106           0.00391       -0.31250        0.18750       -0.31250
 BRILLOUIN|   107           0.00391       -0.31250        0.18750       -0.18750
 BRILLOUIN|   108           0.00391       -0.31250        0.18750       -0.06250
 BRILLOUIN|   109           0.00391       -0.31250        0.18750        0.06250
 BRILLOUIN|   110           0.00391       -0.31250        0.18750        0.18750
 BRILLOUIN|   111           0.00391       -0.31250        0.18750        0.31250
 BRILLOUIN|   112           0.00391       -0.31250        0.18750        0.43750
 BRILLOUIN|   113           0.00391       -0.31250        0.31250       -0.43750
 BRILLOUIN|   114           0.00391       -0.31250        0.31250       -0.31250
 BRILLOUIN|   115           0.00391       -0.31250        0.31250       -0.18750
 BRILLOUIN|   116           0.00391       -0.31250        0.31250       -0.06250
 BRILLOUIN|   117           0.00391       -0.31250        0.31250        0.06250
 BRILLOUIN|   118           0.00391       -0.31250        0.31250        0.18750
 BRILLOUIN|   119           0.00391       -0.31250        0.31250        0.31250
 BRILLOUIN|   120           0.00391       -0.31250        0.31250        0.43750
 BRILLOUIN|   121           0.00391       -0.31250        0.43750       -0.43750
 BRILLOUIN|   122           0.00391       -0.31250        0.43750       -0.31250
 BRILLOUIN|   123           0.00391       -0.31250        0.43750       -0.18750
 BRILLOUIN|   124           0.00391       -0.31250        0.43750       -0.06250
 BRILLOUIN|   125           0.00391       -0.31250        0.43750        0.06250
 BRILLOUIN|   126           0.00391       -0.31250        0.43750        0.18750
 BRILLOUIN|   127           0.00391       -0.31250        0.43750        0.31250
 BRILLOUIN|   128           0.00391       -0.31250        0.43750        0.43750
 BRILLOUIN|   129           0.00391       -0.18750       -0.43750       -0.43750
 BRILLOUIN|   130           0.00391       -0.18750       -0.43750       -0.31250
 BRILLOUIN|   131           0.00391       -0.18750       -0.43750       -0.18750
 BRILLOUIN|   132           0.00391       -0.18750       -0.43750       -0.06250
 BRILLOUIN|   133           0.00391       -0.18750       -0.43750        0.06250
 BRILLOUIN|   134           0.00391       -0.18750       -0.43750        0.18750
 BRILLOUIN|   135           0.00391       -0.18750       -0.43750        0.31250
 BRILLOUIN|   136           0.00391       -0.18750       -0.43750        0.43750
 BRILLOUIN|   137           0.00391       -0.18750       -0.31250       -0.43750
 BRILLOUIN|   138           0.00391       -0.18750       -0.31250       -0.31250
 BRILLOUIN|   139           0.00391       -0.18750       -0.31250       -0.18750
 BRILLOUIN|   140           0.00391       -0.18750       -0.31250       -0.06250
 BRILLOUIN|   141           0.00391       -0.18750       -0.31250        0.06250
 BRILLOUIN|   142           0.00391       -0.18750       -0.31250        0.18750
 BRILLOUIN|   143           0.00391       -0.18750       -0.31250        0.31250
 BRILLOUIN|   144           0.00391       -0.18750       -0.31250        0.43750
 BRILLOUIN|   145           0.00391       -0.18750       -0.18750       -0.43750
 BRILLOUIN|   146           0.00391       -0.18750       -0.18750       -0.31250
 BRILLOUIN|   147           0.00391       -0.18750       -0.18750       -0.18750
 BRILLOUIN|   148           0.00391       -0.18750       -0.18750       -0.06250
 BRILLOUIN|   149           0.00391       -0.18750       -0.18750        0.06250
 BRILLOUIN|   150           0.00391       -0.18750       -0.18750        0.18750
 BRILLOUIN|   151           0.00391       -0.18750       -0.18750        0.31250
 BRILLOUIN|   152           0.00391       -0.18750       -0.18750        0.43750
 BRILLOUIN|   153           0.00391       -0.18750       -0.06250       -0.43750
 BRILLOUIN|   154           0.00391       -0.18750       -0.06250       -0.31250
 BRILLOUIN|   155           0.00391       -0.18750       -0.06250       -0.18750
 BRILLOUIN|   156           0.00391       -0.18750       -0.06250       -0.06250
 BRILLOUIN|   157           0.00391       -0.18750       -0.06250        0.06250
 BRILLOUIN|   158           0.00391       -0.18750       -0.06250        0.18750
 BRILLOUIN|   159           0.00391       -0.18750       -0.06250        0.31250
 BRILLOUIN|   160           0.00391       -0.18750       -0.06250        0.43750
 BRILLOUIN|   161           0.00391       -0.18750        0.06250       -0.43750
 BRILLOUIN|   162           0.00391       -0.18750        0.06250       -0.31250
 BRILLOUIN|   163           0.00391       -0.18750        0.06250       -0.18750
 BRILLOUIN|   164           0.00391       -0.18750        0.06250       -0.06250
 BRILLOUIN|   165           0.00391       -0.18750        0.06250        0.06250
 BRILLOUIN|   166           0.00391       -0.18750        0.06250        0.18750
 BRILLOUIN|   167           0.00391       -0.18750        0.06250        0.31250
 BRILLOUIN|   168           0.00391       -0.18750        0.06250        0.43750
 BRILLOUIN|   169           0.00391       -0.18750        0.18750       -0.43750
 BRILLOUIN|   170           0.00391       -0.18750        0.18750       -0.31250
 BRILLOUIN|   171           0.00391       -0.18750        0.18750       -0.18750
 BRILLOUIN|   172           0.00391       -0.18750        0.18750       -0.06250
 BRILLOUIN|   173           0.00391       -0.18750        0.18750        0.06250
 BRILLOUIN|   174           0.00391       -0.18750        0.18750        0.18750
 BRILLOUIN|   175           0.00391       -0.18750        0.18750        0.31250
 BRILLOUIN|   176           0.00391       -0.18750        0.18750        0.43750
 BRILLOUIN|   177           0.00391       -0.18750        0.31250       -0.43750
 BRILLOUIN|   178           0.00391       -0.18750        0.31250       -0.31250
 BRILLOUIN|   179           0.00391       -0.18750        0.31250       -0.18750
 BRILLOUIN|   180           0.00391       -0.18750        0.31250       -0.06250
 BRILLOUIN|   181           0.00391       -0.18750        0.31250        0.06250
 BRILLOUIN|   182           0.00391       -0.18750        0.31250        0.18750
 BRILLOUIN|   183           0.00391       -0.18750        0.31250        0.31250
 BRILLOUIN|   184           0.00391       -0.18750        0.31250        0.43750
 BRILLOUIN|   185           0.00391       -0.18750        0.43750       -0.43750
 BRILLOUIN|   186           0.00391       -0.18750        0.43750       -0.31250
 BRILLOUIN|   187           0.00391       -0.18750        0.43750       -0.18750
 BRILLOUIN|   188           0.00391       -0.18750        0.43750       -0.06250
 BRILLOUIN|   189           0.00391       -0.18750        0.43750        0.06250
 BRILLOUIN|   190           0.00391       -0.18750        0.43750        0.18750
 BRILLOUIN|   191           0.00391       -0.18750        0.43750        0.31250
 BRILLOUIN|   192           0.00391       -0.18750        0.43750        0.43750
 BRILLOUIN|   193           0.00391       -0.06250       -0.43750       -0.43750
 BRILLOUIN|   194           0.00391       -0.06250       -0.43750       -0.31250
 BRILLOUIN|   195           0.00391       -0.06250       -0.43750       -0.18750
 BRILLOUIN|   196           0.00391       -0.06250       -0.43750       -0.06250
 BRILLOUIN|   197           0.00391       -0.06250       -0.43750        0.06250
 BRILLOUIN|   198           0.00391       -0.06250       -0.43750        0.18750
 BRILLOUIN|   199           0.00391       -0.06250       -0.43750        0.31250
 BRILLOUIN|   200           0.00391       -0.06250       -0.43750        0.43750
 BRILLOUIN|   201           0.00391       -0.06250       -0.31250       -0.43750
 BRILLOUIN|   202           0.00391       -0.06250       -0.31250       -0.31250
 BRILLOUIN|   203           0.00391       -0.06250       -0.31250       -0.18750
 BRILLOUIN|   204           0.00391       -0.06250       -0.31250       -0.06250
 BRILLOUIN|   205           0.00391       -0.06250       -0.31250        0.06250
 BRILLOUIN|   206           0.00391       -0.06250       -0.31250        0.18750
 BRILLOUIN|   207           0.00391       -0.06250       -0.31250        0.31250
 BRILLOUIN|   208           0.00391       -0.06250       -0.31250        0.43750
 BRILLOUIN|   209           0.00391       -0.06250       -0.18750       -0.43750
 BRILLOUIN|   210           0.00391       -0.06250       -0.18750       -0.31250
 BRILLOUIN|   211           0.00391       -0.06250       -0.18750       -0.18750
 BRILLOUIN|   212           0.00391       -0.06250       -0.18750       -0.06250
 BRILLOUIN|   213           0.00391       -0.06250       -0.18750        0.06250
 BRILLOUIN|   214           0.00391       -0.06250       -0.18750        0.18750
 BRILLOUIN|   215           0.00391       -0.06250       -0.18750        0.31250
 BRILLOUIN|   216           0.00391       -0.06250       -0.18750        0.43750
 BRILLOUIN|   217           0.00391       -0.06250       -0.06250       -0.43750
 BRILLOUIN|   218           0.00391       -0.06250       -0.06250       -0.31250
 BRILLOUIN|   219           0.00391       -0.06250       -0.06250       -0.18750
 BRILLOUIN|   220           0.00391       -0.06250       -0.06250       -0.06250
 BRILLOUIN|   221           0.00391       -0.06250       -0.06250        0.06250
 BRILLOUIN|   222           0.00391       -0.06250       -0.06250        0.18750
 BRILLOUIN|   223           0.00391       -0.06250       -0.06250        0.31250
 BRILLOUIN|   224           0.00391       -0.06250       -0.06250        0.43750
 BRILLOUIN|   225           0.00391       -0.06250        0.06250       -0.43750
 BRILLOUIN|   226           0.00391       -0.06250        0.06250       -0.31250
 BRILLOUIN|   227           0.00391       -0.06250        0.06250       -0.18750
 BRILLOUIN|   228           0.00391       -0.06250        0.06250       -0.06250
 BRILLOUIN|   229           0.00391       -0.06250        0.06250        0.06250
 BRILLOUIN|   230           0.00391       -0.06250        0.06250        0.18750
 BRILLOUIN|   231           0.00391       -0.06250        0.06250        0.31250
 BRILLOUIN|   232           0.00391       -0.06250        0.06250        0.43750
 BRILLOUIN|   233           0.00391       -0.06250        0.18750       -0.43750
 BRILLOUIN|   234           0.00391       -0.06250        0.18750       -0.31250
 BRILLOUIN|   235           0.00391       -0.06250        0.18750       -0.18750
 BRILLOUIN|   236           0.00391       -0.06250        0.18750       -0.06250
 BRILLOUIN|   237           0.00391       -0.06250        0.18750        0.06250
 BRILLOUIN|   238           0.00391       -0.06250        0.18750        0.18750
 BRILLOUIN|   239           0.00391       -0.06250        0.18750        0.31250
 BRILLOUIN|   240           0.00391       -0.06250        0.18750        0.43750
 BRILLOUIN|   241           0.00391       -0.06250        0.31250       -0.43750
 BRILLOUIN|   242           0.00391       -0.06250        0.31250       -0.31250
 BRILLOUIN|   243           0.00391       -0.06250        0.31250       -0.18750
 BRILLOUIN|   244           0.00391       -0.06250        0.31250       -0.06250
 BRILLOUIN|   245           0.00391       -0.06250        0.31250        0.06250
 BRILLOUIN|   246           0.00391       -0.06250        0.31250        0.18750
 BRILLOUIN|   247           0.00391       -0.06250        0.31250        0.31250
 BRILLOUIN|   248           0.00391       -0.06250        0.31250        0.43750
 BRILLOUIN|   249           0.00391       -0.06250        0.43750       -0.43750
 BRILLOUIN|   250           0.00391       -0.06250        0.43750       -0.31250
 BRILLOUIN|   251           0.00391       -0.06250        0.43750       -0.18750
 BRILLOUIN|   252           0.00391       -0.06250        0.43750       -0.06250
 BRILLOUIN|   253           0.00391       -0.06250        0.43750        0.06250
 BRILLOUIN|   254           0.00391       -0.06250        0.43750        0.18750
 BRILLOUIN|   255           0.00391       -0.06250        0.43750        0.31250
 BRILLOUIN|   256           0.00391       -0.06250        0.43750        0.43750
 *******************************************************************************

 *******************************************************************************
 *******************************************************************************
 **                                                                           **
 **     #####                         ##              ##                      **
 **    ##   ##            ##          ##              ##                      **
 **   ##     ##                       ##            ######                    **
 **   ##     ##  ##   ##  ##   #####  ##  ##   ####   ##    #####    #####    **
 **   ##     ##  ##   ##  ##  ##      ## ##   ##      ##   ##   ##  ##   ##   **
 **   ##  ## ##  ##   ##  ##  ##      ####     ###    ##   ######   ######    **
 **    ##  ###   ##   ##  ##  ##      ## ##      ##   ##   ##       ##        **
 **     #######   #####   ##   #####  ##  ##  ####    ##    #####   ##        **
 **           ##                                                    ##        **
 **                                                                           **
 **                                                ... make the atoms dance   **
 **                                                                           **
 **            Copyright (C) by CP2K developers group (2000-2025)             **
 **                      J. Chem. Phys. 152, 194103 (2020)                    **
 **                                                                           **
 *******************************************************************************

 DFT| Spin restricted Kohn-Sham (RKS) calculation                            RKS
 DFT| Multiplicity                                                             1
 DFT| Number of spin states                                                    1
 DFT| Charge                                                                   0
 DFT| Self-interaction correction (SIC)                                       NO
 DFT| Cutoffs: density                                              1.000000E-10
 DFT|          gradient                                             1.000000E-10
 DFT|          tau                                                  1.000000E-10
 DFT|          cutoff_smoothing_range                               0.000000E+00
 DFT| XC density smoothing                                                  NONE
 DFT| XC derivatives                                                          PW

 FUNCTIONAL| PBE:
 FUNCTIONAL| J.P.Perdew, K.Burke, M.Ernzerhof, Phys. Rev. Letter, vol. 77, n 18,
 FUNCTIONAL|  pp. 3865-3868, (1996) {spin unpolarized}                          


 QS| Method:                                                                 GPW
 QS| Density plane wave grid type                        NON-SPHERICAL FULLSPACE
 QS| Number of grid levels:                                                    4
 QS| Density cutoff [a.u.]:                                                500.0
 QS| Multi grid cutoff [a.u.]: 1) grid level                               500.0
 QS|                           2) grid level                               166.7
 QS|                           3) grid level                                55.6
 QS|                           4) grid level                                18.5
 QS| Grid level progression factor:                                          3.0
 QS| Relative density cutoff [a.u.]:                                        50.0
 QS| Interaction thresholds: eps_pgf_orb:                                1.0E-16
 QS|                         eps_filter_matrix:                          0.0E+00
 QS|                         eps_core_charge:                            1.0E-18
 QS|                         eps_rho_gspace:                             1.0E-16
 QS|                         eps_rho_rspace:                             1.0E-16
 QS|                         eps_gvg_rspace:                             1.0E-08
 QS|                         eps_ppl:                                    1.0E-02
 QS|                         eps_ppnl:                                   1.0E-10


 ATOMIC KIND INFORMATION

  1. Atomic kind: Be                                    Number of atoms:       2

     Orbital Basis Set                                   TZV2P-MOLOPT-GGA-GTH-q4

       Number of orbital shell sets:                                           1
       Number of orbital shells:                                               7
       Number of primitive Cartesian functions:                                6
       Number of Cartesian basis functions:                                   16
       Number of spherical basis functions:                                   15
       Norm type:                                                              2

       Normalised Cartesian orbitals:

                        Set   Shell   Orbital            Exponent    Coefficient

                          1       1    2s               15.020906      -0.768859
                                                         6.807405      -0.934865
                                                         2.108077      -0.487438
                                                         0.657533      -0.061945
                                                         0.214923      -0.039017
                                                         0.064375      -0.015005

                          1       2    3s               15.020906       0.338019
                                                         6.807405       0.445742
                                                         2.108077       0.393309
                                                         0.657533       0.061351
                                                         0.214923      -0.140821
                                                         0.064375      -0.046311

                          1       3    4s               15.020906      -0.483571
                                                         6.807405      -0.753408
                                                         2.108077       0.852162
                                                         0.657533      -0.742835
                                                         0.214923       0.062020
                                                         0.064375      -0.030099

                          1       4    5s               15.020906       0.489594
                                                         6.807405       0.658081
                                                         2.108077      -0.297613
                                                         0.657533       0.186431
                                                         0.214923       0.244157
                                                         0.064375      -0.120797

                          1       5    3px              15.020906       0.493134
                                                         6.807405      -0.293930
                                                         2.108077      -0.245399
                                                         0.657533      -0.232182
                                                         0.214923      -0.120962
                                                         0.064375      -0.012428
                          1       5    3py              15.020906       0.493134
                                                         6.807405      -0.293930
                                                         2.108077      -0.245399
                                                         0.657533      -0.232182
                                                         0.214923      -0.120962
                                                         0.064375      -0.012428
                          1       5    3pz              15.020906       0.493134
                                                         6.807405      -0.293930
                                                         2.108077      -0.245399
                                                         0.657533      -0.232182
                                                         0.214923      -0.120962
                                                         0.064375      -0.012428

                          1       6    4px              15.020906      -1.321477
                                                         6.807405      -1.074145
                                                         2.108077      -0.276638
                                                         0.657533      -0.861877
                                                         0.214923       0.061335
                                                         0.064375       0.020028
                          1       6    4py              15.020906      -1.321477
                                                         6.807405      -1.074145
                                                         2.108077      -0.276638
                                                         0.657533      -0.861877
                                                         0.214923       0.061335
                                                         0.064375       0.020028
                          1       6    4pz              15.020906      -1.321477
                                                         6.807405      -1.074145
                                                         2.108077      -0.276638
                                                         0.657533      -0.861877
                                                         0.214923       0.061335
                                                         0.064375       0.020028

                          1       7    4dx2             15.020906       0.046387
                                                         6.807405       0.905889
                                                         2.108077       0.085368
                                                         0.657533       0.367579
                                                         0.214923       0.066536
                                                         0.064375       0.001313
                          1       7    4dxy             15.020906       0.080344
                                                         6.807405       1.569046
                                                         2.108077       0.147862
                                                         0.657533       0.636666
                                                         0.214923       0.115244
                                                         0.064375       0.002274
                          1       7    4dxz             15.020906       0.080344
                                                         6.807405       1.569046
                                                         2.108077       0.147862
                                                         0.657533       0.636666
                                                         0.214923       0.115244
                                                         0.064375       0.002274
                          1       7    4dy2             15.020906       0.046387
                                                         6.807405       0.905889
                                                         2.108077       0.085368
                                                         0.657533       0.367579
                                                         0.214923       0.066536
                                                         0.064375       0.001313
                          1       7    4dyz             15.020906       0.080344
                                                         6.807405       1.569046
                                                         2.108077       0.147862
                                                         0.657533       0.636666
                                                         0.214923       0.115244
                                                         0.064375       0.002274
                          1       7    4dz2             15.020906       0.046387
                                                         6.807405       0.905889
                                                         2.108077       0.085368
                                                         0.657533       0.367579
                                                         0.214923       0.066536
                                                         0.064375       0.001313

       Atomic covalent radius [Angstrom]:                                  0.900

       Atomic van der Waals radius [Angstrom]:                             1.530

     GTH Potential information for                                    GTH-PBE-q4

       Description:                       Goedecker-Teter-Hutter pseudopotential
                                           Goedecker et al., PRB 54, 1703 (1996)
                                          Hartwigsen et al., PRB 58, 3641 (1998)
                                                      Krack, TCA 114, 145 (2005)

       Gaussian exponent of the core charge distribution:               4.733728
       Electronic configuration (s p d ...):                                   4

       Parameters of the local part of the GTH pseudopotential:

                          rloc        C1          C2          C3          C4
                        0.325000  -24.067467   17.279022   -3.339106    0.165549


 MOLECULE KIND INFORMATION


 All atoms are their own molecule, skipping detailed information


 TOTAL NUMBERS AND MAXIMUM NUMBERS

  Total number of            - Atomic kinds:                                   1
                             - Atoms:                                          2
                             - Shell sets:                                     2
                             - Shells:                                        14
                             - Primitive Cartesian functions:                 12
                             - Cartesian basis functions:                     32
                             - Spherical basis functions:                     30

  Maximum angular momentum of- Orbital basis functions:                        2
                             - Local part of the GTH pseudopotential:          6


 MODULE QUICKSTEP: ATOMIC COORDINATES IN ANGSTROM

   Atom Kind Element         X             Y             Z       Z(eff)     Mass
      1    1 Be    4      0.000000      0.000000      0.000000   4.0000   9.0122
      2    1 Be    4      1.131369      0.653196      1.786580   4.0000   9.0122



 SCF PARAMETERS         Density guess:                                    ATOMIC
                        --------------------------------------------------------
                        max_scf:                                             500
                        max_scf_history:                                       0
                        max_diis:                                              4
                        --------------------------------------------------------
                        eps_scf:                                        1.00E-09
                        eps_scf_history:                                0.00E+00
                        eps_diis:                                       1.00E-01
                        eps_eigval:                                     1.00E-05
                        --------------------------------------------------------
                        level_shift [a.u.]:                             0.000000
                        added MOs                                        26    0
                        --------------------------------------------------------
                        Mixing method:                            BROYDEN_MIXING
                                                charge density mixing in g-space
                        --------------------------------------------------------
                        Smear method:                                FERMI_DIRAC
                        Electronic temperature [K]:                        300.0
                        Electronic temperature [a.u.]:                  9.50E-04
                        Accuracy threshold:                             1.00E-10
                        --------------------------------------------------------
                        No outer SCF

 PW_GRID| Information for grid number                                          1
 PW_GRID| Grid distributed over                                     8 processors
 PW_GRID| Real space group dimensions                                     8    1
 PW_GRID| the grid is blocked:                                                NO
 PW_GRID| Cutoff [a.u.]                                                    500.0
 PW_GRID| spherical cutoff:                                                   NO
 PW_GRID|   Bounds   1            -22      22                Points:          45
 PW_GRID|   Bounds   2            -22      22                Points:          45
 PW_GRID|   Bounds   3            -36      35                Points:          72
 PW_GRID| Volume element (a.u.^3)  0.7333E-03     Volume (a.u.^3)       106.9194
 PW_GRID| Grid span                                                    FULLSPACE
 PW_GRID|   Distribution                         Average         Max         Min
 PW_GRID|   G-Vectors                            18225.0       18225       18225
 PW_GRID|   G-Rays                                 405.0         405         405
 PW_GRID|   Real Space Points                    18225.0       19440       16200

 PW_GRID| Information for grid number                                          2
 PW_GRID| Number of the reference grid                                         1
 PW_GRID| Grid distributed over                                     8 processors
 PW_GRID| Real space group dimensions                                     8    1
 PW_GRID| the grid is blocked:                                                NO
 PW_GRID| Cutoff [a.u.]                                                    166.7
 PW_GRID| spherical cutoff:                                                   NO
 PW_GRID|   Bounds   1            -12      12                Points:          25
 PW_GRID|   Bounds   2            -12      12                Points:          25
 PW_GRID|   Bounds   3            -20      19                Points:          40
 PW_GRID| Volume element (a.u.^3)  0.4277E-02     Volume (a.u.^3)       106.9194
 PW_GRID| Grid span                                                    FULLSPACE
 PW_GRID|   Distribution                         Average         Max         Min
 PW_GRID|   G-Vectors                             3125.0        3175        3050
 PW_GRID|   G-Rays                                 125.0         127         122
 PW_GRID|   Real Space Points                     3125.0        4000        3000

 PW_GRID| Information for grid number                                          3
 PW_GRID| Number of the reference grid                                         1
 PW_GRID| Grid distributed over                                     8 processors
 PW_GRID| Real space group dimensions                                     8    1
 PW_GRID| the grid is blocked:                                                NO
 PW_GRID| Cutoff [a.u.]                                                     55.6
 PW_GRID| spherical cutoff:                                                   NO
 PW_GRID|   Bounds   1             -7       7                Points:          15
 PW_GRID|   Bounds   2             -7       7                Points:          15
 PW_GRID|   Bounds   3            -12      11                Points:          24
 PW_GRID| Volume element (a.u.^3)  0.1980E-01     Volume (a.u.^3)       106.9194
 PW_GRID| Grid span                                                    FULLSPACE
 PW_GRID|   Distribution                         Average         Max         Min
 PW_GRID|   G-Vectors                              675.0         690         660
 PW_GRID|   G-Rays                                  45.0          46          44
 PW_GRID|   Real Space Points                      675.0         720         360

 PW_GRID| Information for grid number                                          4
 PW_GRID| Number of the reference grid                                         1
 PW_GRID| Grid distributed over                                     8 processors
 PW_GRID| Real space group dimensions                                     8    1
 PW_GRID| the grid is blocked:                                                NO
 PW_GRID| Cutoff [a.u.]                                                     18.5
 PW_GRID| spherical cutoff:                                                   NO
 PW_GRID|   Bounds   1             -4       4                Points:           9
 PW_GRID|   Bounds   2             -4       4                Points:           9
 PW_GRID|   Bounds   3             -7       7                Points:          15
 PW_GRID| Volume element (a.u.^3)  0.8800E-01     Volume (a.u.^3)       106.9194
 PW_GRID| Grid span                                                    FULLSPACE
 PW_GRID|   Distribution                         Average         Max         Min
 PW_GRID|   G-Vectors                              151.9         171         144
 PW_GRID|   G-Rays                                  16.9          19          16
 PW_GRID|   Real Space Points                      151.9         270         135

 POISSON| Solver                                                        PERIODIC
 POISSON| Periodicity                                                        XYZ

 RS_GRID| Information for grid number                                          1
 RS_GRID|   Bounds   1            -22      22                Points:          45
 RS_GRID|   Bounds   2            -22      22                Points:          45
 RS_GRID|   Bounds   3            -36      35                Points:          72
 RS_GRID| Real space fully replicated
 RS_GRID| Group size                                                           1

 RS_GRID| Information for grid number                                          2
 RS_GRID|   Bounds   1            -12      12                Points:          25
 RS_GRID|   Bounds   2            -12      12                Points:          25
 RS_GRID|   Bounds   3            -20      19                Points:          40
 RS_GRID| Real space fully replicated
 RS_GRID| Group size                                                           1

 RS_GRID| Information for grid number                                          3
 RS_GRID|   Bounds   1             -7       7                Points:          15
 RS_GRID|   Bounds   2             -7       7                Points:          15
 RS_GRID|   Bounds   3            -12      11                Points:          24
 RS_GRID| Real space fully replicated
 RS_GRID| Group size                                                           1

 RS_GRID| Information for grid number                                          4
 RS_GRID|   Bounds   1             -4       4                Points:           9
 RS_GRID|   Bounds   2             -4       4                Points:           9
 RS_GRID|   Bounds   3             -7       7                Points:          15
 RS_GRID| Real space fully replicated
 RS_GRID| Group size                                                           1

 Number of electrons:                                                          8
 Number of occupied orbitals:                                                  4
 Number of molecular orbitals:                                                30

 Number of orbital functions:                                                 30
 Number of independent orbital functions:                                     30

 Extrapolation method: initial_guess

 Atomic guess: The first density matrix is obtained in terms of atomic orbitals
               and electronic configurations assigned to each atomic kind

 Guess for atomic kind: Be

 Electronic structure
    Total number of core electrons                                          0.00
    Total number of valence electrons                                       4.00
    Total number of electrons                                               4.00
    Multiplicity                                                   not specified
    S      2.00  2.00


 *******************************************************************************
                  Iteration          Convergence                     Energy [au]
 *******************************************************************************
                          1        0.263126E-01                 -14.313372328985
                          2        0.256348E-02                 -14.313589331713
                          3        0.254334E-03                 -14.313592248892
                          4        0.922557E-06                 -14.313592287342

 Energy components [Hartree]           Total Energy ::          -14.313592287342
                                        Band Energy ::           -7.985458966903
                                     Kinetic Energy ::           12.877265174093
                                   Potential Energy ::          -27.190857461434
                                      Virial (-V/T) ::            2.111539763594
                                        Core Energy ::          -18.938435236308
                                          XC Energy ::           -2.486564315515
                                     Coulomb Energy ::            7.111407264482
                       Total Pseudopotential Energy ::          -31.863194058916
                       Local Pseudopotential Energy ::          -31.863194058916
                    Nonlocal Pseudopotential Energy ::            0.000000000000
                                        Confinement ::            0.474936485152

 Orbital energies  State     L     Occupation   Energy[a.u.]          Energy[eV]

                       1     0          2.000      -3.820876         -103.971311
                       2     0          2.000      -0.171854           -4.676384


 Total Electron Density at R=0:                                        13.783712
 Re-scaling the density matrix to get the right number of electrons
                  # Electrons              Trace(P)               Scaling factor
                            8                 8.000                        1.000


 SCF WAVEFUNCTION OPTIMIZATION

  Step     Update method      Time    Convergence         Total energy    Change
  ------------------------------------------------------------------------------
     1 NoMix/Diag. 0.10E+00   12.5     2.04969289       -30.0031830799 -3.00E+01
     2 Broy./Diag. 0.10E+00   13.1     0.00516387       -29.3515137945  6.52E-01
     3 Broy./Diag. 0.10E+00   13.1     0.04848513       -29.3238298725  2.77E-02
     4 Broy./Diag. 0.10E+00   13.2     0.00006103       -29.3193053840  4.52E-03
     5 Broy./Diag. 0.10E+00   13.0     0.00494060       -29.3292911387 -9.99E-03
     6 Broy./Diag. 0.10E+00   13.1     0.00005726       -29.3307944721 -1.50E-03
     7 Broy./Diag. 0.10E+00   13.1     0.00021683       -29.3314456969 -6.51E-04
     8 Broy./Diag. 0.10E+00   13.2     0.00000187       -29.3314668838 -2.12E-05
     9 Broy./Diag. 0.10E+00   13.1     0.00002283       -29.3314181199  4.88E-05
    10 Broy./Diag. 0.10E+00   13.2     0.00000031       -29.3314153023  2.82E-06
    11 Broy./Diag. 0.10E+00   13.2     0.00000205       -29.3314157692 -4.67E-07
    12 Broy./Diag. 0.10E+00   13.1     0.00000002       -29.3314157445  2.47E-08
    13 Broy./Diag. 0.10E+00   13.1     0.00000048       -29.3314174351 -1.69E-06
    14 Broy./Diag. 0.10E+00   13.1     0.00000003       -29.3314176206 -1.86E-07
    15 Broy./Diag. 0.10E+00   13.2     0.00000004       -29.3314176781 -5.76E-08
    16 Broy./Diag. 0.10E+00   13.0     5.6074E-09       -29.3314176919 -1.37E-08
    17 Broy./Diag. 0.10E+00   13.1     8.4878E-10       -29.3314177014 -9.53E-09

  *** SCF run converged in    17 steps ***


  Electronic density on regular grids:         -8.0000000000        0.0000000000
  Core density on regular grids:                8.0000000000        0.0000000000
  Total charge density on r-space grids:        0.0000000000
  Total charge density g-space grids:           0.0000000000

  Overlap energy of the core charge distribution:               0.00000000000000
  Self energy of the core charge distribution:                -27.77548719004339
  Core Hamiltonian energy:                                      0.97763428469964
  Hartree energy:                                               3.16909790184560
  Exchange-correlation energy:                                 -5.70263388174751
  Electronic entropic energy:                                  -0.00002881616211
  Fermi energy:                                                 0.26131479018960

  Total energy:                                               -29.33141770140800

 !-----------------------------------------------------------------------------!
                     Mulliken Population Analysis

 #  Atom  Element  Kind  Atomic population                           Net charge
       1     Be       1          4.000000                              0.000000
       2     Be       1          4.000000                              0.000000
 # Total charge                              8.000000                  0.000000

 !-----------------------------------------------------------------------------!

 !-----------------------------------------------------------------------------!
                           Hirshfeld Charges

  #Atom  Element  Kind  Ref Charge     Population                    Net charge
      1       Be     1       4.000          4.000                         0.000
      2       Be     1       4.000          4.000                         0.000

  Total Charge                                                            0.000
 !-----------------------------------------------------------------------------!

 KPOINTS| Band Structure Calculation
 KPOINTS| Number of k-point sets                                               1
 KPOINTS| Number of added MOs/bands                                           -1
 KPOINTS| Number of k-points in set    1                                     148
 KPOINTS| In units of b-vector [2pi/Bohr]
 KPOINTS| Special point     1 not specifi     0.000000     0.000000     0.000000
 KPOINTS| Special point     2 not specifi     0.500000     0.000000     0.000000
 KPOINTS| Special point     3 not specifi     0.333333     0.333333     0.000000
 KPOINTS| Special point     4 not specifi     0.000000     0.000000     0.000000
 KPOINTS| Time for k-point line                                            4.804

 ENERGY| Total FORCE_EVAL ( QS ) energy [hartree]            -29.331417701408004

 -------------------------------------------------------------------------------
 -                                                                             -
 -                                DBCSR STATISTICS                             -
 -                                                                             -
 -------------------------------------------------------------------------------
 COUNTER                                    TOTAL       BLAS       SMM       ACC
 flops inhomo. stacks                           0       0.0%      0.0%      0.0%
 flops total                         0.000000E+00       0.0%      0.0%      0.0%
 flops max/rank                      0.000000E+00       0.0%      0.0%      0.0%
 matmuls inhomo. stacks                         0       0.0%      0.0%      0.0%
 matmuls total                                  0       0.0%      0.0%      0.0%
 number of processed stacks                     0       0.0%      0.0%      0.0%
 average stack size                                     0.0       0.0       0.0
 marketing flops                     0.000000E+00
 -------------------------------------------------------------------------------
 -                                                                             -
 -                      DBCSR MESSAGE PASSING PERFORMANCE                      -
 -                                                                             -
 -------------------------------------------------------------------------------
 ROUTINE             CALLS      AVE VOLUME [Bytes]
 MP_Bcast                1                     12.
 MP_Allreduce           19                     21.
 MP_Alltoall        423316                   1600.
 -------------------------------------------------------------------------------

 -------------------------------------------------------------------------------
 -                                                                             -
 -                                DBM STATISTICS                               -
 -                                                                             -
 -------------------------------------------------------------------------------
    M  x    N  x    K                                          COUNT     PERCENT
 -------------------------------------------------------------------------------

 -------------------------------------------------------------------------------
 -                                                                             -
 -                                GRID STATISTICS                              -
 -                                                                             -
 -------------------------------------------------------------------------------
 LP    KERNEL             BACKEND                              COUNT     PERCENT
 4     collocate general  CPU                                 654624      51.43%
 4     integrate general  CPU                                 618256      48.57%
 0     collocate general  CPU                                      4       0.00%
 0     integrate general  CPU                                      2       0.00%
 -------------------------------------------------------------------------------

 MEMORY| Estimated peak process memory [MiB]                                 413

 -------------------------------------------------------------------------------
 ----                             MULTIGRID INFO                            ----
 -------------------------------------------------------------------------------
 count for grid        1:          44108          cutoff [a.u.]          500.00
 count for grid        2:          18916          cutoff [a.u.]          166.67
 count for grid        3:          20458          cutoff [a.u.]           55.56
 count for grid        4:          31122          cutoff [a.u.]           18.52
 total gridlevel count  :         114604

 -------------------------------------------------------------------------------
 -                                                                             -
 -                         MESSAGE PASSING PERFORMANCE                         -
 -                                                                             -
 -------------------------------------------------------------------------------

 ROUTINE             CALLS      AVE VOLUME [Bytes]
 MP_Group                6
 MP_Bcast           161312                  26854.
 MP_Allreduce       240617                     13.
 MP_Sync                 4
 MP_Alltoall           311                 826673.
 MP_SendRecv           518                  51743.
 MP_ISendRecv          483                  50406.
 MP_Wait            110711
 MP_comm_split           4
 MP_ISend           117644                    235.
 MP_IRecv           187520                    144.
 -------------------------------------------------------------------------------


 -------------------------------------------------------------------------------
 -                                                                             -
 -                           R E F E R E N C E S                               -
 -                                                                             -
 -------------------------------------------------------------------------------
 
 CP2K version 2025.1 (Development Version), the CP2K developers group (2025).
 CP2K is freely available from https://www.cp2k.org/ .
 
 T. D. Kuehne, M. Iannuzzi, M. Del Ben, V. V. Rybkin, P. Seewald, F. Stein, T. 
 Laino, R. Z. Khaliullin, O. Schuett, F. Schiffmann, D. Golze, J. Wilhelm, S. 
 Chulkov, M. H. Bani-Hashemian, V. Weber, U. Borstnik, M. Taillefumier, A. S. 
 Jakobovits, A. Lazzaro, H. Pabst, T. Mueller, R. Schade, M. Guidon, S. 
 Andermatt, N. Holmberg, G. K. Schenter, A. Hehn, A. Bussy, F. Belleflamme, G. 
 Tabacchi, A. Gloess, M. Lass, I. Bethune, C. J. Mundy, C. Plessl, M. Watkins, 
 J. VandeVondele, M. Krack, J. Hutter.
 J. Chem. Phys. 152, 194103 (2020).
 CP2K: An electronic structure and molecular dynamics software package - 
 Quickstep: Efficient and accurate electronic structure calculations.
 https://doi.org/10.1063/5.0007045

 O. Schuett, P. Messmer, J. Hutter, J. VandeVondele.
 Electronic Structure Calculations on Graphics Processing Units, 173-190 (2016).
 GPU-Accelerated Sparse Matrix-Matrix Multiplication for Linear Scaling Density 
 Functional Theory.
 https://doi.org/10.1002/9781118670712.ch8

 J. Hutter, M. Iannuzzi, F. Schiffmann, J. VandeVondele.
 WIREs Comput Mol Sci. 4, 15-25 (2014).
 CP2K: atomistic simulations of condensed matter systems.
 https://doi.org/10.1002/wcms.1159

 U. Borstnik, J. VandeVondele, V. Weber, J. Hutter.
 Parallel Comput. 40, 47-58 (2014).
 Sparse matrix multiplication: The distributed block-compressed sparse row 
 library.
 https://doi.org/10.1016/j.parco.2014.03.012

 J. VandeVondele, J. Hutter.
 J. Chem. Phys. 127, 114105 (2007).
 Gaussian basis sets for accurate calculations on molecular systems in gas and 
 condensed phases.
 https://doi.org/10.1063/1.2770708

 J. VandeVondele, M. Krack, F. Mohamed, M. Parrinello, T. Chassaing, J. Hutter.
 Comput. Phys. Commun. 167, 103-128 (2005).
 QUICKSTEP: Fast and accurate density functional calculations using a mixed 
 Gaussian and plane waves approach.
 https://doi.org/10.1016/j.cpc.2004.12.014

 M. Krack.
 Theor. Chem. Acc. 114, 145-152 (2005).
 Pseudopotentials for H to Kr optimized for gradient-corrected 
 exchange-correlation functionals.
 https://doi.org/10.1007/s00214-005-0655-y

 M. Frigo, S. G. Johnson.
 Proc. IEEE 93, 216-231 (2005).
 The design and implementation of FFTW3.
 https://doi.org/10.1109/JPROC.2004.840301

 C. Hartwigsen, S. Goedecker, J. Hutter.
 Phys. Rev. B 58, 3641-3662 (1998).
 Relativistic separable dual-space Gaussian pseudopotentials from H to Rn.
 https://doi.org/10.1103/PhysRevB.58.3641

 G. Lippert, J. Hutter, M. Parrinello.
 Mol. Phys. 92, 477-487 (1997).
 A hybrid Gaussian and plane wave density functional scheme.
 https://doi.org/10.1080/002689797170220

 S. Goedecker, M. Teter, J. Hutter.
 Phys. Rev. B 54, 1703-1710 (1996).
 Separable dual-space Gaussian pseudopotentials.
 https://doi.org/10.1103/PhysRevB.54.1703

 J. P. Perdew, K. Burke, M. Ernzerhof.
 Phys. Rev. Lett. 77, 3865-3868 (1996).
 Generalized gradient approximation made simple.
 https://doi.org/10.1103/PhysRevLett.77.3865


 -------------------------------------------------------------------------------
 -                                                                             -
 -                                T I M I N G                                  -
 -                                                                             -
 -------------------------------------------------------------------------------
 SUBROUTINE                       CALLS  ASD         SELF TIME        TOTAL TIME
                                MAXIMUM       AVERAGE  MAXIMUM  AVERAGE  MAXIMUM
 CP2K                                 1  1.0    0.032    0.034  246.283  246.283
 qs_energies                          1  2.0    0.017    0.030  245.101  245.112
 scf_env_do_scf                       1  3.0    0.000    0.000  226.525  226.525
 scf_env_do_scf_inner_loop           17  4.0    0.069    0.074  226.524  226.525
 do_general_diag_kp                  18  5.8    0.098    0.119  209.036  211.345
 qs_scf_new_mos_kp                   17  5.0    0.000    0.000  204.333  206.635
 mp_alltoall_i22                  72102  8.7  160.088  197.011  160.088  197.011
 dbcsr_desymmetrize_deep          40699  7.4    0.589    0.666  118.897  145.265
 rskp_transform                    9000  6.9   23.844  128.193   23.844  128.193
 dbcsr_complete_redistribute      31403  8.1    0.949    1.090   53.343   63.744
 kpoint_density_transform            17  7.0    0.082    0.090   57.804   57.979
 copy_fm_to_dbcsr                  8704  8.0    0.050    0.057   46.556   56.829
 transform_dmat                    4352  8.0   10.304   54.507   10.304   54.507
 transfer_rs2pw                      74  8.0    0.001    0.001   14.240   17.526
 transfer_rs2pw_500                  20  8.8    0.010    0.012   14.227   17.514
 mp_sendrecv_dv                     518 10.0   14.225   17.513   14.225   17.513
 qs_ks_update_qs_env                 17  5.0    0.000    0.000    5.613   15.802
 rebuild_ks_matrix                   17  6.0    0.000    0.000    3.352   13.542
 qs_ks_build_kohn_sham_matrix        17  7.0    0.129    0.135    3.352   13.541
 sum_up_and_integrate                17  8.0    0.000    0.000    2.479   12.584
 integrate_v_rspace                  17  9.0    0.041    0.215    2.479   12.584
 grid_integrate_task_list            17 10.0    2.302   12.318    2.302   12.318
 cp_dbcsr_alloc_block_from_nbl    32997  5.0    2.316   11.857    2.381   12.048
 qs_rho_update_rho_low               18  5.0    0.000    0.000   11.915   11.946
 calculate_rho_elec                  18  6.0    0.006    0.018   11.915   11.946
 density_rs2pw                       18  7.0    0.001    0.001    9.705   11.927
 grid_collocate_task_list            18  7.0    2.203   11.745    2.203   11.745
 copy_dbcsr_to_fm                 22699  6.7    0.222    0.246   10.853   10.993
 qs_energies_init_hamiltonians        1  3.0    0.000    0.000    7.777    7.777
 mp_sum_d                        160317  9.0    5.223    6.282    5.223    6.282
 build_core_hamiltonian_matrix        1  4.0    0.017    0.017    1.289    5.854
 qs_env_update_s_mstruct              1  4.0    0.000    0.000    4.956    5.683
 calculate_rho_core                   1  5.0    0.000    0.001    4.572    5.634
 dbcsr_dot                       159767  8.0    0.642    0.808    4.879    5.548
 init_scf_run                         1  3.0    0.000    0.000    3.428    4.094
 scf_env_initial_rho_setup            1  4.0    0.000    0.000    3.428    4.094
 mixing_allocate                      1  3.0    0.027    0.027    0.763    3.497
 calculate_first_density_matrix       1  5.0    0.003    0.003    2.747    3.413
 calculate_atomic_block_dm            1  6.0    0.001    0.001    2.738    3.404
 write_kpoints_restart               17  5.0    0.031    0.034    3.294    3.294
 dbcsr_finalize                  147494  7.3    0.369    0.406    2.525    2.718
 mp_alltoall_d11v                216306  9.2    2.140    2.278    2.140    2.278
 evaluate_core_matrix_traces         17  6.0    0.000    0.000    2.261    2.261
 calculate_ptrace_kp                 34  7.0    0.116    0.120    2.260    2.260
 cp_fm_start_copy_general         26704  7.3    0.306    0.486    2.106    2.160
 mp_cart_sub                      45400  8.7    1.934    1.953    1.934    1.953
 build_overlap_matrix_low             1  5.0    0.037    0.066    0.388    1.791
 build_kinetic_matrix_low             1  5.0    0.036    0.065    0.387    1.789
 calculate_ecore_overlap              1  4.0    0.000    0.000    1.445    1.781
 qs_env_rebuild_rho                   1  5.0    0.000    0.000    0.369    1.749
 qs_rho_rebuild                       1  6.0    0.013    0.014    0.369    1.749
 mp_sum_iv                           24  5.3    1.381    1.701    1.381    1.701
 qs_scf_ensure_work_matrices          1  3.0    0.000    0.000    1.381    1.701
 dbcsr_copy                      173169  6.6    0.971    1.104    1.403    1.680
 dbcsr_merge_all                  31403 10.1    0.948    1.072    1.443    1.540
 hybrid_alltoall_any              40699  8.4    0.158    0.170    1.407    1.513
 mp_alltoall_i11v                134908  8.9    1.342    1.376    1.342    1.376
 self_consistency_check              17  5.0    0.111    0.114    1.319    1.360
 cp_sm_mix                        79883  6.0    0.202    0.302    1.101    1.151
 cp_fm_write_unformatted           4699  6.0    0.913    1.093    0.920    1.124
 mp_cart_create                   22706  8.7    1.058    1.099    1.058    1.099
 dbcsr_create_new                296287  7.5    0.761    0.832    0.942    1.023
 create_qs_kind_set                   1  2.0    0.000    0.000    1.013    1.013
 read_qs_kind                         1  3.0    0.611    0.614    1.013    1.013
 mp_allgather_i                   53408  8.3    0.830    0.931    0.830    0.931
 dbcsr_iterator_start            446764  8.6    0.710    0.756    0.818    0.855
 mp_max_d                         79885  7.0    0.705    0.784    0.705    0.784
 mp_bcast_iv                     106970  8.3    0.659    0.760    0.659    0.760
 dbcsr_work_create                72102  8.7    0.434    0.461    0.652    0.739
 dbcsr_iterator_stop             446764  8.6    0.466    0.473    0.555    0.563
 dbcsr_data_new                  819276  9.4    0.400    0.544    0.400    0.544
 dbcsr_work_destroy_all           72102  9.7    0.345    0.350    0.521    0.527
 copy_dbcsr_to_fm_bc              22699  7.7    0.209    0.222    0.473    0.489
 parser_read_line                133884  4.0    0.044    0.047    0.457    0.460
 dbcsr_data_release             1347438  9.7    0.414    0.431    0.414    0.431
 tree_to_linear_d                 31403 11.1    0.370    0.417    0.370    0.417
 parser_read_line_low               153  5.2    0.048    0.204    0.413    0.417
 copy_fm_to_dbcsr_bc               8704  9.0    0.110    0.127    0.367    0.417
 cp_cfm_geeig_canon                 581  6.8    0.003    0.004    0.385    0.396
 broadcast_input_information        153  6.2    0.099    0.101    0.365    0.392
 build_core_ppl                       1  5.0    0.075    0.390    0.075    0.390
 dbcsr_destroy                   136521  6.8    0.210    0.228    0.352    0.381
 dbcsr_set                       237432  7.0    0.202    0.209    0.298    0.369
 cp_cfm_heevd                      1162  7.8    0.001    0.001    0.358    0.369
 cp_cfm_heevd_base                 1162  8.8    0.357    0.367    0.357    0.367
 dbcsr_copy_into_existing         13403  8.6    0.100    0.222    0.174    0.300
 fft_wrap_pw1pw2                    311 10.0    0.002    0.002    0.234    0.272
 fft_wrap_pw1pw2_500                206 11.3    0.007    0.008    0.216    0.254
 fft3d_ps                           311 12.0    0.042    0.045    0.211    0.248
 mp_bcast_im                      53408  8.3    0.208    0.238    0.208    0.238
 quick_finalize                   40699  9.4    0.103    0.134    0.169    0.232
 dbcsr_reserve_blocks             41701  7.1    0.071    0.187    0.085    0.219
 mp_alltoall_z22v                   311 14.0    0.153    0.193    0.153    0.193
 kpoint_set_mo_occupation            17  7.0    0.165    0.166    0.177    0.182
 mp_bcast_i_src                     612  7.2    0.154    0.181    0.154    0.181
 mp_waitall_1                    110711  8.3    0.078    0.174    0.078    0.174
 mp_comm_free                     68142  8.7    0.152    0.173    0.152    0.173
 potential_pw2rs                     17 10.0    0.001    0.001    0.135    0.171
 kpoint_init_cell_index               2  3.5    0.118    0.151    0.159    0.161
 dbcsr_zero                      237432  8.0    0.096    0.161    0.096    0.161
 yz_to_x                            141 12.8    0.004    0.005    0.119    0.158
 dbcsr_iterator_seek             446764  9.6    0.107    0.137    0.107    0.137
 dbcsr_make_index_exist          296287  8.5    0.120    0.134    0.120    0.134
 mp_bcast_am_src                    153  7.2    0.100    0.108    0.110    0.115
 dbcsr_sort_indices              113803 10.3    0.057    0.106    0.057    0.106
 qs_vxc_create                       17  8.0    0.000    0.000    0.096    0.096
 xc_vxc_pw_create                    17  9.0    0.003    0.004    0.096    0.096
 cp_fm_finish_copy_general        11028  7.7    0.047    0.058    0.062    0.081
 qs_create_task_list                  1  5.0    0.000    0.000    0.015    0.081
 generate_qs_task_list                1  6.0    0.011    0.059    0.015    0.081
 merge_index                      31403 11.1    0.064    0.071    0.064    0.071
 kpoint_density_matrices             17  7.0    0.005    0.005    0.064    0.066
 xc_pw_derive                       102 11.0    0.000    0.000    0.063    0.065
 topology_control                     1  2.0    0.000    0.000    0.061    0.061
 parallel_gemm_fm                  2176  8.0    0.002    0.002    0.058    0.060
 parallel_gemm_fm_gemm             2176  9.0    0.002    0.002    0.056    0.058
 dbcsr_reserve_all_blocks          8704 10.0    0.013    0.016    0.045    0.058
 cp_fm_gemm                        2176 10.0    0.054    0.056    0.054    0.056
 mp_irecv_iv                     106816  8.3    0.007    0.055    0.007    0.055
 gspace_mixing                       16  5.0    0.002    0.002    0.051    0.051
 mp_max_iv                            2  4.5    0.041    0.051    0.041    0.051
 dbcsr_switch_data_area           40699 10.4    0.037    0.039    0.048    0.050
 xc_rho_set_and_dset_create          17 10.0    0.004    0.004    0.048    0.049
 x_to_yz                            170 13.2    0.009    0.010    0.047    0.048
 mp_comm_size                    160533  9.0    0.039    0.046    0.039    0.046
 xc_pw_divergence                    17 10.0    0.000    0.000    0.043    0.044
 mp_isend_dv                      27296  8.2    0.039    0.043    0.039    0.043
 read_cell_cif                        2  4.5    0.002    0.004    0.041    0.042
 cp_fm_cleanup_copy_general       19088  7.0    0.023    0.025    0.036    0.040
 scf_post_calculation_gpw             1  3.0    0.000    0.000    0.040    0.040
 write_available_results              1  4.0    0.000    0.000    0.040    0.040
 write_mo_free_results                1  5.0    0.001    0.001    0.040    0.040
 mp_comm_rank                    160533  9.0    0.036    0.040    0.036    0.040
 broyden_mixing                      16  6.0    0.035    0.037    0.037    0.038
 coordinate_control                   1  3.0    0.000    0.001    0.037    0.037
 coordinate_control_READ_COORDI       1  4.0    0.000    0.000    0.037    0.037
 read_coordinate_cif                  1  5.0    0.002    0.002    0.037    0.037
 mp_isend_iv                      60232  8.3    0.010    0.037    0.010    0.037
 transfer_pw2rs                      69 10.9    0.000    0.000    0.032    0.032
 mp_sum_dv                          312  3.2    0.020    0.031    0.020    0.031
 mp_recv_dv                       14097  7.0    0.004    0.031    0.004    0.031
 dbcsr_distribution_new           31405  8.3    0.022    0.028    0.022    0.028
 dbcsr_make_dbcsr_index          113803 10.5    0.023    0.027    0.023    0.027
 mp_irecv_im2                     53408  8.3    0.003    0.026    0.003    0.026
 dbcsr_get_data_size_used         72102  9.7    0.023    0.026    0.023    0.026
 scf_env_cleanup                      1  3.0    0.007    0.007    0.021    0.025
 -------------------------------------------------------------------------------

 The number of warnings for this run is : 1
 
 -------------------------------------------------------------------------------
  **** **** ******  **  PROGRAM ENDED AT                 2025-08-04 02:43:27.066
 ***** ** ***  *** **   PROGRAM RAN ON                              i03r10c04s10
 **    ****   ******    PROGRAM RAN BY                                   di38fab
 ***** **    ** ** **   PROGRAM PROCESS ID                               1026192
  **** **  *******  **  PROGRAM STOPPED IN /hppfs/scratch/04/di38fab/09_GTH/Delt
                                           a_Set/Be/TZV2P-MOLOPT-PBE-GTH/8x8x8
