 DBCSR| CPU Multiplication driver                                           BLAS (U)
 DBCSR| Multrec recursion limit                                              512 (U)
 DBCSR| Multiplication stack size                                           1000 (D)
 DBCSR| Maximum elements for images                                    UNLIMITED (U)
 DBCSR| Multiplicative factor virtual images                                   1 (U)
 DBCSR| Use multiplication densification                                       T (D)
 DBCSR| Multiplication size stacks                                             3 (U)
 DBCSR| Use memory pool for CPU allocation                                     F (U)
 DBCSR| Number of 3D layers                                               SINGLE (U)
 DBCSR| Use MPI memory allocation                                              F (U)
 DBCSR| Use RMA algorithm                                                      F (U)
 DBCSR| Use Communication thread                                               T (U)
 DBCSR| Communication thread load                                             45 (D)
 DBCSR| MPI: My process id                                                     0
 DBCSR| MPI: Number of processes                                               8
 DBCSR| OMP: Current number of threads                                        12
 DBCSR| OMP: Max number of threads                                            12
 DBCSR| Split modifier for TAS multiplication algorithm                  1.0E+00 (U)


  **** **** ******  **  PROGRAM STARTED AT               2025-08-07 23:33:40.388
 ***** ** ***  *** **   PROGRAM STARTED ON                          i04r07c05s05
 **    ****   ******    PROGRAM STARTED BY                               di38fab
 ***** **    ** ** **   PROGRAM PROCESS ID                               1254252
  **** **  *******  **  PROGRAM STARTED IN /hppfs/scratch/04/di38fab/09_GTH/Delt
                                           a_Set/Hg/aug-SZV-MOLOPT-GTH-tier-2/8x
                                           8x8

 CP2K| version string:                 CP2K version 2025.1 (Development Version)
 CP2K| source code revision number:                                  git:3130539
 CP2K| cp2kflags: omp libint fftw3 libxc parallel scalapack max_contr=4         
 CP2K| is freely available from                            https://www.cp2k.org/
 CP2K| Program compiled at                         Tue Jun  3 16:14:32 CEST 2025
 CP2K| Program compiled on                                               login01
 CP2K| Program compiled for                                        Supermuc-foss
 CP2K| Data directory path                  /hppfs/work/pn36zo/di38fab/cp2k/data
 CP2K| Input file name                                                    GW.inp

 GLOBAL| Force Environment number                                              1
 GLOBAL| Basis set file name            /hppfs/scratch/04/di38fab/09_GTH/BASIS_A
 GLOBAL| Potential file name            /hppfs/work/pn36zo/di38fab/cp2k/data/GTH
 GLOBAL| MM Potential file name                                     MM_POTENTIAL
 GLOBAL| Coordinate file name                                             Hg.cif
 GLOBAL| Method name                                                        CP2K
 GLOBAL| Project name                                                       WSe2
 GLOBAL| Run type                                                         ENERGY
 GLOBAL| FFT library                                                       FFTW3
 GLOBAL| Diagonalization library                                       ScaLAPACK
 GLOBAL| Cholesky decomposition library                                ScaLAPACK
 GLOBAL| DGEMM library                                                      BLAS
 GLOBAL| Orthonormality check for eigenvectors                          DISABLED
 GLOBAL| Matrix multiplication library                                 ScaLAPACK
 GLOBAL| All-to-all communication in single precision                          F
 GLOBAL| FFTs using library dependent lengths                                  F
 GLOBAL| Grid backend                                                       AUTO
 GLOBAL| Global print level                                               MEDIUM
 GLOBAL| MPI I/O enabled                                                       T
 GLOBAL| Total number of message passing processes                             8
 GLOBAL| Number of threads for this process                                   12
 GLOBAL| This output is from process                                           0
 GLOBAL| OpenMP stack size per thread (OMP_STACKSIZE)                    default
 GLOBAL| CPU model name             Intel(R) Xeon(R) Platinum 8174 CPU @ 3.10GHz

 MEMORY| system memory details [Kb]
 MEMORY|                        rank 0           min           max       average
 MEMORY| MemTotal             98436664      98436664      98436664      98436664
 MEMORY| MemFree              84638472      84638472      84680584      84659528
 MEMORY| Buffers                     0             0             0             0
 MEMORY| Cached                2408924       2392832       2408924       2400878
 MEMORY| Slab                  1270620       1270620       1273168       1271894
 MEMORY| SReclaimable           278552        273756        278552        276154
 MEMORY| MemLikelyFree        87325948      87325948      87347172      87336560


 *** Fundamental physical constants (SI units) ***

 *** Literature: B. J. Mohr and B. N. Taylor,
 ***             CODATA recommended values of the fundamental physical
 ***             constants: 2006, Web Version 5.1
 ***             http://physics.nist.gov/constants

 Speed of light in vacuum [m/s]                             2.99792458000000E+08
 Magnetic constant or permeability of vacuum [N/A**2]       1.25663706143592E-06
 Electric constant or permittivity of vacuum [F/m]          8.85418781762039E-12
 Planck constant (h) [J*s]                                  6.62606896000000E-34
 Planck constant (h-bar) [J*s]                              1.05457162825177E-34
 Elementary charge [C]                                      1.60217648700000E-19
 Electron mass [kg]                                         9.10938215000000E-31
 Electron g factor [ ]                                     -2.00231930436220E+00
 Proton mass [kg]                                           1.67262163700000E-27
 Fine-structure constant                                    7.29735253760000E-03
 Rydberg constant [1/m]                                     1.09737315685270E+07
 Avogadro constant [1/mol]                                  6.02214179000000E+23
 Boltzmann constant [J/K]                                   1.38065040000000E-23
 Atomic mass unit [kg]                                      1.66053878200000E-27
 Bohr radius [m]                                            5.29177208590000E-11

 *** Conversion factors ***

 [u] -> [a.u.]                                              1.82288848426455E+03
 [Angstrom] -> [Bohr] = [a.u.]                              1.88972613288564E+00
 [a.u.] = [Bohr] -> [Angstrom]                              5.29177208590000E-01
 [a.u.] -> [s]                                              2.41888432650478E-17
 [a.u.] -> [fs]                                             2.41888432650478E-02
 [a.u.] -> [J]                                              4.35974393937059E-18
 [a.u.] -> [N]                                              8.23872205491840E-08
 [a.u.] -> [K]                                              3.15774647902944E+05
 [a.u.] -> [kJ/mol]                                         2.62549961709828E+03
 [a.u.] -> [kcal/mol]                                       6.27509468713739E+02
 [a.u.] -> [Pa]                                             2.94210107994716E+13
 [a.u.] -> [bar]                                            2.94210107994716E+08
 [a.u.] -> [atm]                                            2.90362800883016E+08
 [a.u.] -> [eV]                                             2.72113838565563E+01
 [a.u.] -> [Hz]                                             6.57968392072181E+15
 [a.u.] -> [1/cm] (wave numbers)                            2.19474631370540E+05
 [a.u./Bohr**2] -> [1/cm]                                   5.14048714338585E+03
 

 CELL_TOP| Volume [angstrom^3]:                                        59.735867
 CELL_TOP| Vector a [angstrom     4.103     0.000     0.000   |a| =     4.103050
 CELL_TOP| Vector b [angstrom     0.000     4.103     0.000   |b| =     4.103050
 CELL_TOP| Vector c [angstrom     0.000     0.000     3.548   |c| =     3.548310
 CELL_TOP| Angle (b,c), alpha [degree]:                                90.000000
 CELL_TOP| Angle (a,c), beta  [degree]:                                90.000000
 CELL_TOP| Angle (a,b), gamma [degree]:                                90.000000
 CELL_TOP| Numerically orthorhombic:                                         YES
 CELL_TOP| Periodicity                                                       XYZ

 CELL_CIF| Volume [angstrom^3]:                                        59.735867
 CELL_CIF| Vector a [angstrom     4.103     0.000     0.000   |a| =     4.103050
 CELL_CIF| Vector b [angstrom     0.000     4.103     0.000   |b| =     4.103050
 CELL_CIF| Vector c [angstrom     0.000     0.000     3.548   |c| =     3.548310
 CELL_CIF| Angle (b,c), alpha [degree]:                                90.000000
 CELL_CIF| Angle (a,c), beta  [degree]:                                90.000000
 CELL_CIF| Angle (a,b), gamma [degree]:                                90.000000
 CELL_CIF| Numerically orthorhombic:                                         YES
 CELL_CIF| Periodicity                                                       XYZ

 GENERATE|  Preliminary Number of Bonds generated:                             0
 GENERATE|  Achieved consistency in connectivity generation.

 CELL| Volume [angstrom^3]:                                            59.735867
 CELL| Vector a [angstrom]:       4.103     0.000     0.000   |a| =     4.103050
 CELL| Vector b [angstrom]:       0.000     4.103     0.000   |b| =     4.103050
 CELL| Vector c [angstrom]:       0.000     0.000     3.548   |c| =     3.548310
 CELL| Angle (b,c), alpha [degree]:                                    90.000000
 CELL| Angle (a,c), beta  [degree]:                                    90.000000
 CELL| Angle (a,b), gamma [degree]:                                    90.000000
 CELL| Numerically orthorhombic:                                             YES
 CELL| Periodicity                                                           XYZ

 CELL_REF| Volume [angstrom^3]:                                        59.735867
 CELL_REF| Vector a [angstrom     4.103     0.000     0.000   |a| =     4.103050
 CELL_REF| Vector b [angstrom     0.000     4.103     0.000   |b| =     4.103050
 CELL_REF| Vector c [angstrom     0.000     0.000     3.548   |c| =     3.548310
 CELL_REF| Angle (b,c), alpha [degree]:                                90.000000
 CELL_REF| Angle (a,c), beta  [degree]:                                90.000000
 CELL_REF| Angle (a,b), gamma [degree]:                                90.000000
 CELL_REF| Numerically orthorhombic:                                         YES
 CELL_REF| Periodicity                                                       XYZ

 *** WARNING in cryssym.F:180 :: Symmetry library SPGLIB not available ***


 *******************************************************************************
                                    Kpoints
 *******************************************************************************
 BRILLOUIN| K-point scheme                                        Monkhorst-Pack
 BRILLOUIN| K-Point grid                                             8    8    8
 BRILLOUIN| Accuracy in Symmetry determination                      0.100000E-05
 BRILLOUIN| K-Point point group symmetrization                               OFF
 BRILLOUIN| Wavefunction type                                            COMPLEX
 BRILLOUIN| List of Kpoints [2 Pi/Bohr]                                      256
 BRILLOUIN| Number           Weight            X              Y              Z
 BRILLOUIN|     1           0.00391       -0.43750       -0.43750       -0.43750
 BRILLOUIN|     2           0.00391       -0.43750       -0.43750       -0.31250
 BRILLOUIN|     3           0.00391       -0.43750       -0.43750       -0.18750
 BRILLOUIN|     4           0.00391       -0.43750       -0.43750       -0.06250
 BRILLOUIN|     5           0.00391       -0.43750       -0.43750        0.06250
 BRILLOUIN|     6           0.00391       -0.43750       -0.43750        0.18750
 BRILLOUIN|     7           0.00391       -0.43750       -0.43750        0.31250
 BRILLOUIN|     8           0.00391       -0.43750       -0.43750        0.43750
 BRILLOUIN|     9           0.00391       -0.43750       -0.31250       -0.43750
 BRILLOUIN|    10           0.00391       -0.43750       -0.31250       -0.31250
 BRILLOUIN|    11           0.00391       -0.43750       -0.31250       -0.18750
 BRILLOUIN|    12           0.00391       -0.43750       -0.31250       -0.06250
 BRILLOUIN|    13           0.00391       -0.43750       -0.31250        0.06250
 BRILLOUIN|    14           0.00391       -0.43750       -0.31250        0.18750
 BRILLOUIN|    15           0.00391       -0.43750       -0.31250        0.31250
 BRILLOUIN|    16           0.00391       -0.43750       -0.31250        0.43750
 BRILLOUIN|    17           0.00391       -0.43750       -0.18750       -0.43750
 BRILLOUIN|    18           0.00391       -0.43750       -0.18750       -0.31250
 BRILLOUIN|    19           0.00391       -0.43750       -0.18750       -0.18750
 BRILLOUIN|    20           0.00391       -0.43750       -0.18750       -0.06250
 BRILLOUIN|    21           0.00391       -0.43750       -0.18750        0.06250
 BRILLOUIN|    22           0.00391       -0.43750       -0.18750        0.18750
 BRILLOUIN|    23           0.00391       -0.43750       -0.18750        0.31250
 BRILLOUIN|    24           0.00391       -0.43750       -0.18750        0.43750
 BRILLOUIN|    25           0.00391       -0.43750       -0.06250       -0.43750
 BRILLOUIN|    26           0.00391       -0.43750       -0.06250       -0.31250
 BRILLOUIN|    27           0.00391       -0.43750       -0.06250       -0.18750
 BRILLOUIN|    28           0.00391       -0.43750       -0.06250       -0.06250
 BRILLOUIN|    29           0.00391       -0.43750       -0.06250        0.06250
 BRILLOUIN|    30           0.00391       -0.43750       -0.06250        0.18750
 BRILLOUIN|    31           0.00391       -0.43750       -0.06250        0.31250
 BRILLOUIN|    32           0.00391       -0.43750       -0.06250        0.43750
 BRILLOUIN|    33           0.00391       -0.43750        0.06250       -0.43750
 BRILLOUIN|    34           0.00391       -0.43750        0.06250       -0.31250
 BRILLOUIN|    35           0.00391       -0.43750        0.06250       -0.18750
 BRILLOUIN|    36           0.00391       -0.43750        0.06250       -0.06250
 BRILLOUIN|    37           0.00391       -0.43750        0.06250        0.06250
 BRILLOUIN|    38           0.00391       -0.43750        0.06250        0.18750
 BRILLOUIN|    39           0.00391       -0.43750        0.06250        0.31250
 BRILLOUIN|    40           0.00391       -0.43750        0.06250        0.43750
 BRILLOUIN|    41           0.00391       -0.43750        0.18750       -0.43750
 BRILLOUIN|    42           0.00391       -0.43750        0.18750       -0.31250
 BRILLOUIN|    43           0.00391       -0.43750        0.18750       -0.18750
 BRILLOUIN|    44           0.00391       -0.43750        0.18750       -0.06250
 BRILLOUIN|    45           0.00391       -0.43750        0.18750        0.06250
 BRILLOUIN|    46           0.00391       -0.43750        0.18750        0.18750
 BRILLOUIN|    47           0.00391       -0.43750        0.18750        0.31250
 BRILLOUIN|    48           0.00391       -0.43750        0.18750        0.43750
 BRILLOUIN|    49           0.00391       -0.43750        0.31250       -0.43750
 BRILLOUIN|    50           0.00391       -0.43750        0.31250       -0.31250
 BRILLOUIN|    51           0.00391       -0.43750        0.31250       -0.18750
 BRILLOUIN|    52           0.00391       -0.43750        0.31250       -0.06250
 BRILLOUIN|    53           0.00391       -0.43750        0.31250        0.06250
 BRILLOUIN|    54           0.00391       -0.43750        0.31250        0.18750
 BRILLOUIN|    55           0.00391       -0.43750        0.31250        0.31250
 BRILLOUIN|    56           0.00391       -0.43750        0.31250        0.43750
 BRILLOUIN|    57           0.00391       -0.43750        0.43750       -0.43750
 BRILLOUIN|    58           0.00391       -0.43750        0.43750       -0.31250
 BRILLOUIN|    59           0.00391       -0.43750        0.43750       -0.18750
 BRILLOUIN|    60           0.00391       -0.43750        0.43750       -0.06250
 BRILLOUIN|    61           0.00391       -0.43750        0.43750        0.06250
 BRILLOUIN|    62           0.00391       -0.43750        0.43750        0.18750
 BRILLOUIN|    63           0.00391       -0.43750        0.43750        0.31250
 BRILLOUIN|    64           0.00391       -0.43750        0.43750        0.43750
 BRILLOUIN|    65           0.00391       -0.31250       -0.43750       -0.43750
 BRILLOUIN|    66           0.00391       -0.31250       -0.43750       -0.31250
 BRILLOUIN|    67           0.00391       -0.31250       -0.43750       -0.18750
 BRILLOUIN|    68           0.00391       -0.31250       -0.43750       -0.06250
 BRILLOUIN|    69           0.00391       -0.31250       -0.43750        0.06250
 BRILLOUIN|    70           0.00391       -0.31250       -0.43750        0.18750
 BRILLOUIN|    71           0.00391       -0.31250       -0.43750        0.31250
 BRILLOUIN|    72           0.00391       -0.31250       -0.43750        0.43750
 BRILLOUIN|    73           0.00391       -0.31250       -0.31250       -0.43750
 BRILLOUIN|    74           0.00391       -0.31250       -0.31250       -0.31250
 BRILLOUIN|    75           0.00391       -0.31250       -0.31250       -0.18750
 BRILLOUIN|    76           0.00391       -0.31250       -0.31250       -0.06250
 BRILLOUIN|    77           0.00391       -0.31250       -0.31250        0.06250
 BRILLOUIN|    78           0.00391       -0.31250       -0.31250        0.18750
 BRILLOUIN|    79           0.00391       -0.31250       -0.31250        0.31250
 BRILLOUIN|    80           0.00391       -0.31250       -0.31250        0.43750
 BRILLOUIN|    81           0.00391       -0.31250       -0.18750       -0.43750
 BRILLOUIN|    82           0.00391       -0.31250       -0.18750       -0.31250
 BRILLOUIN|    83           0.00391       -0.31250       -0.18750       -0.18750
 BRILLOUIN|    84           0.00391       -0.31250       -0.18750       -0.06250
 BRILLOUIN|    85           0.00391       -0.31250       -0.18750        0.06250
 BRILLOUIN|    86           0.00391       -0.31250       -0.18750        0.18750
 BRILLOUIN|    87           0.00391       -0.31250       -0.18750        0.31250
 BRILLOUIN|    88           0.00391       -0.31250       -0.18750        0.43750
 BRILLOUIN|    89           0.00391       -0.31250       -0.06250       -0.43750
 BRILLOUIN|    90           0.00391       -0.31250       -0.06250       -0.31250
 BRILLOUIN|    91           0.00391       -0.31250       -0.06250       -0.18750
 BRILLOUIN|    92           0.00391       -0.31250       -0.06250       -0.06250
 BRILLOUIN|    93           0.00391       -0.31250       -0.06250        0.06250
 BRILLOUIN|    94           0.00391       -0.31250       -0.06250        0.18750
 BRILLOUIN|    95           0.00391       -0.31250       -0.06250        0.31250
 BRILLOUIN|    96           0.00391       -0.31250       -0.06250        0.43750
 BRILLOUIN|    97           0.00391       -0.31250        0.06250       -0.43750
 BRILLOUIN|    98           0.00391       -0.31250        0.06250       -0.31250
 BRILLOUIN|    99           0.00391       -0.31250        0.06250       -0.18750
 BRILLOUIN|   100           0.00391       -0.31250        0.06250       -0.06250
 BRILLOUIN|   101           0.00391       -0.31250        0.06250        0.06250
 BRILLOUIN|   102           0.00391       -0.31250        0.06250        0.18750
 BRILLOUIN|   103           0.00391       -0.31250        0.06250        0.31250
 BRILLOUIN|   104           0.00391       -0.31250        0.06250        0.43750
 BRILLOUIN|   105           0.00391       -0.31250        0.18750       -0.43750
 BRILLOUIN|   106           0.00391       -0.31250        0.18750       -0.31250
 BRILLOUIN|   107           0.00391       -0.31250        0.18750       -0.18750
 BRILLOUIN|   108           0.00391       -0.31250        0.18750       -0.06250
 BRILLOUIN|   109           0.00391       -0.31250        0.18750        0.06250
 BRILLOUIN|   110           0.00391       -0.31250        0.18750        0.18750
 BRILLOUIN|   111           0.00391       -0.31250        0.18750        0.31250
 BRILLOUIN|   112           0.00391       -0.31250        0.18750        0.43750
 BRILLOUIN|   113           0.00391       -0.31250        0.31250       -0.43750
 BRILLOUIN|   114           0.00391       -0.31250        0.31250       -0.31250
 BRILLOUIN|   115           0.00391       -0.31250        0.31250       -0.18750
 BRILLOUIN|   116           0.00391       -0.31250        0.31250       -0.06250
 BRILLOUIN|   117           0.00391       -0.31250        0.31250        0.06250
 BRILLOUIN|   118           0.00391       -0.31250        0.31250        0.18750
 BRILLOUIN|   119           0.00391       -0.31250        0.31250        0.31250
 BRILLOUIN|   120           0.00391       -0.31250        0.31250        0.43750
 BRILLOUIN|   121           0.00391       -0.31250        0.43750       -0.43750
 BRILLOUIN|   122           0.00391       -0.31250        0.43750       -0.31250
 BRILLOUIN|   123           0.00391       -0.31250        0.43750       -0.18750
 BRILLOUIN|   124           0.00391       -0.31250        0.43750       -0.06250
 BRILLOUIN|   125           0.00391       -0.31250        0.43750        0.06250
 BRILLOUIN|   126           0.00391       -0.31250        0.43750        0.18750
 BRILLOUIN|   127           0.00391       -0.31250        0.43750        0.31250
 BRILLOUIN|   128           0.00391       -0.31250        0.43750        0.43750
 BRILLOUIN|   129           0.00391       -0.18750       -0.43750       -0.43750
 BRILLOUIN|   130           0.00391       -0.18750       -0.43750       -0.31250
 BRILLOUIN|   131           0.00391       -0.18750       -0.43750       -0.18750
 BRILLOUIN|   132           0.00391       -0.18750       -0.43750       -0.06250
 BRILLOUIN|   133           0.00391       -0.18750       -0.43750        0.06250
 BRILLOUIN|   134           0.00391       -0.18750       -0.43750        0.18750
 BRILLOUIN|   135           0.00391       -0.18750       -0.43750        0.31250
 BRILLOUIN|   136           0.00391       -0.18750       -0.43750        0.43750
 BRILLOUIN|   137           0.00391       -0.18750       -0.31250       -0.43750
 BRILLOUIN|   138           0.00391       -0.18750       -0.31250       -0.31250
 BRILLOUIN|   139           0.00391       -0.18750       -0.31250       -0.18750
 BRILLOUIN|   140           0.00391       -0.18750       -0.31250       -0.06250
 BRILLOUIN|   141           0.00391       -0.18750       -0.31250        0.06250
 BRILLOUIN|   142           0.00391       -0.18750       -0.31250        0.18750
 BRILLOUIN|   143           0.00391       -0.18750       -0.31250        0.31250
 BRILLOUIN|   144           0.00391       -0.18750       -0.31250        0.43750
 BRILLOUIN|   145           0.00391       -0.18750       -0.18750       -0.43750
 BRILLOUIN|   146           0.00391       -0.18750       -0.18750       -0.31250
 BRILLOUIN|   147           0.00391       -0.18750       -0.18750       -0.18750
 BRILLOUIN|   148           0.00391       -0.18750       -0.18750       -0.06250
 BRILLOUIN|   149           0.00391       -0.18750       -0.18750        0.06250
 BRILLOUIN|   150           0.00391       -0.18750       -0.18750        0.18750
 BRILLOUIN|   151           0.00391       -0.18750       -0.18750        0.31250
 BRILLOUIN|   152           0.00391       -0.18750       -0.18750        0.43750
 BRILLOUIN|   153           0.00391       -0.18750       -0.06250       -0.43750
 BRILLOUIN|   154           0.00391       -0.18750       -0.06250       -0.31250
 BRILLOUIN|   155           0.00391       -0.18750       -0.06250       -0.18750
 BRILLOUIN|   156           0.00391       -0.18750       -0.06250       -0.06250
 BRILLOUIN|   157           0.00391       -0.18750       -0.06250        0.06250
 BRILLOUIN|   158           0.00391       -0.18750       -0.06250        0.18750
 BRILLOUIN|   159           0.00391       -0.18750       -0.06250        0.31250
 BRILLOUIN|   160           0.00391       -0.18750       -0.06250        0.43750
 BRILLOUIN|   161           0.00391       -0.18750        0.06250       -0.43750
 BRILLOUIN|   162           0.00391       -0.18750        0.06250       -0.31250
 BRILLOUIN|   163           0.00391       -0.18750        0.06250       -0.18750
 BRILLOUIN|   164           0.00391       -0.18750        0.06250       -0.06250
 BRILLOUIN|   165           0.00391       -0.18750        0.06250        0.06250
 BRILLOUIN|   166           0.00391       -0.18750        0.06250        0.18750
 BRILLOUIN|   167           0.00391       -0.18750        0.06250        0.31250
 BRILLOUIN|   168           0.00391       -0.18750        0.06250        0.43750
 BRILLOUIN|   169           0.00391       -0.18750        0.18750       -0.43750
 BRILLOUIN|   170           0.00391       -0.18750        0.18750       -0.31250
 BRILLOUIN|   171           0.00391       -0.18750        0.18750       -0.18750
 BRILLOUIN|   172           0.00391       -0.18750        0.18750       -0.06250
 BRILLOUIN|   173           0.00391       -0.18750        0.18750        0.06250
 BRILLOUIN|   174           0.00391       -0.18750        0.18750        0.18750
 BRILLOUIN|   175           0.00391       -0.18750        0.18750        0.31250
 BRILLOUIN|   176           0.00391       -0.18750        0.18750        0.43750
 BRILLOUIN|   177           0.00391       -0.18750        0.31250       -0.43750
 BRILLOUIN|   178           0.00391       -0.18750        0.31250       -0.31250
 BRILLOUIN|   179           0.00391       -0.18750        0.31250       -0.18750
 BRILLOUIN|   180           0.00391       -0.18750        0.31250       -0.06250
 BRILLOUIN|   181           0.00391       -0.18750        0.31250        0.06250
 BRILLOUIN|   182           0.00391       -0.18750        0.31250        0.18750
 BRILLOUIN|   183           0.00391       -0.18750        0.31250        0.31250
 BRILLOUIN|   184           0.00391       -0.18750        0.31250        0.43750
 BRILLOUIN|   185           0.00391       -0.18750        0.43750       -0.43750
 BRILLOUIN|   186           0.00391       -0.18750        0.43750       -0.31250
 BRILLOUIN|   187           0.00391       -0.18750        0.43750       -0.18750
 BRILLOUIN|   188           0.00391       -0.18750        0.43750       -0.06250
 BRILLOUIN|   189           0.00391       -0.18750        0.43750        0.06250
 BRILLOUIN|   190           0.00391       -0.18750        0.43750        0.18750
 BRILLOUIN|   191           0.00391       -0.18750        0.43750        0.31250
 BRILLOUIN|   192           0.00391       -0.18750        0.43750        0.43750
 BRILLOUIN|   193           0.00391       -0.06250       -0.43750       -0.43750
 BRILLOUIN|   194           0.00391       -0.06250       -0.43750       -0.31250
 BRILLOUIN|   195           0.00391       -0.06250       -0.43750       -0.18750
 BRILLOUIN|   196           0.00391       -0.06250       -0.43750       -0.06250
 BRILLOUIN|   197           0.00391       -0.06250       -0.43750        0.06250
 BRILLOUIN|   198           0.00391       -0.06250       -0.43750        0.18750
 BRILLOUIN|   199           0.00391       -0.06250       -0.43750        0.31250
 BRILLOUIN|   200           0.00391       -0.06250       -0.43750        0.43750
 BRILLOUIN|   201           0.00391       -0.06250       -0.31250       -0.43750
 BRILLOUIN|   202           0.00391       -0.06250       -0.31250       -0.31250
 BRILLOUIN|   203           0.00391       -0.06250       -0.31250       -0.18750
 BRILLOUIN|   204           0.00391       -0.06250       -0.31250       -0.06250
 BRILLOUIN|   205           0.00391       -0.06250       -0.31250        0.06250
 BRILLOUIN|   206           0.00391       -0.06250       -0.31250        0.18750
 BRILLOUIN|   207           0.00391       -0.06250       -0.31250        0.31250
 BRILLOUIN|   208           0.00391       -0.06250       -0.31250        0.43750
 BRILLOUIN|   209           0.00391       -0.06250       -0.18750       -0.43750
 BRILLOUIN|   210           0.00391       -0.06250       -0.18750       -0.31250
 BRILLOUIN|   211           0.00391       -0.06250       -0.18750       -0.18750
 BRILLOUIN|   212           0.00391       -0.06250       -0.18750       -0.06250
 BRILLOUIN|   213           0.00391       -0.06250       -0.18750        0.06250
 BRILLOUIN|   214           0.00391       -0.06250       -0.18750        0.18750
 BRILLOUIN|   215           0.00391       -0.06250       -0.18750        0.31250
 BRILLOUIN|   216           0.00391       -0.06250       -0.18750        0.43750
 BRILLOUIN|   217           0.00391       -0.06250       -0.06250       -0.43750
 BRILLOUIN|   218           0.00391       -0.06250       -0.06250       -0.31250
 BRILLOUIN|   219           0.00391       -0.06250       -0.06250       -0.18750
 BRILLOUIN|   220           0.00391       -0.06250       -0.06250       -0.06250
 BRILLOUIN|   221           0.00391       -0.06250       -0.06250        0.06250
 BRILLOUIN|   222           0.00391       -0.06250       -0.06250        0.18750
 BRILLOUIN|   223           0.00391       -0.06250       -0.06250        0.31250
 BRILLOUIN|   224           0.00391       -0.06250       -0.06250        0.43750
 BRILLOUIN|   225           0.00391       -0.06250        0.06250       -0.43750
 BRILLOUIN|   226           0.00391       -0.06250        0.06250       -0.31250
 BRILLOUIN|   227           0.00391       -0.06250        0.06250       -0.18750
 BRILLOUIN|   228           0.00391       -0.06250        0.06250       -0.06250
 BRILLOUIN|   229           0.00391       -0.06250        0.06250        0.06250
 BRILLOUIN|   230           0.00391       -0.06250        0.06250        0.18750
 BRILLOUIN|   231           0.00391       -0.06250        0.06250        0.31250
 BRILLOUIN|   232           0.00391       -0.06250        0.06250        0.43750
 BRILLOUIN|   233           0.00391       -0.06250        0.18750       -0.43750
 BRILLOUIN|   234           0.00391       -0.06250        0.18750       -0.31250
 BRILLOUIN|   235           0.00391       -0.06250        0.18750       -0.18750
 BRILLOUIN|   236           0.00391       -0.06250        0.18750       -0.06250
 BRILLOUIN|   237           0.00391       -0.06250        0.18750        0.06250
 BRILLOUIN|   238           0.00391       -0.06250        0.18750        0.18750
 BRILLOUIN|   239           0.00391       -0.06250        0.18750        0.31250
 BRILLOUIN|   240           0.00391       -0.06250        0.18750        0.43750
 BRILLOUIN|   241           0.00391       -0.06250        0.31250       -0.43750
 BRILLOUIN|   242           0.00391       -0.06250        0.31250       -0.31250
 BRILLOUIN|   243           0.00391       -0.06250        0.31250       -0.18750
 BRILLOUIN|   244           0.00391       -0.06250        0.31250       -0.06250
 BRILLOUIN|   245           0.00391       -0.06250        0.31250        0.06250
 BRILLOUIN|   246           0.00391       -0.06250        0.31250        0.18750
 BRILLOUIN|   247           0.00391       -0.06250        0.31250        0.31250
 BRILLOUIN|   248           0.00391       -0.06250        0.31250        0.43750
 BRILLOUIN|   249           0.00391       -0.06250        0.43750       -0.43750
 BRILLOUIN|   250           0.00391       -0.06250        0.43750       -0.31250
 BRILLOUIN|   251           0.00391       -0.06250        0.43750       -0.18750
 BRILLOUIN|   252           0.00391       -0.06250        0.43750       -0.06250
 BRILLOUIN|   253           0.00391       -0.06250        0.43750        0.06250
 BRILLOUIN|   254           0.00391       -0.06250        0.43750        0.18750
 BRILLOUIN|   255           0.00391       -0.06250        0.43750        0.31250
 BRILLOUIN|   256           0.00391       -0.06250        0.43750        0.43750
 *******************************************************************************

 *******************************************************************************
 *******************************************************************************
 **                                                                           **
 **     #####                         ##              ##                      **
 **    ##   ##            ##          ##              ##                      **
 **   ##     ##                       ##            ######                    **
 **   ##     ##  ##   ##  ##   #####  ##  ##   ####   ##    #####    #####    **
 **   ##     ##  ##   ##  ##  ##      ## ##   ##      ##   ##   ##  ##   ##   **
 **   ##  ## ##  ##   ##  ##  ##      ####     ###    ##   ######   ######    **
 **    ##  ###   ##   ##  ##  ##      ## ##      ##   ##   ##       ##        **
 **     #######   #####   ##   #####  ##  ##  ####    ##    #####   ##        **
 **           ##                                                    ##        **
 **                                                                           **
 **                                                ... make the atoms dance   **
 **                                                                           **
 **            Copyright (C) by CP2K developers group (2000-2025)             **
 **                      J. Chem. Phys. 152, 194103 (2020)                    **
 **                                                                           **
 *******************************************************************************

 DFT| Spin restricted Kohn-Sham (RKS) calculation                            RKS
 DFT| Multiplicity                                                             1
 DFT| Number of spin states                                                    1
 DFT| Charge                                                                   0
 DFT| Self-interaction correction (SIC)                                       NO
 DFT| Cutoffs: density                                              1.000000E-10
 DFT|          gradient                                             1.000000E-10
 DFT|          tau                                                  1.000000E-10
 DFT|          cutoff_smoothing_range                               0.000000E+00
 DFT| XC density smoothing                                                  NONE
 DFT| XC derivatives                                                          PW

 FUNCTIONAL| PBE:
 FUNCTIONAL| J.P.Perdew, K.Burke, M.Ernzerhof, Phys. Rev. Letter, vol. 77, n 18,
 FUNCTIONAL|  pp. 3865-3868, (1996) {spin unpolarized}                          


 QS| Method:                                                                 GPW
 QS| Density plane wave grid type                        NON-SPHERICAL FULLSPACE
 QS| Number of grid levels:                                                    4
 QS| Density cutoff [a.u.]:                                                500.0
 QS| Multi grid cutoff [a.u.]: 1) grid level                               500.0
 QS|                           2) grid level                               166.7
 QS|                           3) grid level                                55.6
 QS|                           4) grid level                                18.5
 QS| Grid level progression factor:                                          3.0
 QS| Relative density cutoff [a.u.]:                                        50.0
 QS| Interaction thresholds: eps_pgf_orb:                                1.0E-16
 QS|                         eps_filter_matrix:                          0.0E+00
 QS|                         eps_core_charge:                            1.0E-18
 QS|                         eps_rho_gspace:                             1.0E-16
 QS|                         eps_rho_rspace:                             1.0E-16
 QS|                         eps_gvg_rspace:                             1.0E-08
 QS|                         eps_ppl:                                    1.0E-02
 QS|                         eps_ppnl:                                   1.0E-10


 ATOMIC KIND INFORMATION

  1. Atomic kind: Hg                                    Number of atoms:       2

     Orbital Basis Set                                 aug-SZV-MOLOPT-GTH-tier-2

       Number of orbital shell sets:                                           1
       Number of orbital shells:                                               7
       Number of primitive Cartesian functions:                                7
       Number of Cartesian basis functions:                                   30
       Number of spherical basis functions:                                   25
       Norm type:                                                              2

       Normalised Cartesian orbitals:

                        Set   Shell   Orbital            Exponent    Coefficient

                          1       1    2s                0.078430      -0.058496
                                                         0.124587       0.000000
                                                         0.197908      -0.150033
                                                         0.443216       0.018564
                                                         0.968505       0.376322
                                                         1.999950      -0.176917
                                                         3.031517      -0.001465

                          1       2    3s                0.078430       0.152063
                                                         0.124587      -0.072617
                                                         0.197908       0.006871
                                                         0.443216      -0.000444
                                                         0.968505      -0.015393
                                                         1.999950       0.000000
                                                         3.031517       0.000000

                          1       3    3px               0.078430       0.034902
                                                         0.124587       0.000000
                                                         0.197908       0.099761
                                                         0.443216       0.006256
                                                         0.968505      -0.348836
                                                         1.999950       0.359089
                                                         3.031517      -0.188524
                          1       3    3py               0.078430       0.034902
                                                         0.124587       0.000000
                                                         0.197908       0.099761
                                                         0.443216       0.006256
                                                         0.968505      -0.348836
                                                         1.999950       0.359089
                                                         3.031517      -0.188524
                          1       3    3pz               0.078430       0.034902
                                                         0.124587       0.000000
                                                         0.197908       0.099761
                                                         0.443216       0.006256
                                                         0.968505      -0.348836
                                                         1.999950       0.359089
                                                         3.031517      -0.188524

                          1       4    4px               0.078430      -0.023393
                                                         0.124587      -0.017159
                                                         0.197908       0.086396
                                                         0.443216       0.434310
                                                         0.968505       0.017240
                                                         1.999950       0.000000
                                                         3.031517       0.000000
                          1       4    4py               0.078430      -0.023393
                                                         0.124587      -0.017159
                                                         0.197908       0.086396
                                                         0.443216       0.434310
                                                         0.968505       0.017240
                                                         1.999950       0.000000
                                                         3.031517       0.000000
                          1       4    4pz               0.078430      -0.023393
                                                         0.124587      -0.017159
                                                         0.197908       0.086396
                                                         0.443216       0.434310
                                                         0.968505       0.017240
                                                         1.999950       0.000000
                                                         3.031517       0.000000

                          1       5    4dx2              0.078430       0.000383
                                                         0.124587       0.000000
                                                         0.197908       0.015833
                                                         0.443216       0.133361
                                                         0.968505       0.658335
                                                         1.999950       1.669819
                                                         3.031517      -0.724890
                          1       5    4dxy              0.078430       0.000664
                                                         0.124587       0.000000
                                                         0.197908       0.027424
                                                         0.443216       0.230988
                                                         0.968505       1.140270
                                                         1.999950       2.892211
                                                         3.031517      -1.255545
                          1       5    4dxz              0.078430       0.000664
                                                         0.124587       0.000000
                                                         0.197908       0.027424
                                                         0.443216       0.230988
                                                         0.968505       1.140270
                                                         1.999950       2.892211
                                                         3.031517      -1.255545
                          1       5    4dy2              0.078430       0.000383
                                                         0.124587       0.000000
                                                         0.197908       0.015833
                                                         0.443216       0.133361
                                                         0.968505       0.658335
                                                         1.999950       1.669819
                                                         3.031517      -0.724890
                          1       5    4dyz              0.078430       0.000664
                                                         0.124587       0.000000
                                                         0.197908       0.027424
                                                         0.443216       0.230988
                                                         0.968505       1.140270
                                                         1.999950       2.892211
                                                         3.031517      -1.255545
                          1       5    4dz2              0.078430       0.000383
                                                         0.124587       0.000000
                                                         0.197908       0.015833
                                                         0.443216       0.133361
                                                         0.968505       0.658335
                                                         1.999950       1.669819
                                                         3.031517      -0.724890

                          1       6    5dx2              0.078430       0.032444
                                                         0.124587      -0.038131
                                                         0.197908       0.001794
                                                         0.443216       0.042820
                                                         0.968505       0.186102
                                                         1.999950       0.000000
                                                         3.031517       0.000000
                          1       6    5dxy              0.078430       0.056195
                                                         0.124587      -0.066045
                                                         0.197908       0.003107
                                                         0.443216       0.074166
                                                         0.968505       0.322339
                                                         1.999950       0.000000
                                                         3.031517       0.000000
                          1       6    5dxz              0.078430       0.056195
                                                         0.124587      -0.066045
                                                         0.197908       0.003107
                                                         0.443216       0.074166
                                                         0.968505       0.322339
                                                         1.999950       0.000000
                                                         3.031517       0.000000
                          1       6    5dy2              0.078430       0.032444
                                                         0.124587      -0.038131
                                                         0.197908       0.001794
                                                         0.443216       0.042820
                                                         0.968505       0.186102
                                                         1.999950       0.000000
                                                         3.031517       0.000000
                          1       6    5dyz              0.078430       0.056195
                                                         0.124587      -0.066045
                                                         0.197908       0.003107
                                                         0.443216       0.074166
                                                         0.968505       0.322339
                                                         1.999950       0.000000
                                                         3.031517       0.000000
                          1       6    5dz2              0.078430       0.032444
                                                         0.124587      -0.038131
                                                         0.197908       0.001794
                                                         0.443216       0.042820
                                                         0.968505       0.186102
                                                         1.999950       0.000000
                                                         3.031517       0.000000

                          1       7    5fx3              0.078430      -0.001620
                                                         0.124587       0.003712
                                                         0.197908       0.008481
                                                         0.443216       0.134292
                                                         0.968505       0.397433
                                                         1.999950       0.000000
                                                         3.031517       0.000000
                          1       7    5fx2y             0.078430      -0.003622
                                                         0.124587       0.008301
                                                         0.197908       0.018964
                                                         0.443216       0.300287
                                                         0.968505       0.888687
                                                         1.999950       0.000000
                                                         3.031517       0.000000
                          1       7    5fx2z             0.078430      -0.003622
                                                         0.124587       0.008301
                                                         0.197908       0.018964
                                                         0.443216       0.300287
                                                         0.968505       0.888687
                                                         1.999950       0.000000
                                                         3.031517       0.000000
                          1       7    5fxy2             0.078430      -0.003622
                                                         0.124587       0.008301
                                                         0.197908       0.018964
                                                         0.443216       0.300287
                                                         0.968505       0.888687
                                                         1.999950       0.000000
                                                         3.031517       0.000000
                          1       7    5fxyz             0.078430      -0.006273
                                                         0.124587       0.014378
                                                         0.197908       0.032847
                                                         0.443216       0.520112
                                                         0.968505       1.539250
                                                         1.999950       0.000000
                                                         3.031517       0.000000
                          1       7    5fxz2             0.078430      -0.003622
                                                         0.124587       0.008301
                                                         0.197908       0.018964
                                                         0.443216       0.300287
                                                         0.968505       0.888687
                                                         1.999950       0.000000
                                                         3.031517       0.000000
                          1       7    5fy3              0.078430      -0.001620
                                                         0.124587       0.003712
                                                         0.197908       0.008481
                                                         0.443216       0.134292
                                                         0.968505       0.397433
                                                         1.999950       0.000000
                                                         3.031517       0.000000
                          1       7    5fy2z             0.078430      -0.003622
                                                         0.124587       0.008301
                                                         0.197908       0.018964
                                                         0.443216       0.300287
                                                         0.968505       0.888687
                                                         1.999950       0.000000
                                                         3.031517       0.000000
                          1       7    5fyz2             0.078430      -0.003622
                                                         0.124587       0.008301
                                                         0.197908       0.018964
                                                         0.443216       0.300287
                                                         0.968505       0.888687
                                                         1.999950       0.000000
                                                         3.031517       0.000000
                          1       7    5fz3              0.078430      -0.001620
                                                         0.124587       0.003712
                                                         0.197908       0.008481
                                                         0.443216       0.134292
                                                         0.968505       0.397433
                                                         1.999950       0.000000
                                                         3.031517       0.000000

       Atomic covalent radius [Angstrom]:                                  1.490

       Atomic van der Waals radius [Angstrom]:                             1.550

     GTH Potential information for                                       GTH-PBE

       Description:                       Goedecker-Teter-Hutter pseudopotential
                                           Goedecker et al., PRB 54, 1703 (1996)
                                          Hartwigsen et al., PRB 58, 3641 (1998)
                                                      Krack, TCA 114, 145 (2005)

       Gaussian exponent of the core charge distribution:               1.538935
       Electronic configuration (s p d ...):                           2   0  10

       Parameters of the local part of the GTH pseudopotential:

                          rloc        C1          C2          C3          C4
                        0.570000    8.467847

       Parameters of the non-local part of the GTH (SOC) pseudopotential:

                   l      r(l)      h(i,j,l)
                                    k(i,j,l)
                   0    0.529787    7.371243   -2.969944
                                   -2.969944    3.834181
                   1    0.635166    3.551161   -1.722909    0.000000
                                   -1.722909    2.038574    0.000000
                                    0.000000    0.000000    0.000000
                                    0.976278   -1.294310    0.554904
                                   -1.294310    2.455279   -1.313143
                                    0.554904   -1.313143    0.933258
                   2    0.407985   -8.613980    5.007561
                                    5.007561   -5.678041
                                   -0.097944    0.262020
                                    0.262020   -0.297103


 MOLECULE KIND INFORMATION


 All atoms are their own molecule, skipping detailed information


 TOTAL NUMBERS AND MAXIMUM NUMBERS

  Total number of            - Atomic kinds:                                   1
                             - Atoms:                                          2
                             - Shell sets:                                     2
                             - Shells:                                        14
                             - Primitive Cartesian functions:                 14
                             - Cartesian basis functions:                     60
                             - Spherical basis functions:                     50

  Maximum angular momentum of- Orbital basis functions:                        3
                             - Local part of the GTH pseudopotential:          0
                             - Non-local part of the GTH pseudopotential:      5


 MODULE QUICKSTEP: ATOMIC COORDINATES IN ANGSTROM

   Atom Kind Element         X             Y             Z       Z(eff)     Mass
      1    1 Hg   80      0.000000      0.000000      0.000000  12.0000 200.5900
      2    1 Hg   80      2.051525      2.051525      1.774155  12.0000 200.5900



 SCF PARAMETERS         Density guess:                                    ATOMIC
                        --------------------------------------------------------
                        max_scf:                                             500
                        max_scf_history:                                       0
                        max_diis:                                              4
                        --------------------------------------------------------
                        eps_scf:                                        1.00E-09
                        eps_scf_history:                                0.00E+00
                        eps_diis:                                       1.00E-01
                        eps_eigval:                                     1.00E-05
                        --------------------------------------------------------
                        level_shift [a.u.]:                             0.000000
                        added MOs                                        38    0
                        --------------------------------------------------------
                        Mixing method:                            BROYDEN_MIXING
                                                charge density mixing in g-space
                        --------------------------------------------------------
                        Smear method:                                FERMI_DIRAC
                        Electronic temperature [K]:                        300.0
                        Electronic temperature [a.u.]:                  9.50E-04
                        Accuracy threshold:                             1.00E-10
                        --------------------------------------------------------
                        No outer SCF

 PW_GRID| Information for grid number                                          1
 PW_GRID| Grid distributed over                                     8 processors
 PW_GRID| Real space group dimensions                                     8    1
 PW_GRID| the grid is blocked:                                                NO
 PW_GRID| Cutoff [a.u.]                                                    500.0
 PW_GRID| spherical cutoff:                                                   NO
 PW_GRID|   Bounds   1            -40      39                Points:          80
 PW_GRID|   Bounds   2            -40      39                Points:          80
 PW_GRID|   Bounds   3            -36      35                Points:          72
 PW_GRID| Volume element (a.u.^3)  0.8748E-03     Volume (a.u.^3)       403.1176
 PW_GRID| Grid span                                                    FULLSPACE
 PW_GRID|   Distribution                         Average         Max         Min
 PW_GRID|   G-Vectors                            57600.0       57600       57600
 PW_GRID|   G-Rays                                 720.0         720         720
 PW_GRID|   Real Space Points                    57600.0       57600       57600

 PW_GRID| Information for grid number                                          2
 PW_GRID| Number of the reference grid                                         1
 PW_GRID| Grid distributed over                                     8 processors
 PW_GRID| Real space group dimensions                                     8    1
 PW_GRID| the grid is blocked:                                                NO
 PW_GRID| Cutoff [a.u.]                                                    166.7
 PW_GRID| spherical cutoff:                                                   NO
 PW_GRID|   Bounds   1            -22      22                Points:          45
 PW_GRID|   Bounds   2            -22      22                Points:          45
 PW_GRID|   Bounds   3            -20      19                Points:          40
 PW_GRID| Volume element (a.u.^3)  0.4977E-02     Volume (a.u.^3)       403.1176
 PW_GRID| Grid span                                                    FULLSPACE
 PW_GRID|   Distribution                         Average         Max         Min
 PW_GRID|   G-Vectors                            10125.0       10305        9990
 PW_GRID|   G-Rays                                 225.0         229         222
 PW_GRID|   Real Space Points                    10125.0       10800        9000

 PW_GRID| Information for grid number                                          3
 PW_GRID| Number of the reference grid                                         1
 PW_GRID| Grid distributed over                                     8 processors
 PW_GRID| Real space group dimensions                                     8    1
 PW_GRID| the grid is blocked:                                                NO
 PW_GRID| Cutoff [a.u.]                                                     55.6
 PW_GRID| spherical cutoff:                                                   NO
 PW_GRID|   Bounds   1            -13      13                Points:          27
 PW_GRID|   Bounds   2            -13      13                Points:          27
 PW_GRID|   Bounds   3            -12      11                Points:          24
 PW_GRID| Volume element (a.u.^3)  0.2304E-01     Volume (a.u.^3)       403.1176
 PW_GRID| Grid span                                                    FULLSPACE
 PW_GRID|   Distribution                         Average         Max         Min
 PW_GRID|   G-Vectors                             2187.0        2295        2106
 PW_GRID|   G-Rays                                  81.0          85          78
 PW_GRID|   Real Space Points                     2187.0        2592        1944

 PW_GRID| Information for grid number                                          4
 PW_GRID| Number of the reference grid                                         1
 PW_GRID| Grid distributed over                                     8 processors
 PW_GRID| Real space group dimensions                                     8    1
 PW_GRID| the grid is blocked:                                                NO
 PW_GRID| Cutoff [a.u.]                                                     18.5
 PW_GRID| spherical cutoff:                                                   NO
 PW_GRID|   Bounds   1             -7       7                Points:          15
 PW_GRID|   Bounds   2             -7       7                Points:          15
 PW_GRID|   Bounds   3             -7       7                Points:          15
 PW_GRID| Volume element (a.u.^3)  0.1194         Volume (a.u.^3)       403.1176
 PW_GRID| Grid span                                                    FULLSPACE
 PW_GRID|   Distribution                         Average         Max         Min
 PW_GRID|   G-Vectors                              421.9         435         405
 PW_GRID|   G-Rays                                  28.1          29          27
 PW_GRID|   Real Space Points                      421.9         450         225

 POISSON| Solver                                                        PERIODIC
 POISSON| Periodicity                                                        XYZ

 RS_GRID| Information for grid number                                          1
 RS_GRID|   Bounds   1            -40      39                Points:          80
 RS_GRID|   Bounds   2            -40      39                Points:          80
 RS_GRID|   Bounds   3            -36      35                Points:          72
 RS_GRID| Real space fully replicated
 RS_GRID| Group size                                                           1

 RS_GRID| Information for grid number                                          2
 RS_GRID|   Bounds   1            -22      22                Points:          45
 RS_GRID|   Bounds   2            -22      22                Points:          45
 RS_GRID|   Bounds   3            -20      19                Points:          40
 RS_GRID| Real space fully replicated
 RS_GRID| Group size                                                           1

 RS_GRID| Information for grid number                                          3
 RS_GRID|   Bounds   1            -13      13                Points:          27
 RS_GRID|   Bounds   2            -13      13                Points:          27
 RS_GRID|   Bounds   3            -12      11                Points:          24
 RS_GRID| Real space fully replicated
 RS_GRID| Group size                                                           1

 RS_GRID| Information for grid number                                          4
 RS_GRID|   Bounds   1             -7       7                Points:          15
 RS_GRID|   Bounds   2             -7       7                Points:          15
 RS_GRID|   Bounds   3             -7       7                Points:          15
 RS_GRID| Real space fully replicated
 RS_GRID| Group size                                                           1

 Number of electrons:                                                         24
 Number of occupied orbitals:                                                 12
 Number of molecular orbitals:                                                50

 Number of orbital functions:                                                 50
 Number of independent orbital functions:                                     50

 Extrapolation method: initial_guess

 Atomic guess: The first density matrix is obtained in terms of atomic orbitals
               and electronic configurations assigned to each atomic kind

 Guess for atomic kind: Hg

 Electronic structure
    Total number of core electrons                                         68.00
    Total number of valence electrons                                      12.00
    Total number of electrons                                              80.00
    Multiplicity                                                   not specified
    S   [  2.00  2.00  2.00  2.00  2.00] 2.00
    P   [  6.00  6.00  6.00  6.00]
    D   [ 10.00 10.00]10.00
    F   [ 14.00]


 *******************************************************************************
                  Iteration          Convergence                     Energy [au]
 *******************************************************************************
                          1        0.210049                     -40.869570517892
                          2        0.312388E-01                 -40.876434205133
                          3        0.579220E-03                 -40.876599518627
                          4        0.383036E-05                 -40.876599583869
                          5        0.195470E-05                 -40.876599583871
                          6        0.131097E-05                 -40.876599583871
                          7        0.121039E-08                 -40.876599583871

 Energy components [Hartree]           Total Energy ::          -40.876599583871
                                        Band Energy ::           -3.655835042487
                                     Kinetic Energy ::           27.978002492134
                                   Potential Energy ::          -68.854602076005
                                      Virial (-V/T) ::            2.461026375824
                                        Core Energy ::          -74.083385650180
                                          XC Energy ::           -5.818768304216
                                     Coulomb Energy ::           39.025554370524
                       Total Pseudopotential Energy ::         -102.186143001766
                       Local Pseudopotential Energy ::          -86.390117299763
                    Nonlocal Pseudopotential Energy ::          -15.796025702003
                                        Confinement ::            1.247548594525

 Orbital energies  State     L     Occupation   Energy[a.u.]          Energy[eV]

                       1     0          2.000      -0.220865           -6.010054

                       1     2         10.000      -0.321410           -8.746022


 Total Electron Density at R=0:                                         0.000001
 Re-scaling the density matrix to get the right number of electrons
                  # Electrons              Trace(P)               Scaling factor
                           24                24.000                        1.000


 SCF WAVEFUNCTION OPTIMIZATION

  Step     Update method      Time    Convergence         Total energy    Change
  ------------------------------------------------------------------------------
     1 NoMix/Diag. 0.10E+00    4.9     0.26824085       -82.3485730452 -8.23E+01
     2 Broy./Diag. 0.10E+00    5.2     0.00135647       -82.8934399954 -5.45E-01
     3 Broy./Diag. 0.10E+00    5.2     0.01958971       -82.4823809136  4.11E-01
     4 Broy./Diag. 0.10E+00    5.2     0.00070869       -82.2459902896  2.36E-01
     5 Broy./Diag. 0.10E+00    5.2     0.00417252       -82.2363525189  9.64E-03
     6 Broy./Diag. 0.10E+00    5.2     0.00019418       -82.2425483387 -6.20E-03
     7 Broy./Diag. 0.10E+00    5.2     0.00099700       -82.2501224082 -7.57E-03
     8 Broy./Diag. 0.10E+00    5.2     0.00002434       -82.2511024276 -9.80E-04
     9 Broy./Diag. 0.10E+00    5.2     0.00022056       -82.2502986115  8.04E-04
    10 Broy./Diag. 0.10E+00    5.2     0.00000474       -82.2500905943  2.08E-04
    11 Broy./Diag. 0.10E+00    5.2     0.00004103       -82.2499145077  1.76E-04
    12 Broy./Diag. 0.10E+00    5.2     0.00000127       -82.2498893063  2.52E-05
    13 Broy./Diag. 0.10E+00    5.2     0.00000570       -82.2499544727 -6.52E-05
    14 Broy./Diag. 0.10E+00    5.2     0.00000008       -82.2499656688 -1.12E-05
    15 Broy./Diag. 0.10E+00    5.2     0.00000068       -82.2499671096 -1.44E-06
    16 Broy./Diag. 0.10E+00    5.2     0.00000025       -82.2499675156 -4.06E-07
    17 Broy./Diag. 0.10E+00    5.3     0.00000020       -82.2499680107 -4.95E-07
    18 Broy./Diag. 0.10E+00    5.2     0.00000003       -82.2499675836  4.27E-07
    19 Broy./Diag. 0.10E+00    5.2     0.00000005       -82.2499667968  7.87E-07
    20 Broy./Diag. 0.10E+00    5.2     0.00000002       -82.2499667232  7.36E-08
    21 Broy./Diag. 0.10E+00    5.2     0.00000003       -82.2499668597 -1.37E-07
    22 Broy./Diag. 0.10E+00    5.2     2.4676E-09       -82.2499669315 -7.18E-08
    23 Broy./Diag. 0.10E+00    5.2     4.2493E-09       -82.2499670060 -7.45E-08
    24 Broy./Diag. 0.10E+00    5.2     2.6824E-09       -82.2499670209 -1.49E-08
    25 Broy./Diag. 0.10E+00    5.2     1.1103E-09       -82.2499670120  8.95E-09
    26 Broy./Diag. 0.10E+00    5.2     1.2015E-09       -82.2499670276 -1.56E-08
    27 Broy./Diag. 0.10E+00    5.2     1.5928E-10       -82.2499670352 -7.65E-09

  *** SCF run converged in    27 steps ***


  Electronic density on regular grids:        -24.0000000000       -0.0000000000
  Core density on regular grids:               24.0000000000        0.0000000000
  Total charge density on r-space grids:       -0.0000000000
  Total charge density g-space grids:          -0.0000000000

  Overlap energy of the core charge distribution:               0.00000000000028
  Self energy of the core charge distribution:               -142.53210531732793
  Core Hamiltonian energy:                                     43.79244420860091
  Hartree energy:                                              28.35839307781230
  Exchange-correlation energy:                                -11.86865693710769
  Electronic entropic energy:                                  -0.00004206721960
  Fermi energy:                                                 0.18172309438149

  Total energy:                                               -82.24996703524175

 !-----------------------------------------------------------------------------!
                     Mulliken Population Analysis

 #  Atom  Element  Kind  Atomic population                           Net charge
       1     Hg       1         12.000000                              0.000000
       2     Hg       1         12.000000                             -0.000000
 # Total charge                             24.000000                 -0.000000

 !-----------------------------------------------------------------------------!

 !-----------------------------------------------------------------------------!
                           Hirshfeld Charges

  #Atom  Element  Kind  Ref Charge     Population                    Net charge
      1       Hg     1      12.000         12.000                        -0.000
      2       Hg     1      12.000         12.000                        -0.000

  Total Charge                                                           -0.000
 !-----------------------------------------------------------------------------!
  
 -------------------------------------------------------------------------------
 -                                                                             -
 -                          BANDSTRUCTURE CALCULATION                          -
 -                                                                             -
 -------------------------------------------------------------------------------
  
 Number of occupied molecular orbitals (MOs) = Number of occupied bands       12
 Number of unoccupied (= virtual) MOs = Number of unoccupied bands            38
 Number of Gaussian basis functions for MOs                                   50
 Number of cells considered in the DFT calculation                          1048
 Number of cells for G, , W,                                               343
 Number of special k-points for the bandstructure                              4
 Number of k-points for the bandstructure                                    660

 SOC requested, SOC energy window:                                       10.0 eV

 
 SCF valence band maximum (eV):                                            6.233
 SCF conduction band minimum (eV):                                         4.401
 SCF indirect band gap (eV):                                              -1.832
 SCF direct band gap (eV):                                                 1.292
 
 SCF+SOC valence band maximum (eV):                                        6.233
 SCF+SOC conduction band minimum (eV):                                     4.402
 SCF+SOC indirect band gap (eV):                                          -1.831
 SCF+SOC direct band gap (eV):                                             1.295

 ENERGY| Total FORCE_EVAL ( QS ) energy [hartree]            -82.249967035241752

 -------------------------------------------------------------------------------
 -                                                                             -
 -                                DBCSR STATISTICS                             -
 -                                                                             -
 -------------------------------------------------------------------------------
 COUNTER                                    TOTAL       BLAS       SMM       ACC
 flops inhomo. stacks                           0       0.0%      0.0%      0.0%
 flops total                         0.000000E+00       0.0%      0.0%      0.0%
 flops max/rank                      0.000000E+00       0.0%      0.0%      0.0%
 matmuls inhomo. stacks                         0       0.0%      0.0%      0.0%
 matmuls total                                  0       0.0%      0.0%      0.0%
 number of processed stacks                     0       0.0%      0.0%      0.0%
 average stack size                                     0.0       0.0       0.0
 marketing flops                     0.000000E+00
 -------------------------------------------------------------------------------
 -                                                                             -
 -                      DBCSR MESSAGE PASSING PERFORMANCE                      -
 -                                                                             -
 -------------------------------------------------------------------------------
 ROUTINE             CALLS      AVE VOLUME [Bytes]
 MP_Bcast                1                     12.
 MP_Allreduce           19                     21.
 MP_Alltoall        704160                   4226.
 -------------------------------------------------------------------------------

 -------------------------------------------------------------------------------
 -                                                                             -
 -                                DBM STATISTICS                               -
 -                                                                             -
 -------------------------------------------------------------------------------
    M  x    N  x    K                                          COUNT     PERCENT
 -------------------------------------------------------------------------------

 -------------------------------------------------------------------------------
 -                                                                             -
 -                                GRID STATISTICS                              -
 -                                                                             -
 -------------------------------------------------------------------------------
 LP    KERNEL             BACKEND                              COUNT     PERCENT
 6     collocate ortho    CPU                                 448392      50.91%
 6     integrate ortho    CPU                                 432378      49.09%
 0     collocate general  CPU                                      4       0.00%
 0     integrate general  CPU                                      2       0.00%
 -------------------------------------------------------------------------------

 MEMORY| Estimated peak process memory [MiB]                                 605

 -------------------------------------------------------------------------------
[...]
 -                                                                             -
 -                           R E F E R E N C E S                               -
 -                                                                             -
 -------------------------------------------------------------------------------
 
 CP2K version 2025.1 (Development Version), the CP2K developers group (2025).
 CP2K is freely available from https://www.cp2k.org/ .
 
 T. D. Kuehne, M. Iannuzzi, M. Del Ben, V. V. Rybkin, P. Seewald, F. Stein, T. 
 Laino, R. Z. Khaliullin, O. Schuett, F. Schiffmann, D. Golze, J. Wilhelm, S. 
 Chulkov, M. H. Bani-Hashemian, V. Weber, U. Borstnik, M. Taillefumier, A. S. 
 Jakobovits, A. Lazzaro, H. Pabst, T. Mueller, R. Schade, M. Guidon, S. 
 Andermatt, N. Holmberg, G. K. Schenter, A. Hehn, A. Bussy, F. Belleflamme, G. 
 Tabacchi, A. Gloess, M. Lass, I. Bethune, C. J. Mundy, C. Plessl, M. Watkins, 
 J. VandeVondele, M. Krack, J. Hutter.
 J. Chem. Phys. 152, 194103 (2020).
 CP2K: An electronic structure and molecular dynamics software package - 
 Quickstep: Efficient and accurate electronic structure calculations.
 https://doi.org/10.1063/5.0007045

 O. Schuett, P. Messmer, J. Hutter, J. VandeVondele.
 Electronic Structure Calculations on Graphics Processing Units, 173-190 (2016).
 GPU-Accelerated Sparse Matrix-Matrix Multiplication for Linear Scaling Density 
 Functional Theory.
 https://doi.org/10.1002/9781118670712.ch8

 J. Hutter, M. Iannuzzi, F. Schiffmann, J. VandeVondele.
 WIREs Comput Mol Sci. 4, 15-25 (2014).
 CP2K: atomistic simulations of condensed matter systems.
 https://doi.org/10.1002/wcms.1159

 U. Borstnik, J. VandeVondele, V. Weber, J. Hutter.
 Parallel Comput. 40, 47-58 (2014).
 Sparse matrix multiplication: The distributed block-compressed sparse row 
 library.
 https://doi.org/10.1016/j.parco.2014.03.012

 J. VandeVondele, J. Hutter.
 J. Chem. Phys. 127, 114105 (2007).
 Gaussian basis sets for accurate calculations on molecular systems in gas and 
 condensed phases.
 https://doi.org/10.1063/1.2770708

 J. VandeVondele, M. Krack, F. Mohamed, M. Parrinello, T. Chassaing, J. Hutter.
 Comput. Phys. Commun. 167, 103-128 (2005).
 QUICKSTEP: Fast and accurate density functional calculations using a mixed 
 Gaussian and plane waves approach.
 https://doi.org/10.1016/j.cpc.2004.12.014

 M. Krack.
 Theor. Chem. Acc. 114, 145-152 (2005).
 Pseudopotentials for H to Kr optimized for gradient-corrected 
 exchange-correlation functionals.
 https://doi.org/10.1007/s00214-005-0655-y

 M. Frigo, S. G. Johnson.
 Proc. IEEE 93, 216-231 (2005).
 The design and implementation of FFTW3.
 https://doi.org/10.1109/JPROC.2004.840301

 C. Hartwigsen, S. Goedecker, J. Hutter.
 Phys. Rev. B 58, 3641-3662 (1998).
 Relativistic separable dual-space Gaussian pseudopotentials from H to Rn.
 https://doi.org/10.1103/PhysRevB.58.3641

 G. Lippert, J. Hutter, M. Parrinello.
 Mol. Phys. 92, 477-487 (1997).
 A hybrid Gaussian and plane wave density functional scheme.
 https://doi.org/10.1080/002689797170220

 S. Goedecker, M. Teter, J. Hutter.
 Phys. Rev. B 54, 1703-1710 (1996).
 Separable dual-space Gaussian pseudopotentials.
 https://doi.org/10.1103/PhysRevB.54.1703

 J. P. Perdew, K. Burke, M. Ernzerhof.
 Phys. Rev. Lett. 77, 3865-3868 (1996).
 Generalized gradient approximation made simple.
 https://doi.org/10.1103/PhysRevLett.77.3865


 -------------------------------------------------------------------------------
 -                                                                             -
 -                                T I M I N G                                  -
 -                                                                             -
 -------------------------------------------------------------------------------
 SUBROUTINE                       CALLS  ASD         SELF TIME        TOTAL TIME
                                MAXIMUM       AVERAGE  MAXIMUM  AVERAGE  MAXIMUM
 CP2K                                 1  1.0    0.014    0.018  174.617  174.617
 qs_energies                          1  2.0    0.004    0.004  174.367  174.375
 scf_env_do_scf                       1  3.0    0.000    0.000  141.154  141.154
 scf_env_do_scf_inner_loop           27  4.0    0.025    0.027  141.154  141.154
 qs_scf_new_mos_kp                   27  5.0    0.000    0.000  128.884  130.445
 do_general_diag_kp                  27  6.0    0.146    0.165  128.884  130.445
 mp_alltoall_i22                 120764  9.0  101.227  124.560  101.227  124.560
 dbcsr_desymmetrize_deep          70594  7.7    1.046    1.219   79.340   96.352
 rskp_transform                   17124  7.2   15.066   80.743   15.066   80.743
 dbcsr_complete_redistribute      50170  8.4    1.616    1.838   40.299   46.509
 kpoint_density_transform            27  7.0    0.065    0.079   37.184   37.291
 copy_fm_to_dbcsr                 13824  8.0    0.080    0.090   29.760   35.701
 transform_dmat                    6912  8.0    5.950   32.171    5.950   32.171
 qs_energies_properties               1  3.0    0.000    0.000   31.728   31.736
 post_scf_bandstructure               1  4.0    0.000    0.000   31.728   31.735
 rsmat_to_kp                       3300  7.0    0.052    0.057   19.700   19.734
 copy_dbcsr_to_fm                 36346  7.1    0.358    0.391   16.574   16.928
 soc                                  1  5.0    0.001    0.001   13.907   13.907
 H_KS_spinor_kp                       1  6.0    0.010    0.011   13.333   13.654
 create_and_init_bs_env               1  5.0    0.000    0.000   12.166   12.166
 compute_cfm_mo_coeff_kp_and_ei       1  6.0    0.005    0.005   12.163   12.163
 qs_ks_update_qs_env                 27  5.0    0.000    0.000    3.256   10.080
 cp_cfm_heevd                      3708  7.8    0.005    0.005    9.423    9.436
 cp_cfm_heevd_base                 3708  8.8    9.419    9.432    9.419    9.432
 rebuild_ks_matrix                   27  6.0    0.000    0.000    2.424    9.248
 qs_ks_build_kohn_sham_matrix        27  7.0    0.048    0.050    2.424    9.248
 sum_up_and_integrate                27  8.0    0.000    0.000    1.782    8.582
 integrate_v_rspace                  27  9.0    0.020    0.102    1.781    8.581
 grid_integrate_task_list            27 10.0    1.567    8.309    1.567    8.309
 transfer_rs2pw                     114  8.0    0.001    0.002    5.734    7.050
 transfer_rs2pw_500                  30  8.9    0.047    0.049    5.696    7.008
 mp_sendrecv_dv                     798 10.0    5.676    6.994    5.676    6.994
 qs_rho_update_rho_low               28  5.0    0.000    0.000    6.645    6.661
 calculate_rho_elec                  28  6.0    0.015    0.028    6.644    6.661
 density_rs2pw                       28  7.0    0.001    0.001    5.350    6.553
 grid_collocate_task_list            28  7.0    1.277    6.352    1.277    6.352
 dos_pdos_ldos                        1  5.0    0.005    0.005    5.655    5.664
 cp_cfm_geeig_canon                1524  7.0    0.011    0.011    5.347    5.357
 SOC_ev                             660  6.0    0.011    0.011    5.277    5.283
 dbcsr_finalize                  168872  8.6    0.594    0.656    3.948    4.247
 cp_fm_start_copy_general         41472  7.3    0.572    0.848    3.395    3.461
 mp_cart_sub                      72694  9.1    3.000    3.023    3.000    3.023
 mp_alltoall_d11v                362292  9.5    2.737    2.989    2.737    2.989
 dbcsr_merge_all                  53314 10.4    1.270    1.543    2.177    2.481
 cp_dbcsr_alloc_block_from_nbl    21434  6.6    0.404    1.995    0.462    2.183
 hybrid_alltoall_any              70594  8.7    0.274    0.302    1.911    2.122
 mp_cart_create                   36352  9.1    1.681    1.737    1.681    1.737
 V_SOC_xyz_from_pseudopotential       1  6.0    0.031    0.032    0.574    1.707
 mp_alltoall_i11v                221104  9.1    1.542    1.599    1.542    1.599
 mp_allgather_i                   82944  8.3    1.433    1.559    1.433    1.559
 mp_sum_iv                         1340  8.9    1.217    1.557    1.217    1.557
 write_kpoints_restart               27  5.0    0.008    0.016    1.536    1.536
 alloc_cfm_double_array_1d            1  7.0    0.001    0.001    1.148    1.470
 create_cfm_double                  660  8.0    0.005    0.006    1.147    1.469
 dbcsr_work_create               123908  9.0    0.686    0.746    1.147    1.289
 dbcsr_create_new                258577  8.1    0.911    0.975    1.113    1.192
 mp_bcast_iv                     165915  8.3    0.988    1.132    0.988    1.132
 dbcsr_dot                        56593  8.0    0.244    0.370    0.993    1.036
 dbcsr_iterator_start            413669  9.0    0.822    0.835    0.935    0.987
 dbcsr_data_new                 1334130  9.8    0.821    0.940    0.821    0.940
 cp_cfm_gemm                       7872  8.4    0.872    0.891    0.872    0.891
 dbcsr_work_destroy_all          123908 10.0    0.559    0.582    0.842    0.873
 dbcsr_copy                       74608  7.0    0.380    0.437    0.670    0.866
 evaluate_core_matrix_traces         27  6.0    0.000    0.000    0.831    0.831
 calculate_ptrace_kp                 54  7.0    0.041    0.041    0.831    0.831
 mp_sum_d                         57227  8.9    0.705    0.808    0.705    0.808
 qs_energies_init_hamiltonians        1  3.0    0.000    0.000    0.798    0.798
 copy_dbcsr_to_fm_bc              36346  8.1    0.343    0.363    0.766    0.787
 tree_to_linear_d                 50170 11.4    0.715    0.736    0.715    0.736
 add_cfm_submat                    5280  7.0    0.045    0.046    0.679    0.730
 dbcsr_data_release             1888987 10.2    0.640    0.683    0.640    0.683
 dbcsr_destroy                   198841  8.1    0.316    0.341    0.613    0.664
 parallel_gemm_cfm                 3300  7.0    0.003    0.004    0.639    0.657
 parallel_gemm_cfm_gemm            3300  8.0    0.003    0.004    0.636    0.654
 copy_fm_to_dbcsr_bc              13824  9.0    0.175    0.195    0.590    0.642
 build_core_hamiltonian_matrix        1  4.0    0.004    0.004    0.174    0.635
 cp_fm_to_fm_submat               10560  8.0    0.574    0.625    0.574    0.625
 dbcsr_iterator_stop             413669  9.0    0.515    0.531    0.603    0.622
 qs_env_update_s_mstruct              1  4.0    0.000    0.000    0.508    0.603
 calculate_rho_core                   1  5.0    0.001    0.002    0.473    0.593
 cp_fm_write_unformatted           2096  6.0    0.419    0.570    0.424    0.591
 self_consistency_check              27  5.0    0.040    0.042    0.556    0.580
 cp_sm_mix                        28296  6.0    0.080    0.152    0.475    0.505
 init_scf_run                         1  3.0    0.000    0.000    0.459    0.502
 scf_env_initial_rho_setup            1  4.0    0.000    0.000    0.459    0.502
 fft_wrap_pw1pw2                    491 10.0    0.004    0.004    0.443    0.468
 add_to_DOS_PDOS                   1320  6.5    0.457    0.461    0.457    0.461
 dbcsr_add_d                       3144  7.0    0.003    0.003    0.203    0.443
 dbcsr_add_anytype                 3144  8.0    0.011    0.037    0.200    0.440
 kpoint_set_mo_occupation            27  7.0    0.412    0.414    0.433    0.439
 fft_wrap_pw1pw2_500                326 11.3    0.032    0.034    0.401    0.427
 quick_finalize                   70594  9.7    0.181    0.234    0.295    0.398
 fft3d_ps                           491 12.0    0.153    0.160    0.352    0.377
 mp_max_d                         28298  7.0    0.327    0.376    0.327    0.376
 build_core_ppnl                      2  6.0    0.118    0.358    0.118    0.358
 mp_comm_free                    109735  9.1    0.322    0.352    0.322    0.352
 dbcsr_copy_into_existing         14872  9.7    0.111    0.240    0.194    0.325
 qs_vxc_create                       27  8.0    0.000    0.000    0.300    0.300
 xc_vxc_pw_create                    27  9.0    0.013    0.014    0.299    0.300
 mp_bcast_im                      82944  8.3    0.233    0.296    0.233    0.296
 mp_waitall_1                    171835  8.4    0.146    0.290    0.146    0.290
 dbcsr_set                       151599  7.7    0.135    0.143    0.197    0.289
 gspace_mixing                       26  5.0    0.011    0.011    0.270    0.270
 mixing_allocate                      1  3.0    0.006    0.006    0.065    0.269
 dbcsr_reserve_blocks             35258  9.0    0.103    0.224    0.120    0.256
 calculate_first_density_matrix       1  5.0    0.001    0.001    0.211    0.254
 calculate_atomic_block_dm            1  6.0    0.001    0.001    0.208    0.252
 broyden_mixing                      26  6.0    0.217    0.221    0.226    0.226
 compute_proj_mo_on_kind            660  6.0    0.013    0.014    0.199    0.222
 potential_pw2rs                     27 10.0    0.001    0.002    0.194    0.218
 cp_fm_finish_copy_general        17280  7.8    0.158    0.179    0.178    0.209
 mp_alltoall_z22v                   491 14.0    0.160    0.188    0.160    0.188
 xc_pw_derive                       162 11.0    0.000    0.000    0.185    0.187
 xc_rho_set_and_dset_create          27 10.0    0.008    0.009    0.159    0.162
 kpoint_density_matrices             27  7.0    0.011    0.011    0.142    0.155
 dbcsr_iterator_seek             413669 10.0    0.113    0.153    0.113    0.153
 dbcsr_sort_indices              156022 11.0    0.083    0.150    0.083    0.150
 dbcsr_make_index_exist          258577  9.1    0.126    0.148    0.126    0.148
 dbcsr_zero                      151599  8.7    0.062    0.146    0.062    0.146
 build_overlap_matrix_low             1  5.0    0.013    0.043    0.038    0.141
 parallel_gemm_fm                  3456  8.0    0.003    0.003    0.128    0.140
 parallel_gemm_fm_gemm             3456  9.0    0.003    0.003    0.125    0.137
 build_core_ppl                       1  5.0    0.026    0.135    0.026    0.135
 build_kinetic_matrix_low             1  5.0    0.012    0.038    0.037    0.135
 cp_fm_gemm                        3456 10.0    0.122    0.134    0.122    0.134
 calculate_ecore_overlap              1  4.0    0.000    0.000    0.107    0.133
 transfer_pw2rs                     109 11.0    0.001    0.001    0.124    0.125
 xc_pw_divergence                    27 10.0    0.000    0.000    0.123    0.125
 dbcsr_scale_anytype               3145  9.0    0.023    0.027    0.115    0.125
 yz_to_x                            221 12.8    0.013    0.013    0.097    0.123
 parser_read_line                  8521  4.0    0.003    0.003    0.108    0.110
 merge_index                      53314 11.4    0.093    0.108    0.093    0.108
 parser_read_line_low                26  6.1    0.010    0.040    0.105    0.107
 broadcast_input_information         26  7.1    0.030    0.040    0.095    0.102
 qs_env_rebuild_rho                   1  5.0    0.000    0.000    0.028    0.102
 qs_rho_rebuild                       1  6.0    0.003    0.003    0.028    0.102
 dbcsr_reserve_all_blocks         13824 10.0    0.019    0.022    0.091    0.100
 x_to_yz                            270 13.2    0.022    0.023    0.098    0.100
 transfer_pw2rs_500                  28 11.9    0.047    0.053    0.091    0.095
 qs_scf_ensure_work_matrices          1  3.0    0.000    0.000    0.075    0.092
 dbcsr_switch_data_area           70594 10.7    0.064    0.065    0.083    0.085
 mp_irecv_iv                     165888  8.3    0.010    0.082    0.010    0.082
 create_qs_kind_set                   1  2.0    0.000    0.000    0.081    0.082
 read_qs_kind                         1  3.0    0.041    0.044    0.081    0.082
 topology_control                     1  2.0    0.000    0.000    0.074    0.074
 mp_isend_dv                      41472  8.3    0.065    0.071    0.065    0.071
 write_SOC_eigenvalues              148  6.0    0.009    0.069    0.009    0.069
 cp_fm_cleanup_copy_general       29376  7.1    0.036    0.039    0.055    0.058
 mp_isend_iv                      93312  8.3    0.015    0.056    0.015    0.056
 xc_functional_eval                  27 11.0    0.000    0.000    0.055    0.056
 pbe_lda_eval                        27 12.0    0.055    0.055    0.055    0.055
 scf_post_calculation_gpw             1  3.0    0.000    0.000    0.054    0.054
 write_available_results              1  4.0    0.000    0.000    0.053    0.053
 write_mo_free_results                1  5.0    0.001    0.001    0.053    0.053
 dbcsr_data_copy_aa2              50170 11.2    0.029    0.053    0.029    0.053
 read_cell_cif                        2  4.5    0.002    0.005    0.051    0.052
 mp_bcast_i_src                     104  8.1    0.039    0.046    0.039    0.046
 dbcsr_get_data_size_used        123908 10.0    0.040    0.046    0.040    0.046
 mp_sum_dv                         1346  7.0    0.034    0.045    0.034    0.045
 coordinate_control                   1  3.0    0.001    0.001    0.045    0.045
 coordinate_control_READ_COORDI       1  4.0    0.000    0.000    0.045    0.045
 read_coordinate_cif                  1  5.0    0.002    0.002    0.045    0.045
 dbcsr_distribution_new           50172  8.6    0.037    0.044    0.037    0.044
 qs_create_task_list                  1  5.0    0.000    0.000    0.008    0.041
 generate_qs_task_list                1  6.0    0.006    0.032    0.008    0.041
 dbcsr_make_dbcsr_index          159166 11.0    0.037    0.041    0.037    0.041
 cp_cfm_scale_and_add_fm          14016  7.8    0.038    0.040    0.038    0.040
 mp_irecv_im2                     82944  8.3    0.005    0.040    0.005    0.040
 mp_isendrecv_dv                    763 13.0    0.012    0.034    0.012    0.034
 qs_init_subsys                       1  2.0    0.002    0.002    0.033    0.033
 qs_env_setup                         1  3.0    0.000    0.000    0.030    0.030
 qs_env_rebuild_pw_env                2  3.5    0.000    0.000    0.029    0.030
 pw_env_rebuild                       1  5.0    0.000    0.000    0.029    0.030
 transfer_rs2pw_170                  28  9.0    0.007    0.008    0.026    0.029
 pw_scatter_p                       270 12.2    0.029    0.029    0.029    0.029
 pw_poisson_solve                    27  8.0    0.000    0.000    0.029    0.029
 cp_fm_create                     22674  7.9    0.026    0.028    0.026    0.028
 mp_bcast_am_src                     26  8.1    0.015    0.016    0.026    0.027
 mp_sum_dm3                          27  8.0    0.021    0.027    0.021    0.027
 mp_isend_im2                     46656  8.3    0.006    0.026    0.006    0.026
 transfer_pw2rs_170                  27 12.0    0.008    0.008    0.023    0.026
 mp_irecv_dv                      41472  8.3    0.024    0.025    0.024    0.025
 hirshfeld_integration                1  6.0    0.005    0.022    0.025    0.025
 fft_wrap_pw1pw2_170                 55 10.5    0.002    0.002    0.021    0.023
 mp_recv_dv                        6288  7.0    0.003    0.021    0.003    0.021
 calculate_hirshfeld_normalizat       1  6.0    0.004    0.018    0.020    0.021
 pw_grid_setup                        4  6.0    0.000    0.000    0.019    0.020
 pw_grid_setup_internal               4  7.0    0.001    0.001    0.019    0.020
 -------------------------------------------------------------------------------

 The number of warnings for this run is : 1
 
 -------------------------------------------------------------------------------
  **** **** ******  **  PROGRAM ENDED AT                 2025-08-07 23:36:35.379
 ***** ** ***  *** **   PROGRAM RAN ON                              i04r07c05s05
 **    ****   ******    PROGRAM RAN BY                                   di38fab
 ***** **    ** ** **   PROGRAM PROCESS ID                               1254252
  **** **  *******  **  PROGRAM STOPPED IN /hppfs/scratch/04/di38fab/09_GTH/Delt
                                           a_Set/Hg/aug-SZV-MOLOPT-GTH-tier-2/8x
                                           8x8
