 DBCSR| CPU Multiplication driver                                           BLAS (U)
 DBCSR| Multrec recursion limit                                              512 (U)
 DBCSR| Multiplication stack size                                           1000 (D)
 DBCSR| Maximum elements for images                                    UNLIMITED (U)
 DBCSR| Multiplicative factor virtual images                                   1 (U)
 DBCSR| Use multiplication densification                                       T (D)
 DBCSR| Multiplication size stacks                                             3 (U)
 DBCSR| Use memory pool for CPU allocation                                     F (U)
 DBCSR| Number of 3D layers                                               SINGLE (U)
 DBCSR| Use MPI memory allocation                                              F (U)
 DBCSR| Use RMA algorithm                                                      F (U)
 DBCSR| Use Communication thread                                               T (U)
 DBCSR| Communication thread load                                             45 (D)
 DBCSR| MPI: My process id                                                     0
 DBCSR| MPI: Number of processes                                               8
 DBCSR| OMP: Current number of threads                                        12
 DBCSR| OMP: Max number of threads                                            12
 DBCSR| Split modifier for TAS multiplication algorithm                  1.0E+00 (U)


  **** **** ******  **  PROGRAM STARTED AT               2025-08-04 04:21:02.218
 ***** ** ***  *** **   PROGRAM STARTED ON                          i05r10c05s12
 **    ****   ******    PROGRAM STARTED BY                               di38fab
 ***** **    ** ** **   PROGRAM PROCESS ID                               2103868
  **** **  *******  **  PROGRAM STARTED IN /hppfs/scratch/04/di38fab/09_GTH/Delt
                                           a_Set/Zr/TZV2P-MOLOPT-PBE-GTH/8x8x8

 CP2K| version string:                 CP2K version 2025.1 (Development Version)
 CP2K| source code revision number:                                  git:3130539
 CP2K| cp2kflags: omp libint fftw3 libxc parallel scalapack max_contr=4         
 CP2K| is freely available from                            https://www.cp2k.org/
 CP2K| Program compiled at                         Tue Jun  3 16:14:32 CEST 2025
 CP2K| Program compiled on                                               login01
 CP2K| Program compiled for                                        Supermuc-foss
 CP2K| Data directory path                  /hppfs/work/pn36zo/di38fab/cp2k/data
 CP2K| Input file name                                                    GW.inp

 GLOBAL| Force Environment number                                              1
 GLOBAL| Basis set file name            /hppfs/scratch/04/di38fab/09_GTH/BASIS_A
 GLOBAL| Potential file name            /hppfs/work/pn36zo/di38fab/cp2k/data/GTH
 GLOBAL| MM Potential file name                                     MM_POTENTIAL
 GLOBAL| Coordinate file name                                             Zr.cif
 GLOBAL| Method name                                                        CP2K
 GLOBAL| Project name                                                       WSe2
 GLOBAL| Run type                                                         ENERGY
 GLOBAL| FFT library                                                       FFTW3
 GLOBAL| Diagonalization library                                       ScaLAPACK
 GLOBAL| Cholesky decomposition library                                ScaLAPACK
 GLOBAL| DGEMM library                                                      BLAS
 GLOBAL| Orthonormality check for eigenvectors                          DISABLED
 GLOBAL| Matrix multiplication library                                 ScaLAPACK
 GLOBAL| All-to-all communication in single precision                          F
 GLOBAL| FFTs using library dependent lengths                                  F
 GLOBAL| Grid backend                                                       AUTO
 GLOBAL| Global print level                                               MEDIUM
 GLOBAL| MPI I/O enabled                                                       T
 GLOBAL| Total number of message passing processes                             8
 GLOBAL| Number of threads for this process                                   12
 GLOBAL| This output is from process                                           0
 GLOBAL| OpenMP stack size per thread (OMP_STACKSIZE)                    default
 GLOBAL| CPU model name             Intel(R) Xeon(R) Platinum 8174 CPU @ 3.10GHz

 MEMORY| system memory details [Kb]
 MEMORY|                        rank 0           min           max       average
 MEMORY| MemTotal             98436660      98436660      98436660      98436660
 MEMORY| MemFree              86275264      86275264      86485408      86380336
 MEMORY| Buffers                     0             0             0             0
 MEMORY| Cached                2351324       2336764       2351324       2344044
 MEMORY| Slab                  1036612        974836       1036612       1005724
 MEMORY| SReclaimable           248448        217220        248448        232834
 MEMORY| MemLikelyFree        88875036      88875036      89039392      88957214


 *** Fundamental physical constants (SI units) ***

 *** Literature: B. J. Mohr and B. N. Taylor,
 ***             CODATA recommended values of the fundamental physical
 ***             constants: 2006, Web Version 5.1
 ***             http://physics.nist.gov/constants

 Speed of light in vacuum [m/s]                             2.99792458000000E+08
 Magnetic constant or permeability of vacuum [N/A**2]       1.25663706143592E-06
 Electric constant or permittivity of vacuum [F/m]          8.85418781762039E-12
 Planck constant (h) [J*s]                                  6.62606896000000E-34
 Planck constant (h-bar) [J*s]                              1.05457162825177E-34
 Elementary charge [C]                                      1.60217648700000E-19
 Electron mass [kg]                                         9.10938215000000E-31
 Electron g factor [ ]                                     -2.00231930436220E+00
 Proton mass [kg]                                           1.67262163700000E-27
 Fine-structure constant                                    7.29735253760000E-03
 Rydberg constant [1/m]                                     1.09737315685270E+07
 Avogadro constant [1/mol]                                  6.02214179000000E+23
 Boltzmann constant [J/K]                                   1.38065040000000E-23
 Atomic mass unit [kg]                                      1.66053878200000E-27
 Bohr radius [m]                                            5.29177208590000E-11

 *** Conversion factors ***

 [u] -> [a.u.]                                              1.82288848426455E+03
 [Angstrom] -> [Bohr] = [a.u.]                              1.88972613288564E+00
 [a.u.] = [Bohr] -> [Angstrom]                              5.29177208590000E-01
 [a.u.] -> [s]                                              2.41888432650478E-17
 [a.u.] -> [fs]                                             2.41888432650478E-02
 [a.u.] -> [J]                                              4.35974393937059E-18
 [a.u.] -> [N]                                              8.23872205491840E-08
 [a.u.] -> [K]                                              3.15774647902944E+05
 [a.u.] -> [kJ/mol]                                         2.62549961709828E+03
 [a.u.] -> [kcal/mol]                                       6.27509468713739E+02
 [a.u.] -> [Pa]                                             2.94210107994716E+13
 [a.u.] -> [bar]                                            2.94210107994716E+08
 [a.u.] -> [atm]                                            2.90362800883016E+08
 [a.u.] -> [eV]                                             2.72113838565563E+01
 [a.u.] -> [Hz]                                             6.57968392072181E+15
 [a.u.] -> [1/cm] (wave numbers)                            2.19474631370540E+05
 [a.u./Bohr**2] -> [1/cm]                                   5.14048714338585E+03
 

 CELL_TOP| Volume [angstrom^3]:                                        47.063447
 CELL_TOP| Vector a [angstrom     3.236     0.000     0.000   |a| =     3.236030
 CELL_TOP| Vector b [angstrom     1.618     2.802     0.000   |b| =     3.236030
 CELL_TOP| Vector c [angstrom     0.000     0.000     5.190   |c| =     5.189530
 CELL_TOP| Angle (b,c), alpha [degree]:                                90.000000
 CELL_TOP| Angle (a,c), beta  [degree]:                                90.000000
 CELL_TOP| Angle (a,b), gamma [degree]:                                60.000000
 CELL_TOP| Numerically orthorhombic:                                          NO
 CELL_TOP| Periodicity                                                       XYZ

 CELL_CIF| Volume [angstrom^3]:                                        47.063447
 CELL_CIF| Vector a [angstrom     3.236     0.000     0.000   |a| =     3.236030
 CELL_CIF| Vector b [angstrom     1.618     2.802     0.000   |b| =     3.236030
 CELL_CIF| Vector c [angstrom     0.000     0.000     5.190   |c| =     5.189530
 CELL_CIF| Angle (b,c), alpha [degree]:                                90.000000
 CELL_CIF| Angle (a,c), beta  [degree]:                                90.000000
 CELL_CIF| Angle (a,b), gamma [degree]:                                60.000000
 CELL_CIF| Numerically orthorhombic:                                          NO
 CELL_CIF| Periodicity                                                       XYZ

 GENERATE|  Preliminary Number of Bonds generated:                             0
 GENERATE|  Achieved consistency in connectivity generation.

 CELL| Volume [angstrom^3]:                                            47.063447
 CELL| Vector a [angstrom]:       3.236     0.000     0.000   |a| =     3.236030
 CELL| Vector b [angstrom]:       1.618     2.802     0.000   |b| =     3.236030
 CELL| Vector c [angstrom]:       0.000     0.000     5.190   |c| =     5.189530
 CELL| Angle (b,c), alpha [degree]:                                    90.000000
 CELL| Angle (a,c), beta  [degree]:                                    90.000000
 CELL| Angle (a,b), gamma [degree]:                                    60.000000
 CELL| Numerically orthorhombic:                                              NO
 CELL| Periodicity                                                           XYZ

 CELL_REF| Volume [angstrom^3]:                                        47.063447
 CELL_REF| Vector a [angstrom     3.236     0.000     0.000   |a| =     3.236030
 CELL_REF| Vector b [angstrom     1.618     2.802     0.000   |b| =     3.236030
 CELL_REF| Vector c [angstrom     0.000     0.000     5.190   |c| =     5.189530
 CELL_REF| Angle (b,c), alpha [degree]:                                90.000000
 CELL_REF| Angle (a,c), beta  [degree]:                                90.000000
 CELL_REF| Angle (a,b), gamma [degree]:                                60.000000
 CELL_REF| Numerically orthorhombic:                                          NO
 CELL_REF| Periodicity                                                       XYZ

 *** WARNING in cryssym.F:180 :: Symmetry library SPGLIB not available ***


 *******************************************************************************
                                    Kpoints
 *******************************************************************************
 BRILLOUIN| K-point scheme                                        Monkhorst-Pack
 BRILLOUIN| K-Point grid                                             8    8    8
 BRILLOUIN| Accuracy in Symmetry determination                      0.100000E-05
 BRILLOUIN| K-Point point group symmetrization                               OFF
 BRILLOUIN| Wavefunction type                                            COMPLEX
 BRILLOUIN| List of Kpoints [2 Pi/Bohr]                                      256
 BRILLOUIN| Number           Weight            X              Y              Z
 BRILLOUIN|     1           0.00391       -0.43750       -0.43750       -0.43750
 BRILLOUIN|     2           0.00391       -0.43750       -0.43750       -0.31250
 BRILLOUIN|     3           0.00391       -0.43750       -0.43750       -0.18750
 BRILLOUIN|     4           0.00391       -0.43750       -0.43750       -0.06250
 BRILLOUIN|     5           0.00391       -0.43750       -0.43750        0.06250
 BRILLOUIN|     6           0.00391       -0.43750       -0.43750        0.18750
 BRILLOUIN|     7           0.00391       -0.43750       -0.43750        0.31250
 BRILLOUIN|     8           0.00391       -0.43750       -0.43750        0.43750
 BRILLOUIN|     9           0.00391       -0.43750       -0.31250       -0.43750
 BRILLOUIN|    10           0.00391       -0.43750       -0.31250       -0.31250
 BRILLOUIN|    11           0.00391       -0.43750       -0.31250       -0.18750
 BRILLOUIN|    12           0.00391       -0.43750       -0.31250       -0.06250
 BRILLOUIN|    13           0.00391       -0.43750       -0.31250        0.06250
 BRILLOUIN|    14           0.00391       -0.43750       -0.31250        0.18750
 BRILLOUIN|    15           0.00391       -0.43750       -0.31250        0.31250
 BRILLOUIN|    16           0.00391       -0.43750       -0.31250        0.43750
 BRILLOUIN|    17           0.00391       -0.43750       -0.18750       -0.43750
 BRILLOUIN|    18           0.00391       -0.43750       -0.18750       -0.31250
 BRILLOUIN|    19           0.00391       -0.43750       -0.18750       -0.18750
 BRILLOUIN|    20           0.00391       -0.43750       -0.18750       -0.06250
 BRILLOUIN|    21           0.00391       -0.43750       -0.18750        0.06250
 BRILLOUIN|    22           0.00391       -0.43750       -0.18750        0.18750
 BRILLOUIN|    23           0.00391       -0.43750       -0.18750        0.31250
 BRILLOUIN|    24           0.00391       -0.43750       -0.18750        0.43750
 BRILLOUIN|    25           0.00391       -0.43750       -0.06250       -0.43750
 BRILLOUIN|    26           0.00391       -0.43750       -0.06250       -0.31250
 BRILLOUIN|    27           0.00391       -0.43750       -0.06250       -0.18750
 BRILLOUIN|    28           0.00391       -0.43750       -0.06250       -0.06250
 BRILLOUIN|    29           0.00391       -0.43750       -0.06250        0.06250
 BRILLOUIN|    30           0.00391       -0.43750       -0.06250        0.18750
 BRILLOUIN|    31           0.00391       -0.43750       -0.06250        0.31250
 BRILLOUIN|    32           0.00391       -0.43750       -0.06250        0.43750
 BRILLOUIN|    33           0.00391       -0.43750        0.06250       -0.43750
 BRILLOUIN|    34           0.00391       -0.43750        0.06250       -0.31250
 BRILLOUIN|    35           0.00391       -0.43750        0.06250       -0.18750
 BRILLOUIN|    36           0.00391       -0.43750        0.06250       -0.06250
 BRILLOUIN|    37           0.00391       -0.43750        0.06250        0.06250
 BRILLOUIN|    38           0.00391       -0.43750        0.06250        0.18750
 BRILLOUIN|    39           0.00391       -0.43750        0.06250        0.31250
 BRILLOUIN|    40           0.00391       -0.43750        0.06250        0.43750
 BRILLOUIN|    41           0.00391       -0.43750        0.18750       -0.43750
 BRILLOUIN|    42           0.00391       -0.43750        0.18750       -0.31250
 BRILLOUIN|    43           0.00391       -0.43750        0.18750       -0.18750
 BRILLOUIN|    44           0.00391       -0.43750        0.18750       -0.06250
 BRILLOUIN|    45           0.00391       -0.43750        0.18750        0.06250
 BRILLOUIN|    46           0.00391       -0.43750        0.18750        0.18750
 BRILLOUIN|    47           0.00391       -0.43750        0.18750        0.31250
 BRILLOUIN|    48           0.00391       -0.43750        0.18750        0.43750
 BRILLOUIN|    49           0.00391       -0.43750        0.31250       -0.43750
 BRILLOUIN|    50           0.00391       -0.43750        0.31250       -0.31250
 BRILLOUIN|    51           0.00391       -0.43750        0.31250       -0.18750
 BRILLOUIN|    52           0.00391       -0.43750        0.31250       -0.06250
 BRILLOUIN|    53           0.00391       -0.43750        0.31250        0.06250
 BRILLOUIN|    54           0.00391       -0.43750        0.31250        0.18750
 BRILLOUIN|    55           0.00391       -0.43750        0.31250        0.31250
 BRILLOUIN|    56           0.00391       -0.43750        0.31250        0.43750
 BRILLOUIN|    57           0.00391       -0.43750        0.43750       -0.43750
 BRILLOUIN|    58           0.00391       -0.43750        0.43750       -0.31250
 BRILLOUIN|    59           0.00391       -0.43750        0.43750       -0.18750
 BRILLOUIN|    60           0.00391       -0.43750        0.43750       -0.06250
 BRILLOUIN|    61           0.00391       -0.43750        0.43750        0.06250
 BRILLOUIN|    62           0.00391       -0.43750        0.43750        0.18750
 BRILLOUIN|    63           0.00391       -0.43750        0.43750        0.31250
 BRILLOUIN|    64           0.00391       -0.43750        0.43750        0.43750
 BRILLOUIN|    65           0.00391       -0.31250       -0.43750       -0.43750
 BRILLOUIN|    66           0.00391       -0.31250       -0.43750       -0.31250
 BRILLOUIN|    67           0.00391       -0.31250       -0.43750       -0.18750
 BRILLOUIN|    68           0.00391       -0.31250       -0.43750       -0.06250
 BRILLOUIN|    69           0.00391       -0.31250       -0.43750        0.06250
 BRILLOUIN|    70           0.00391       -0.31250       -0.43750        0.18750
 BRILLOUIN|    71           0.00391       -0.31250       -0.43750        0.31250
 BRILLOUIN|    72           0.00391       -0.31250       -0.43750        0.43750
 BRILLOUIN|    73           0.00391       -0.31250       -0.31250       -0.43750
 BRILLOUIN|    74           0.00391       -0.31250       -0.31250       -0.31250
 BRILLOUIN|    75           0.00391       -0.31250       -0.31250       -0.18750
 BRILLOUIN|    76           0.00391       -0.31250       -0.31250       -0.06250
 BRILLOUIN|    77           0.00391       -0.31250       -0.31250        0.06250
 BRILLOUIN|    78           0.00391       -0.31250       -0.31250        0.18750
 BRILLOUIN|    79           0.00391       -0.31250       -0.31250        0.31250
 BRILLOUIN|    80           0.00391       -0.31250       -0.31250        0.43750
 BRILLOUIN|    81           0.00391       -0.31250       -0.18750       -0.43750
 BRILLOUIN|    82           0.00391       -0.31250       -0.18750       -0.31250
 BRILLOUIN|    83           0.00391       -0.31250       -0.18750       -0.18750
 BRILLOUIN|    84           0.00391       -0.31250       -0.18750       -0.06250
 BRILLOUIN|    85           0.00391       -0.31250       -0.18750        0.06250
 BRILLOUIN|    86           0.00391       -0.31250       -0.18750        0.18750
 BRILLOUIN|    87           0.00391       -0.31250       -0.18750        0.31250
 BRILLOUIN|    88           0.00391       -0.31250       -0.18750        0.43750
 BRILLOUIN|    89           0.00391       -0.31250       -0.06250       -0.43750
 BRILLOUIN|    90           0.00391       -0.31250       -0.06250       -0.31250
 BRILLOUIN|    91           0.00391       -0.31250       -0.06250       -0.18750
 BRILLOUIN|    92           0.00391       -0.31250       -0.06250       -0.06250
 BRILLOUIN|    93           0.00391       -0.31250       -0.06250        0.06250
 BRILLOUIN|    94           0.00391       -0.31250       -0.06250        0.18750
 BRILLOUIN|    95           0.00391       -0.31250       -0.06250        0.31250
 BRILLOUIN|    96           0.00391       -0.31250       -0.06250        0.43750
 BRILLOUIN|    97           0.00391       -0.31250        0.06250       -0.43750
 BRILLOUIN|    98           0.00391       -0.31250        0.06250       -0.31250
 BRILLOUIN|    99           0.00391       -0.31250        0.06250       -0.18750
 BRILLOUIN|   100           0.00391       -0.31250        0.06250       -0.06250
 BRILLOUIN|   101           0.00391       -0.31250        0.06250        0.06250
 BRILLOUIN|   102           0.00391       -0.31250        0.06250        0.18750
 BRILLOUIN|   103           0.00391       -0.31250        0.06250        0.31250
 BRILLOUIN|   104           0.00391       -0.31250        0.06250        0.43750
 BRILLOUIN|   105           0.00391       -0.31250        0.18750       -0.43750
 BRILLOUIN|   106           0.00391       -0.31250        0.18750       -0.31250
 BRILLOUIN|   107           0.00391       -0.31250        0.18750       -0.18750
 BRILLOUIN|   108           0.00391       -0.31250        0.18750       -0.06250
 BRILLOUIN|   109           0.00391       -0.31250        0.18750        0.06250
 BRILLOUIN|   110           0.00391       -0.31250        0.18750        0.18750
 BRILLOUIN|   111           0.00391       -0.31250        0.18750        0.31250
 BRILLOUIN|   112           0.00391       -0.31250        0.18750        0.43750
 BRILLOUIN|   113           0.00391       -0.31250        0.31250       -0.43750
 BRILLOUIN|   114           0.00391       -0.31250        0.31250       -0.31250
 BRILLOUIN|   115           0.00391       -0.31250        0.31250       -0.18750
 BRILLOUIN|   116           0.00391       -0.31250        0.31250       -0.06250
 BRILLOUIN|   117           0.00391       -0.31250        0.31250        0.06250
 BRILLOUIN|   118           0.00391       -0.31250        0.31250        0.18750
 BRILLOUIN|   119           0.00391       -0.31250        0.31250        0.31250
 BRILLOUIN|   120           0.00391       -0.31250        0.31250        0.43750
 BRILLOUIN|   121           0.00391       -0.31250        0.43750       -0.43750
 BRILLOUIN|   122           0.00391       -0.31250        0.43750       -0.31250
 BRILLOUIN|   123           0.00391       -0.31250        0.43750       -0.18750
 BRILLOUIN|   124           0.00391       -0.31250        0.43750       -0.06250
 BRILLOUIN|   125           0.00391       -0.31250        0.43750        0.06250
 BRILLOUIN|   126           0.00391       -0.31250        0.43750        0.18750
 BRILLOUIN|   127           0.00391       -0.31250        0.43750        0.31250
 BRILLOUIN|   128           0.00391       -0.31250        0.43750        0.43750
 BRILLOUIN|   129           0.00391       -0.18750       -0.43750       -0.43750
 BRILLOUIN|   130           0.00391       -0.18750       -0.43750       -0.31250
 BRILLOUIN|   131           0.00391       -0.18750       -0.43750       -0.18750
 BRILLOUIN|   132           0.00391       -0.18750       -0.43750       -0.06250
 BRILLOUIN|   133           0.00391       -0.18750       -0.43750        0.06250
 BRILLOUIN|   134           0.00391       -0.18750       -0.43750        0.18750
 BRILLOUIN|   135           0.00391       -0.18750       -0.43750        0.31250
 BRILLOUIN|   136           0.00391       -0.18750       -0.43750        0.43750
 BRILLOUIN|   137           0.00391       -0.18750       -0.31250       -0.43750
 BRILLOUIN|   138           0.00391       -0.18750       -0.31250       -0.31250
 BRILLOUIN|   139           0.00391       -0.18750       -0.31250       -0.18750
 BRILLOUIN|   140           0.00391       -0.18750       -0.31250       -0.06250
 BRILLOUIN|   141           0.00391       -0.18750       -0.31250        0.06250
 BRILLOUIN|   142           0.00391       -0.18750       -0.31250        0.18750
 BRILLOUIN|   143           0.00391       -0.18750       -0.31250        0.31250
 BRILLOUIN|   144           0.00391       -0.18750       -0.31250        0.43750
 BRILLOUIN|   145           0.00391       -0.18750       -0.18750       -0.43750
 BRILLOUIN|   146           0.00391       -0.18750       -0.18750       -0.31250
 BRILLOUIN|   147           0.00391       -0.18750       -0.18750       -0.18750
 BRILLOUIN|   148           0.00391       -0.18750       -0.18750       -0.06250
 BRILLOUIN|   149           0.00391       -0.18750       -0.18750        0.06250
 BRILLOUIN|   150           0.00391       -0.18750       -0.18750        0.18750
 BRILLOUIN|   151           0.00391       -0.18750       -0.18750        0.31250
 BRILLOUIN|   152           0.00391       -0.18750       -0.18750        0.43750
 BRILLOUIN|   153           0.00391       -0.18750       -0.06250       -0.43750
 BRILLOUIN|   154           0.00391       -0.18750       -0.06250       -0.31250
 BRILLOUIN|   155           0.00391       -0.18750       -0.06250       -0.18750
 BRILLOUIN|   156           0.00391       -0.18750       -0.06250       -0.06250
 BRILLOUIN|   157           0.00391       -0.18750       -0.06250        0.06250
 BRILLOUIN|   158           0.00391       -0.18750       -0.06250        0.18750
 BRILLOUIN|   159           0.00391       -0.18750       -0.06250        0.31250
 BRILLOUIN|   160           0.00391       -0.18750       -0.06250        0.43750
 BRILLOUIN|   161           0.00391       -0.18750        0.06250       -0.43750
 BRILLOUIN|   162           0.00391       -0.18750        0.06250       -0.31250
 BRILLOUIN|   163           0.00391       -0.18750        0.06250       -0.18750
 BRILLOUIN|   164           0.00391       -0.18750        0.06250       -0.06250
 BRILLOUIN|   165           0.00391       -0.18750        0.06250        0.06250
 BRILLOUIN|   166           0.00391       -0.18750        0.06250        0.18750
 BRILLOUIN|   167           0.00391       -0.18750        0.06250        0.31250
 BRILLOUIN|   168           0.00391       -0.18750        0.06250        0.43750
 BRILLOUIN|   169           0.00391       -0.18750        0.18750       -0.43750
 BRILLOUIN|   170           0.00391       -0.18750        0.18750       -0.31250
 BRILLOUIN|   171           0.00391       -0.18750        0.18750       -0.18750
 BRILLOUIN|   172           0.00391       -0.18750        0.18750       -0.06250
 BRILLOUIN|   173           0.00391       -0.18750        0.18750        0.06250
 BRILLOUIN|   174           0.00391       -0.18750        0.18750        0.18750
 BRILLOUIN|   175           0.00391       -0.18750        0.18750        0.31250
 BRILLOUIN|   176           0.00391       -0.18750        0.18750        0.43750
 BRILLOUIN|   177           0.00391       -0.18750        0.31250       -0.43750
 BRILLOUIN|   178           0.00391       -0.18750        0.31250       -0.31250
 BRILLOUIN|   179           0.00391       -0.18750        0.31250       -0.18750
 BRILLOUIN|   180           0.00391       -0.18750        0.31250       -0.06250
 BRILLOUIN|   181           0.00391       -0.18750        0.31250        0.06250
 BRILLOUIN|   182           0.00391       -0.18750        0.31250        0.18750
 BRILLOUIN|   183           0.00391       -0.18750        0.31250        0.31250
 BRILLOUIN|   184           0.00391       -0.18750        0.31250        0.43750
 BRILLOUIN|   185           0.00391       -0.18750        0.43750       -0.43750
 BRILLOUIN|   186           0.00391       -0.18750        0.43750       -0.31250
 BRILLOUIN|   187           0.00391       -0.18750        0.43750       -0.18750
 BRILLOUIN|   188           0.00391       -0.18750        0.43750       -0.06250
 BRILLOUIN|   189           0.00391       -0.18750        0.43750        0.06250
 BRILLOUIN|   190           0.00391       -0.18750        0.43750        0.18750
 BRILLOUIN|   191           0.00391       -0.18750        0.43750        0.31250
 BRILLOUIN|   192           0.00391       -0.18750        0.43750        0.43750
 BRILLOUIN|   193           0.00391       -0.06250       -0.43750       -0.43750
 BRILLOUIN|   194           0.00391       -0.06250       -0.43750       -0.31250
 BRILLOUIN|   195           0.00391       -0.06250       -0.43750       -0.18750
 BRILLOUIN|   196           0.00391       -0.06250       -0.43750       -0.06250
 BRILLOUIN|   197           0.00391       -0.06250       -0.43750        0.06250
 BRILLOUIN|   198           0.00391       -0.06250       -0.43750        0.18750
 BRILLOUIN|   199           0.00391       -0.06250       -0.43750        0.31250
 BRILLOUIN|   200           0.00391       -0.06250       -0.43750        0.43750
 BRILLOUIN|   201           0.00391       -0.06250       -0.31250       -0.43750
 BRILLOUIN|   202           0.00391       -0.06250       -0.31250       -0.31250
 BRILLOUIN|   203           0.00391       -0.06250       -0.31250       -0.18750
 BRILLOUIN|   204           0.00391       -0.06250       -0.31250       -0.06250
 BRILLOUIN|   205           0.00391       -0.06250       -0.31250        0.06250
 BRILLOUIN|   206           0.00391       -0.06250       -0.31250        0.18750
 BRILLOUIN|   207           0.00391       -0.06250       -0.31250        0.31250
 BRILLOUIN|   208           0.00391       -0.06250       -0.31250        0.43750
 BRILLOUIN|   209           0.00391       -0.06250       -0.18750       -0.43750
 BRILLOUIN|   210           0.00391       -0.06250       -0.18750       -0.31250
 BRILLOUIN|   211           0.00391       -0.06250       -0.18750       -0.18750
 BRILLOUIN|   212           0.00391       -0.06250       -0.18750       -0.06250
 BRILLOUIN|   213           0.00391       -0.06250       -0.18750        0.06250
 BRILLOUIN|   214           0.00391       -0.06250       -0.18750        0.18750
 BRILLOUIN|   215           0.00391       -0.06250       -0.18750        0.31250
 BRILLOUIN|   216           0.00391       -0.06250       -0.18750        0.43750
 BRILLOUIN|   217           0.00391       -0.06250       -0.06250       -0.43750
 BRILLOUIN|   218           0.00391       -0.06250       -0.06250       -0.31250
 BRILLOUIN|   219           0.00391       -0.06250       -0.06250       -0.18750
 BRILLOUIN|   220           0.00391       -0.06250       -0.06250       -0.06250
 BRILLOUIN|   221           0.00391       -0.06250       -0.06250        0.06250
 BRILLOUIN|   222           0.00391       -0.06250       -0.06250        0.18750
 BRILLOUIN|   223           0.00391       -0.06250       -0.06250        0.31250
 BRILLOUIN|   224           0.00391       -0.06250       -0.06250        0.43750
 BRILLOUIN|   225           0.00391       -0.06250        0.06250       -0.43750
 BRILLOUIN|   226           0.00391       -0.06250        0.06250       -0.31250
 BRILLOUIN|   227           0.00391       -0.06250        0.06250       -0.18750
 BRILLOUIN|   228           0.00391       -0.06250        0.06250       -0.06250
 BRILLOUIN|   229           0.00391       -0.06250        0.06250        0.06250
 BRILLOUIN|   230           0.00391       -0.06250        0.06250        0.18750
 BRILLOUIN|   231           0.00391       -0.06250        0.06250        0.31250
 BRILLOUIN|   232           0.00391       -0.06250        0.06250        0.43750
 BRILLOUIN|   233           0.00391       -0.06250        0.18750       -0.43750
 BRILLOUIN|   234           0.00391       -0.06250        0.18750       -0.31250
 BRILLOUIN|   235           0.00391       -0.06250        0.18750       -0.18750
 BRILLOUIN|   236           0.00391       -0.06250        0.18750       -0.06250
 BRILLOUIN|   237           0.00391       -0.06250        0.18750        0.06250
 BRILLOUIN|   238           0.00391       -0.06250        0.18750        0.18750
 BRILLOUIN|   239           0.00391       -0.06250        0.18750        0.31250
 BRILLOUIN|   240           0.00391       -0.06250        0.18750        0.43750
 BRILLOUIN|   241           0.00391       -0.06250        0.31250       -0.43750
 BRILLOUIN|   242           0.00391       -0.06250        0.31250       -0.31250
 BRILLOUIN|   243           0.00391       -0.06250        0.31250       -0.18750
 BRILLOUIN|   244           0.00391       -0.06250        0.31250       -0.06250
 BRILLOUIN|   245           0.00391       -0.06250        0.31250        0.06250
 BRILLOUIN|   246           0.00391       -0.06250        0.31250        0.18750
 BRILLOUIN|   247           0.00391       -0.06250        0.31250        0.31250
 BRILLOUIN|   248           0.00391       -0.06250        0.31250        0.43750
 BRILLOUIN|   249           0.00391       -0.06250        0.43750       -0.43750
 BRILLOUIN|   250           0.00391       -0.06250        0.43750       -0.31250
 BRILLOUIN|   251           0.00391       -0.06250        0.43750       -0.18750
 BRILLOUIN|   252           0.00391       -0.06250        0.43750       -0.06250
 BRILLOUIN|   253           0.00391       -0.06250        0.43750        0.06250
 BRILLOUIN|   254           0.00391       -0.06250        0.43750        0.18750
 BRILLOUIN|   255           0.00391       -0.06250        0.43750        0.31250
 BRILLOUIN|   256           0.00391       -0.06250        0.43750        0.43750
 *******************************************************************************

 *******************************************************************************
 *******************************************************************************
 **                                                                           **
 **     #####                         ##              ##                      **
 **    ##   ##            ##          ##              ##                      **
 **   ##     ##                       ##            ######                    **
 **   ##     ##  ##   ##  ##   #####  ##  ##   ####   ##    #####    #####    **
 **   ##     ##  ##   ##  ##  ##      ## ##   ##      ##   ##   ##  ##   ##   **
 **   ##  ## ##  ##   ##  ##  ##      ####     ###    ##   ######   ######    **
 **    ##  ###   ##   ##  ##  ##      ## ##      ##   ##   ##       ##        **
 **     #######   #####   ##   #####  ##  ##  ####    ##    #####   ##        **
 **           ##                                                    ##        **
 **                                                                           **
 **                                                ... make the atoms dance   **
 **                                                                           **
 **            Copyright (C) by CP2K developers group (2000-2025)             **
 **                      J. Chem. Phys. 152, 194103 (2020)                    **
 **                                                                           **
 *******************************************************************************

 DFT| Spin restricted Kohn-Sham (RKS) calculation                            RKS
 DFT| Multiplicity                                                             1
 DFT| Number of spin states                                                    1
 DFT| Charge                                                                   0
 DFT| Self-interaction correction (SIC)                                       NO
 DFT| Cutoffs: density                                              1.000000E-10
 DFT|          gradient                                             1.000000E-10
 DFT|          tau                                                  1.000000E-10
 DFT|          cutoff_smoothing_range                               0.000000E+00
 DFT| XC density smoothing                                                  NONE
 DFT| XC derivatives                                                          PW

 FUNCTIONAL| PBE:
 FUNCTIONAL| J.P.Perdew, K.Burke, M.Ernzerhof, Phys. Rev. Letter, vol. 77, n 18,
 FUNCTIONAL|  pp. 3865-3868, (1996) {spin unpolarized}                          


 QS| Method:                                                                 GPW
 QS| Density plane wave grid type                        NON-SPHERICAL FULLSPACE
 QS| Number of grid levels:                                                    4
 QS| Density cutoff [a.u.]:                                                500.0
 QS| Multi grid cutoff [a.u.]: 1) grid level                               500.0
 QS|                           2) grid level                               166.7
 QS|                           3) grid level                                55.6
 QS|                           4) grid level                                18.5
 QS| Grid level progression factor:                                          3.0
 QS| Relative density cutoff [a.u.]:                                        50.0
 QS| Interaction thresholds: eps_pgf_orb:                                1.0E-16
 QS|                         eps_filter_matrix:                          0.0E+00
 QS|                         eps_core_charge:                            1.0E-18
 QS|                         eps_rho_gspace:                             1.0E-16
 QS|                         eps_rho_rspace:                             1.0E-16
 QS|                         eps_gvg_rspace:                             1.0E-08
 QS|                         eps_ppl:                                    1.0E-02
 QS|                         eps_ppnl:                                   1.0E-10


 ATOMIC KIND INFORMATION

  1. Atomic kind: Zr                                    Number of atoms:       2

     Orbital Basis Set                                  TZV2P-MOLOPT-GGA-GTH-q12

       Number of orbital shell sets:                                           1
       Number of orbital shells:                                              12
       Number of primitive Cartesian functions:                                7
       Number of Cartesian basis functions:                                   51
       Number of spherical basis functions:                                   42
       Norm type:                                                              2

       Normalised Cartesian orbitals:

                        Set   Shell   Orbital            Exponent    Coefficient

                          1       1    2s                8.137097      -0.151339
                                                         2.756113       0.564738
                                                         1.433057      -0.099677
                                                         0.621282      -0.142995
                                                         0.270613      -0.031249
                                                         0.116674      -0.070292
                                                         0.043421      -0.019846

                          1       2    3s                8.137097      -0.162372
                                                         2.756113       0.746968
                                                         1.433057      -0.232608
                                                         0.621282      -0.328562
                                                         0.270613      -0.109593
                                                         0.116674       0.060952
                                                         0.043421       0.054494

                          1       3    4s                8.137097      -0.124318
                                                         2.756113      -0.035008
                                                         1.433057       0.372211
                                                         0.621282       0.564035
                                                         0.270613      -0.247563
                                                         0.116674      -0.184510
                                                         0.043421       0.086871

                          1       4    5s                8.137097      -0.086911
                                                         2.756113       0.348360
                                                         1.433057      -0.029312
                                                         0.621282      -0.016439
                                                         0.270613       0.241852
                                                         0.116674      -0.037947
                                                         0.043421       0.028863

                          1       5    3px               8.137097      -0.245958
                                                         2.756113       0.925399
                                                         1.433057      -0.647744
                                                         0.621282      -0.332247
                                                         0.270613      -0.055458
                                                         0.116674      -0.023154
                                                         0.043421      -0.006786
                          1       5    3py               8.137097      -0.245958
                                                         2.756113       0.925399
                                                         1.433057      -0.647744
                                                         0.621282      -0.332247
                                                         0.270613      -0.055458
                                                         0.116674      -0.023154
                                                         0.043421      -0.006786
                          1       5    3pz               8.137097      -0.245958
                                                         2.756113       0.925399
                                                         1.433057      -0.647744
                                                         0.621282      -0.332247
                                                         0.270613      -0.055458
                                                         0.116674      -0.023154
                                                         0.043421      -0.006786

                          1       6    4px               8.137097      -0.119525
                                                         2.756113       0.582861
                                                         1.433057      -0.448370
                                                         0.621282      -0.324872
                                                         0.270613      -0.018655
                                                         0.116674       0.052118
                                                         0.043421       0.016411
                          1       6    4py               8.137097      -0.119525
                                                         2.756113       0.582861
                                                         1.433057      -0.448370
                                                         0.621282      -0.324872
                                                         0.270613      -0.018655
                                                         0.116674       0.052118
                                                         0.043421       0.016411
                          1       6    4pz               8.137097      -0.119525
                                                         2.756113       0.582861
                                                         1.433057      -0.448370
                                                         0.621282      -0.324872
                                                         0.270613      -0.018655
                                                         0.116674       0.052118
                                                         0.043421       0.016411

                          1       7    5px               8.137097      -0.525039
                                                         2.756113       0.445728
                                                         1.433057       0.671385
                                                         0.621282       0.365302
                                                         0.270613      -0.457181
                                                         0.116674       0.036049
                                                         0.043421      -0.003264
                          1       7    5py               8.137097      -0.525039
                                                         2.756113       0.445728
                                                         1.433057       0.671385
                                                         0.621282       0.365302
                                                         0.270613      -0.457181
                                                         0.116674       0.036049
                                                         0.043421      -0.003264
                          1       7    5pz               8.137097      -0.525039
                                                         2.756113       0.445728
                                                         1.433057       0.671385
                                                         0.621282       0.365302
                                                         0.270613      -0.457181
                                                         0.116674       0.036049
                                                         0.043421      -0.003264

                          1       8    4dx2              8.137097      -0.048754
                                                         2.756113      -0.209149
                                                         1.433057       0.551968
                                                         0.621282       0.281131
                                                         0.270613       0.068282
                                                         0.116674       0.008235
                                                         0.043421       0.000324
                          1       8    4dxy              8.137097      -0.084444
                                                         2.756113      -0.362257
                                                         1.433057       0.956036
                                                         0.621282       0.486932
                                                         0.270613       0.118268
                                                         0.116674       0.014264
                                                         0.043421       0.000560
                          1       8    4dxz              8.137097      -0.084444
                                                         2.756113      -0.362257
                                                         1.433057       0.956036
                                                         0.621282       0.486932
                                                         0.270613       0.118268
                                                         0.116674       0.014264
                                                         0.043421       0.000560
                          1       8    4dy2              8.137097      -0.048754
                                                         2.756113      -0.209149
                                                         1.433057       0.551968
                                                         0.621282       0.281131
                                                         0.270613       0.068282
                                                         0.116674       0.008235
                                                         0.043421       0.000324
                          1       8    4dyz              8.137097      -0.084444
                                                         2.756113      -0.362257
                                                         1.433057       0.956036
                                                         0.621282       0.486932
                                                         0.270613       0.118268
                                                         0.116674       0.014264
                                                         0.043421       0.000560
                          1       8    4dz2              8.137097      -0.048754
                                                         2.756113      -0.209149
                                                         1.433057       0.551968
                                                         0.621282       0.281131
                                                         0.270613       0.068282
                                                         0.116674       0.008235
                                                         0.043421       0.000324

                          1       9    5dx2              8.137097       0.105223
                                                         2.756113       0.097401
                                                         1.433057      -0.207295
                                                         0.621282      -0.229180
                                                         0.270613      -0.011269
                                                         0.116674       0.025522
                                                         0.043421       0.003224
                          1       9    5dxy              8.137097       0.182251
                                                         2.756113       0.168704
                                                         1.433057      -0.359046
                                                         0.621282      -0.396951
                                                         0.270613      -0.019519
                                                         0.116674       0.044205
                                                         0.043421       0.005585
                          1       9    5dxz              8.137097       0.182251
                                                         2.756113       0.168704
                                                         1.433057      -0.359046
                                                         0.621282      -0.396951
                                                         0.270613      -0.019519
                                                         0.116674       0.044205
                                                         0.043421       0.005585
                          1       9    5dy2              8.137097       0.105223
                                                         2.756113       0.097401
                                                         1.433057      -0.207295
                                                         0.621282      -0.229180
                                                         0.270613      -0.011269
                                                         0.116674       0.025522
                                                         0.043421       0.003224
                          1       9    5dyz              8.137097       0.182251
                                                         2.756113       0.168704
                                                         1.433057      -0.359046
                                                         0.621282      -0.396951
                                                         0.270613      -0.019519
                                                         0.116674       0.044205
                                                         0.043421       0.005585
                          1       9    5dz2              8.137097       0.105223
                                                         2.756113       0.097401
                                                         1.433057      -0.207295
                                                         0.621282      -0.229180
                                                         0.270613      -0.011269
                                                         0.116674       0.025522
                                                         0.043421       0.003224

                          1      10    6dx2              8.137097      -0.024344
                                                         2.756113       0.506202
                                                         1.433057      -1.791153
                                                         0.621282      -0.474575
                                                         0.270613       0.209364
                                                         0.116674      -0.033628
                                                         0.043421       0.005971
                          1      10    6dxy              8.137097      -0.042165
                                                         2.756113       0.876768
                                                         1.433057      -3.102367
                                                         0.621282      -0.821988
                                                         0.270613       0.362628
                                                         0.116674      -0.058245
                                                         0.043421       0.010341
                          1      10    6dxz              8.137097      -0.042165
                                                         2.756113       0.876768
                                                         1.433057      -3.102367
                                                         0.621282      -0.821988
                                                         0.270613       0.362628
                                                         0.116674      -0.058245
                                                         0.043421       0.010341
                          1      10    6dy2              8.137097      -0.024344
                                                         2.756113       0.506202
                                                         1.433057      -1.791153
                                                         0.621282      -0.474575
                                                         0.270613       0.209364
                                                         0.116674      -0.033628
                                                         0.043421       0.005971
                          1      10    6dyz              8.137097      -0.042165
                                                         2.756113       0.876768
                                                         1.433057      -3.102367
                                                         0.621282      -0.821988
                                                         0.270613       0.362628
                                                         0.116674      -0.058245
                                                         0.043421       0.010341
                          1      10    6dz2              8.137097      -0.024344
                                                         2.756113       0.506202
                                                         1.433057      -1.791153
                                                         0.621282      -0.474575
                                                         0.270613       0.209364
                                                         0.116674      -0.033628
                                                         0.043421       0.005971

                          1      11    5fx3              8.137097       0.311669
                                                         2.756113       0.024510
                                                         1.433057      -0.364708
                                                         0.621282      -0.211762
                                                         0.270613      -0.047752
                                                         0.116674       0.000257
                                                         0.043421      -0.000040
                          1      11    5fx2y             8.137097       0.696913
                                                         2.756113       0.054806
                                                         1.433057      -0.815511
                                                         0.621282      -0.473515
                                                         0.270613      -0.106776
                                                         0.116674       0.000575
                                                         0.043421      -0.000089
                          1      11    5fx2z             8.137097       0.696913
                                                         2.756113       0.054806
                                                         1.433057      -0.815511
                                                         0.621282      -0.473515
                                                         0.270613      -0.106776
                                                         0.116674       0.000575
                                                         0.043421      -0.000089
                          1      11    5fxy2             8.137097       0.696913
                                                         2.756113       0.054806
                                                         1.433057      -0.815511
                                                         0.621282      -0.473515
                                                         0.270613      -0.106776
                                                         0.116674       0.000575
                                                         0.043421      -0.000089
                          1      11    5fxyz             8.137097       1.207089
                                                         2.756113       0.094926
                                                         1.433057      -1.412507
                                                         0.621282      -0.820152
                                                         0.270613      -0.184942
                                                         0.116674       0.000996
                                                         0.043421      -0.000154
                          1      11    5fxz2             8.137097       0.696913
                                                         2.756113       0.054806
                                                         1.433057      -0.815511
                                                         0.621282      -0.473515
                                                         0.270613      -0.106776
                                                         0.116674       0.000575
                                                         0.043421      -0.000089
                          1      11    5fy3              8.137097       0.311669
                                                         2.756113       0.024510
                                                         1.433057      -0.364708
                                                         0.621282      -0.211762
                                                         0.270613      -0.047752
                                                         0.116674       0.000257
                                                         0.043421      -0.000040
                          1      11    5fy2z             8.137097       0.696913
                                                         2.756113       0.054806
                                                         1.433057      -0.815511
                                                         0.621282      -0.473515
                                                         0.270613      -0.106776
                                                         0.116674       0.000575
                                                         0.043421      -0.000089
                          1      11    5fyz2             8.137097       0.696913
                                                         2.756113       0.054806
                                                         1.433057      -0.815511
                                                         0.621282      -0.473515
                                                         0.270613      -0.106776
                                                         0.116674       0.000575
                                                         0.043421      -0.000089
                          1      11    5fz3              8.137097       0.311669
                                                         2.756113       0.024510
                                                         1.433057      -0.364708
                                                         0.621282      -0.211762
                                                         0.270613      -0.047752
                                                         0.116674       0.000257
                                                         0.043421      -0.000040

                          1      12    6fx3              8.137097      -0.277212
                                                         2.756113       0.087517
                                                         1.433057      -0.378477
                                                         0.621282      -0.239213
                                                         0.270613       0.026440
                                                         0.116674       0.005705
                                                         0.043421       0.000546
                          1      12    6fx2y             8.137097      -0.619864
                                                         2.756113       0.195693
                                                         1.433057      -0.846301
                                                         0.621282      -0.534897
                                                         0.270613       0.059121
                                                         0.116674       0.012757
                                                         0.043421       0.001221
                          1      12    6fx2z             8.137097      -0.619864
                                                         2.756113       0.195693
                                                         1.433057      -0.846301
                                                         0.621282      -0.534897
                                                         0.270613       0.059121
                                                         0.116674       0.012757
                                                         0.043421       0.001221
                          1      12    6fxy2             8.137097      -0.619864
                                                         2.756113       0.195693
                                                         1.433057      -0.846301
                                                         0.621282      -0.534897
                                                         0.270613       0.059121
                                                         0.116674       0.012757
                                                         0.043421       0.001221
                          1      12    6fxyz             8.137097      -1.073637
                                                         2.756113       0.338951
                                                         1.433057      -1.465837
                                                         0.621282      -0.926468
                                                         0.270613       0.102401
                                                         0.116674       0.022095
                                                         0.043421       0.002115
                          1      12    6fxz2             8.137097      -0.619864
                                                         2.756113       0.195693
                                                         1.433057      -0.846301
                                                         0.621282      -0.534897
                                                         0.270613       0.059121
                                                         0.116674       0.012757
                                                         0.043421       0.001221
                          1      12    6fy3              8.137097      -0.277212
                                                         2.756113       0.087517
                                                         1.433057      -0.378477
                                                         0.621282      -0.239213
                                                         0.270613       0.026440
                                                         0.116674       0.005705
                                                         0.043421       0.000546
                          1      12    6fy2z             8.137097      -0.619864
                                                         2.756113       0.195693
                                                         1.433057      -0.846301
                                                         0.621282      -0.534897
                                                         0.270613       0.059121
                                                         0.116674       0.012757
                                                         0.043421       0.001221
                          1      12    6fyz2             8.137097      -0.619864
                                                         2.756113       0.195693
                                                         1.433057      -0.846301
                                                         0.621282      -0.534897
                                                         0.270613       0.059121
                                                         0.116674       0.012757
                                                         0.043421       0.001221
                          1      12    6fz3              8.137097      -0.277212
                                                         2.756113       0.087517
                                                         1.433057      -0.378477
                                                         0.621282      -0.239213
                                                         0.270613       0.026440
                                                         0.116674       0.005705
                                                         0.043421       0.000546

       Atomic covalent radius [Angstrom]:                                  1.450

       Atomic van der Waals radius [Angstrom]:                             1.920

     GTH Potential information for                                   GTH-PBE-q12

       Description:                       Goedecker-Teter-Hutter pseudopotential
                                           Goedecker et al., PRB 54, 1703 (1996)
                                          Hartwigsen et al., PRB 58, 3641 (1998)
                                                      Krack, TCA 114, 145 (2005)

       Gaussian exponent of the core charge distribution:               2.263468
       Electronic configuration (s p d ...):                           4   6   2

       Parameters of the local part of the GTH pseudopotential:

                          rloc        C1          C2          C3          C4
                        0.470000    7.796057   -1.893210

       Parameters of the non-local part of the GTH (SOC) pseudopotential:

                   l      r(l)      h(i,j,l)
                                    k(i,j,l)
                   0    0.259829   23.380874   -8.571939
                                   -8.571939   11.066326
                   1    0.288969    8.592766   -5.377358
                                   -5.377358    6.362576
                                    1.004906   -1.416118
                                   -1.416118    1.675573
                   2    0.581245    0.027811    0.276862
                                    0.276862   -0.313932
                                   -0.002553    0.010796
                                    0.010796   -0.012242


 MOLECULE KIND INFORMATION


 All atoms are their own molecule, skipping detailed information


 TOTAL NUMBERS AND MAXIMUM NUMBERS

  Total number of            - Atomic kinds:                                   1
                             - Atoms:                                          2
                             - Shell sets:                                     2
                             - Shells:                                        24
                             - Primitive Cartesian functions:                 14
                             - Cartesian basis functions:                    102
                             - Spherical basis functions:                     84

  Maximum angular momentum of- Orbital basis functions:                        3
                             - Local part of the GTH pseudopotential:          2
                             - Non-local part of the GTH pseudopotential:      4


 MODULE QUICKSTEP: ATOMIC COORDINATES IN ANGSTROM

   Atom Kind Element         X             Y             Z       Z(eff)     Mass
      1    1 Zr   40      0.000000      0.000000      0.000000  12.0000  91.2240
      2    1 Zr   40      1.617999      0.934152      2.594765  12.0000  91.2240



 SCF PARAMETERS         Density guess:                                    ATOMIC
                        --------------------------------------------------------
                        max_scf:                                             500
                        max_scf_history:                                       0
                        max_diis:                                              4
                        --------------------------------------------------------
                        eps_scf:                                        1.00E-09
                        eps_scf_history:                                0.00E+00
                        eps_diis:                                       1.00E-01
                        eps_eigval:                                     1.00E-05
                        --------------------------------------------------------
                        level_shift [a.u.]:                             0.000000
                        added MOs                                        72    0
                        --------------------------------------------------------
                        Mixing method:                            BROYDEN_MIXING
                                                charge density mixing in g-space
                        --------------------------------------------------------
                        Smear method:                                FERMI_DIRAC
                        Electronic temperature [K]:                        300.0
                        Electronic temperature [a.u.]:                  9.50E-04
                        Accuracy threshold:                             1.00E-10
                        --------------------------------------------------------
                        No outer SCF

 PW_GRID| Information for grid number                                          1
 PW_GRID| Grid distributed over                                     8 processors
 PW_GRID| Real space group dimensions                                     8    1
 PW_GRID| the grid is blocked:                                                NO
 PW_GRID| Cutoff [a.u.]                                                    500.0
 PW_GRID| spherical cutoff:                                                   NO
 PW_GRID|   Bounds   1            -32      31                Points:          64
 PW_GRID|   Bounds   2            -32      31                Points:          64
 PW_GRID|   Bounds   3            -50      49                Points:         100
 PW_GRID| Volume element (a.u.^3)  0.7754E-03     Volume (a.u.^3)       317.5999
 PW_GRID| Grid span                                                    FULLSPACE
 PW_GRID|   Distribution                         Average         Max         Min
 PW_GRID|   G-Vectors                            51200.0       51200       51200
 PW_GRID|   G-Rays                                 800.0         800         800
 PW_GRID|   Real Space Points                    51200.0       51200       51200

 PW_GRID| Information for grid number                                          2
 PW_GRID| Number of the reference grid                                         1
 PW_GRID| Grid distributed over                                     8 processors
 PW_GRID| Real space group dimensions                                     8    1
 PW_GRID| the grid is blocked:                                                NO
 PW_GRID| Cutoff [a.u.]                                                    166.7
 PW_GRID| spherical cutoff:                                                   NO
 PW_GRID|   Bounds   1            -18      17                Points:          36
 PW_GRID|   Bounds   2            -18      17                Points:          36
 PW_GRID|   Bounds   3            -30      29                Points:          60
 PW_GRID| Volume element (a.u.^3)  0.4084E-02     Volume (a.u.^3)       317.5999
 PW_GRID| Grid span                                                    FULLSPACE
 PW_GRID|   Distribution                         Average         Max         Min
 PW_GRID|   G-Vectors                             9720.0        9792        9612
 PW_GRID|   G-Rays                                 270.0         272         267
 PW_GRID|   Real Space Points                     9720.0       10800        8640

 PW_GRID| Information for grid number                                          3
 PW_GRID| Number of the reference grid                                         1
 PW_GRID| Grid distributed over                                     8 processors
 PW_GRID| Real space group dimensions                                     8    1
 PW_GRID| the grid is blocked:                                                NO
 PW_GRID| Cutoff [a.u.]                                                     55.6
 PW_GRID| spherical cutoff:                                                   NO
 PW_GRID|   Bounds   1            -12      11                Points:          24
 PW_GRID|   Bounds   2            -12      11                Points:          24
 PW_GRID|   Bounds   3            -18      17                Points:          36
 PW_GRID| Volume element (a.u.^3)  0.1532E-01     Volume (a.u.^3)       317.5999
 PW_GRID| Grid span                                                    FULLSPACE
 PW_GRID|   Distribution                         Average         Max         Min
 PW_GRID|   G-Vectors                             2592.0        2640        2520
 PW_GRID|   G-Rays                                 108.0         110         105
 PW_GRID|   Real Space Points                     2592.0        2592        2592

 PW_GRID| Information for grid number                                          4
 PW_GRID| Number of the reference grid                                         1
 PW_GRID| Grid distributed over                                     8 processors
 PW_GRID| Real space group dimensions                                     8    1
 PW_GRID| the grid is blocked:                                                NO
 PW_GRID| Cutoff [a.u.]                                                     18.5
 PW_GRID| spherical cutoff:                                                   NO
 PW_GRID|   Bounds   1             -6       5                Points:          12
 PW_GRID|   Bounds   2             -6       5                Points:          12
 PW_GRID|   Bounds   3            -10       9                Points:          20
 PW_GRID| Volume element (a.u.^3)  0.1103         Volume (a.u.^3)       317.5999
 PW_GRID| Grid span                                                    FULLSPACE
 PW_GRID|   Distribution                         Average         Max         Min
 PW_GRID|   G-Vectors                              360.0         384         336
 PW_GRID|   G-Rays                                  30.0          32          28
 PW_GRID|   Real Space Points                      360.0         480         240

 POISSON| Solver                                                        PERIODIC
 POISSON| Periodicity                                                        XYZ

 RS_GRID| Information for grid number                                          1
 RS_GRID|   Bounds   1            -32      31                Points:          64
 RS_GRID|   Bounds   2            -32      31                Points:          64
 RS_GRID|   Bounds   3            -50      49                Points:         100
 RS_GRID| Real space fully replicated
 RS_GRID| Group size                                                           1

 RS_GRID| Information for grid number                                          2
 RS_GRID|   Bounds   1            -18      17                Points:          36
 RS_GRID|   Bounds   2            -18      17                Points:          36
 RS_GRID|   Bounds   3            -30      29                Points:          60
 RS_GRID| Real space fully replicated
 RS_GRID| Group size                                                           1

 RS_GRID| Information for grid number                                          3
 RS_GRID|   Bounds   1            -12      11                Points:          24
 RS_GRID|   Bounds   2            -12      11                Points:          24
 RS_GRID|   Bounds   3            -18      17                Points:          36
 RS_GRID| Real space fully replicated
 RS_GRID| Group size                                                           1

 RS_GRID| Information for grid number                                          4
 RS_GRID|   Bounds   1             -6       5                Points:          12
 RS_GRID|   Bounds   2             -6       5                Points:          12
 RS_GRID|   Bounds   3            -10       9                Points:          20
 RS_GRID| Real space fully replicated
 RS_GRID| Group size                                                           1

 Number of electrons:                                                         24
 Number of occupied orbitals:                                                 12
 Number of molecular orbitals:                                                84

 Number of orbital functions:                                                 84
 Number of independent orbital functions:                                     84

 Extrapolation method: initial_guess

 Atomic guess: The first density matrix is obtained in terms of atomic orbitals
               and electronic configurations assigned to each atomic kind

 Guess for atomic kind: Zr

 Electronic structure
    Total number of core electrons                                         28.00
    Total number of valence electrons                                      12.00
    Total number of electrons                                              40.00
    Multiplicity                                                   not specified
    S   [  2.00  2.00  2.00] 2.00  2.00
    P   [  6.00  6.00] 6.00
    D   [ 10.00] 2.00


 *******************************************************************************
                  Iteration          Convergence                     Energy [au]
 *******************************************************************************
                          1        0.403883                     -46.589535486599
[...]
 KPOINTS| Time for k-point line                                           12.802

 ENERGY| Total FORCE_EVAL ( QS ) energy [hartree]            -94.244453277599462

 -------------------------------------------------------------------------------
 -                                                                             -
 -                                DBCSR STATISTICS                             -
 -                                                                             -
 -------------------------------------------------------------------------------
 COUNTER                                    TOTAL       BLAS       SMM       ACC
 flops inhomo. stacks                           0       0.0%      0.0%      0.0%
 flops total                         0.000000E+00       0.0%      0.0%      0.0%
 flops max/rank                      0.000000E+00       0.0%      0.0%      0.0%
 matmuls inhomo. stacks                         0       0.0%      0.0%      0.0%
 matmuls total                                  0       0.0%      0.0%      0.0%
 number of processed stacks                     0       0.0%      0.0%      0.0%
 average stack size                                     0.0       0.0       0.0
 marketing flops                     0.000000E+00
 -------------------------------------------------------------------------------
 -                                                                             -
 -                      DBCSR MESSAGE PASSING PERFORMANCE                      -
 -                                                                             -
 -------------------------------------------------------------------------------
 ROUTINE             CALLS      AVE VOLUME [Bytes]
 MP_Bcast                1                     12.
 MP_Allreduce           19                     21.
 MP_Alltoall        676080                  11059.
 -------------------------------------------------------------------------------

 -------------------------------------------------------------------------------
 -                                                                             -
 -                                DBM STATISTICS                               -
 -                                                                             -
 -------------------------------------------------------------------------------
    M  x    N  x    K                                          COUNT     PERCENT
 -------------------------------------------------------------------------------

 -------------------------------------------------------------------------------
 -                                                                             -
 -                                GRID STATISTICS                              -
 -                                                                             -
 -------------------------------------------------------------------------------
 LP    KERNEL             BACKEND                              COUNT     PERCENT
 6     collocate general  CPU                                 975154      50.88%
 6     integrate general  CPU                                 941528      49.12%
 0     collocate general  CPU                                      4       0.00%
 0     integrate general  CPU                                      2       0.00%
 -------------------------------------------------------------------------------

 MEMORY| Estimated peak process memory [MiB]                                1118

 -------------------------------------------------------------------------------
 ----                             MULTIGRID INFO                            ----
 -------------------------------------------------------------------------------
 count for grid        1:          87430          cutoff [a.u.]          500.00
 count for grid        2:          84918          cutoff [a.u.]          166.67
 count for grid        3:          51982          cutoff [a.u.]           55.56
 count for grid        4:          56214          cutoff [a.u.]           18.52
 total gridlevel count  :         280544

 -------------------------------------------------------------------------------
 -                                                                             -
 -                         MESSAGE PASSING PERFORMANCE                         -
 -                                                                             -
 -------------------------------------------------------------------------------

 ROUTINE             CALLS      AVE VOLUME [Bytes]
 MP_Group                6
 MP_Bcast           262713                  17297.
 MP_Allreduce       274929                     27.
 MP_Sync                 4
 MP_Alltoall           509                2271500.
 MP_SendRecv           826                 134881.
 MP_ISendRecv          791                 132617.
 MP_Wait            180715
 MP_comm_split           4
 MP_ISend           191564                   1617.
 MP_IRecv           305792                   1016.
 -------------------------------------------------------------------------------


 -------------------------------------------------------------------------------
 -                                                                             -
 -                           R E F E R E N C E S                               -
 -                                                                             -
 -------------------------------------------------------------------------------
 
 CP2K version 2025.1 (Development Version), the CP2K developers group (2025).
 CP2K is freely available from https://www.cp2k.org/ .
 
 T. D. Kuehne, M. Iannuzzi, M. Del Ben, V. V. Rybkin, P. Seewald, F. Stein, T. 
 Laino, R. Z. Khaliullin, O. Schuett, F. Schiffmann, D. Golze, J. Wilhelm, S. 
 Chulkov, M. H. Bani-Hashemian, V. Weber, U. Borstnik, M. Taillefumier, A. S. 
 Jakobovits, A. Lazzaro, H. Pabst, T. Mueller, R. Schade, M. Guidon, S. 
 Andermatt, N. Holmberg, G. K. Schenter, A. Hehn, A. Bussy, F. Belleflamme, G. 
 Tabacchi, A. Gloess, M. Lass, I. Bethune, C. J. Mundy, C. Plessl, M. Watkins, 
 J. VandeVondele, M. Krack, J. Hutter.
 J. Chem. Phys. 152, 194103 (2020).
 CP2K: An electronic structure and molecular dynamics software package - 
 Quickstep: Efficient and accurate electronic structure calculations.
 https://doi.org/10.1063/5.0007045

 O. Schuett, P. Messmer, J. Hutter, J. VandeVondele.
 Electronic Structure Calculations on Graphics Processing Units, 173-190 (2016).
 GPU-Accelerated Sparse Matrix-Matrix Multiplication for Linear Scaling Density 
 Functional Theory.
 https://doi.org/10.1002/9781118670712.ch8

 J. Hutter, M. Iannuzzi, F. Schiffmann, J. VandeVondele.
 WIREs Comput Mol Sci. 4, 15-25 (2014).
 CP2K: atomistic simulations of condensed matter systems.
 https://doi.org/10.1002/wcms.1159

 U. Borstnik, J. VandeVondele, V. Weber, J. Hutter.
 Parallel Comput. 40, 47-58 (2014).
 Sparse matrix multiplication: The distributed block-compressed sparse row 
 library.
 https://doi.org/10.1016/j.parco.2014.03.012

 J. VandeVondele, J. Hutter.
 J. Chem. Phys. 127, 114105 (2007).
 Gaussian basis sets for accurate calculations on molecular systems in gas and 
 condensed phases.
 https://doi.org/10.1063/1.2770708

 J. VandeVondele, M. Krack, F. Mohamed, M. Parrinello, T. Chassaing, J. Hutter.
 Comput. Phys. Commun. 167, 103-128 (2005).
 QUICKSTEP: Fast and accurate density functional calculations using a mixed 
 Gaussian and plane waves approach.
 https://doi.org/10.1016/j.cpc.2004.12.014

 M. Krack.
 Theor. Chem. Acc. 114, 145-152 (2005).
 Pseudopotentials for H to Kr optimized for gradient-corrected 
 exchange-correlation functionals.
 https://doi.org/10.1007/s00214-005-0655-y

 M. Frigo, S. G. Johnson.
 Proc. IEEE 93, 216-231 (2005).
 The design and implementation of FFTW3.
 https://doi.org/10.1109/JPROC.2004.840301

 C. Hartwigsen, S. Goedecker, J. Hutter.
 Phys. Rev. B 58, 3641-3662 (1998).
 Relativistic separable dual-space Gaussian pseudopotentials from H to Rn.
 https://doi.org/10.1103/PhysRevB.58.3641

 G. Lippert, J. Hutter, M. Parrinello.
 Mol. Phys. 92, 477-487 (1997).
 A hybrid Gaussian and plane wave density functional scheme.
 https://doi.org/10.1080/002689797170220

 S. Goedecker, M. Teter, J. Hutter.
 Phys. Rev. B 54, 1703-1710 (1996).
 Separable dual-space Gaussian pseudopotentials.
 https://doi.org/10.1103/PhysRevB.54.1703

 J. P. Perdew, K. Burke, M. Ernzerhof.
 Phys. Rev. Lett. 77, 3865-3868 (1996).
 Generalized gradient approximation made simple.
 https://doi.org/10.1103/PhysRevLett.77.3865


 -------------------------------------------------------------------------------
 -                                                                             -
 -                                T I M I N G                                  -
 -                                                                             -
 -------------------------------------------------------------------------------
 SUBROUTINE                       CALLS  ASD         SELF TIME        TOTAL TIME
                                MAXIMUM       AVERAGE  MAXIMUM  AVERAGE  MAXIMUM
 CP2K                                 1  1.0    0.024    0.028 1011.352 1011.352
 qs_energies                          1  2.0    0.015    0.049 1010.136 1010.158
 scf_env_do_scf                       1  3.0    0.000    0.000  987.113  987.113
 scf_env_do_scf_inner_loop           28  4.0    0.081    0.084  987.113  987.113
 do_general_diag_kp                  29  5.9    0.165    0.202  940.777  949.288
 qs_scf_new_mos_kp                   28  5.0    0.000    0.000  928.072  936.564
 mp_alltoall_i22                 115168  8.7  744.398  916.000  744.398  916.000
 dbcsr_desymmetrize_deep          65048  7.4    1.027    1.378  523.385  642.567
 rskp_transform                   14632  6.9  109.931  587.555  109.931  587.555
 dbcsr_complete_redistribute      50120  8.1    1.766    2.149  242.958  295.103
 kpoint_density_transform            28  7.0    0.111    0.131  286.175  287.096
 copy_fm_to_dbcsr                 14336  8.0    0.085    0.099  231.390  283.259
 transform_dmat                    7168  8.0   52.053  278.378   52.053  278.378
 qs_ks_update_qs_env                 28  5.0    0.000    0.000   13.830   51.360
 rebuild_ks_matrix                   28  6.0    0.000    0.000   10.320   47.850
 qs_ks_build_kohn_sham_matrix        28  7.0    0.151    0.156   10.320   47.850
 sum_up_and_integrate                28  8.0    0.000    0.000    8.989   46.410
 integrate_v_rspace                  28  9.0    0.141    0.759    8.988   46.409
 grid_integrate_task_list            28 10.0    8.555   45.465    8.555   45.465
 transfer_rs2pw                     118  8.0    0.002    0.002   33.950   41.820
 transfer_rs2pw_500                  31  8.9    0.048    0.052   33.915   41.786
 mp_sendrecv_dv                     826 10.0   33.889   41.761   33.889   41.761
 qs_rho_update_rho_low               29  5.0    0.000    0.000   37.132   37.179
 calculate_rho_elec                  29  6.0    0.026    0.081   37.132   37.179
 density_rs2pw                       29  7.0    0.001    0.001   30.163   37.103
 grid_collocate_task_list            29  7.0    6.941   36.710    6.941   36.710
 copy_dbcsr_to_fm                 35784  6.8    0.365    0.423   20.713   20.996
 cp_dbcsr_alloc_block_from_nbl    22990  5.0    1.111    5.686    1.242    6.273
 qs_energies_init_hamiltonians        1  3.0    0.000    0.000    6.060    6.060
 write_kpoints_restart               28  5.0    0.034    0.041    5.309    5.310
 dbcsr_finalize                  167668  7.9    0.753    0.869    4.959    5.287
 cp_fm_start_copy_general         43600  7.3    0.823    1.126    5.109    5.266
 dbcsr_dot                       182561  8.0    0.938    2.002    4.823    5.163
 build_core_hamiltonian_matrix        1  4.0    0.012    0.012    1.110    4.992
 mp_sum_d                        183203  9.0    4.146    4.949    4.146    4.949
 qs_env_update_s_mstruct              1  4.0    0.000    0.000    4.114    4.892
 calculate_rho_core                   1  5.0    0.001    0.002    3.893    4.844
 mp_alltoall_d11v                345504  9.3    4.316    4.548    4.316    4.548
 cp_cfm_geeig_canon                 933  6.9    0.009    0.009    4.159    4.212
 dbcsr_create_new                370868  7.7    2.710    3.590    2.946    3.849
 cp_cfm_heevd                      1866  7.9    0.003    0.003    3.783    3.834
 cp_cfm_heevd_base                 1866  8.9    3.781    3.831    3.781    3.831
 evaluate_core_matrix_traces         28  6.0    0.000    0.000    3.510    3.510
 calculate_ptrace_kp                 56  7.0    0.136    0.140    3.510    3.510
 dbcsr_merge_all                  50120 10.1    2.039    2.324    3.039    3.282
 self_consistency_check              28  5.0    0.129    0.132    2.976    3.180
 mp_cart_sub                      71570  8.8    3.138    3.163    3.138    3.163
 init_scf_run                         1  3.0    0.000    0.000    2.745    3.080
 scf_env_initial_rho_setup            1  4.0    0.000    0.000    2.745    3.080
 hybrid_alltoall_any              65048  8.4    0.263    0.284    2.801    2.964
 cp_sm_mix                        91280  6.0    0.334    0.903    2.671    2.936
 mp_allgather_i                   87200  8.3    2.609    2.837    2.609    2.837
 mp_max_d                         91282  7.0    2.114    2.519    2.114    2.519
 mp_alltoall_i11v                215408  8.9    2.186    2.269    2.186    2.269
 dbcsr_copy                      200156  6.7    1.147    1.319    1.679    2.051
 cp_fm_write_unformatted           6520  6.0    1.382    1.898    1.412    2.027
 mp_cart_create                   35791  8.8    1.809    1.893    1.809    1.893
 mixing_allocate                      1  3.0    0.019    0.019    0.402    1.845
 calculate_first_density_matrix       1  5.0    0.002    0.002    1.463    1.798
 calculate_atomic_block_dm            1  6.0    0.001    0.001    1.455    1.792
 copy_fm_to_dbcsr_bc              14336  9.0    0.194    0.215    0.785    1.510
 build_core_ppnl                      1  5.0    0.294    1.367    0.294    1.367
 dbcsr_work_create               115168  8.7    0.688    0.730    1.124    1.266
 dbcsr_iterator_start            592751  8.7    1.048    1.099    1.200    1.241
 mp_bcast_iv                     174556  8.3    1.088    1.232    1.088    1.232
 dbcsr_set                       281617  7.2    0.249    0.265    0.483    1.088
 create_qs_kind_set                   1  2.0    0.000    0.000    1.035    1.035
 read_qs_kind                         1  3.0    0.618    0.625    1.035    1.035
 build_overlap_matrix_low             1  5.0    0.041    0.134    0.229    1.034
 build_kinetic_matrix_low             1  5.0    0.041    0.131    0.227    1.029
 calculate_ecore_overlap              1  4.0    0.000    0.000    0.792    0.980
 qs_env_rebuild_rho                   1  5.0    0.000    0.000    0.203    0.919
 qs_rho_rebuild                       1  6.0    0.010    0.012    0.203    0.919
 dbcsr_data_new                 1270685  9.5    0.714    0.903    0.714    0.903
 mp_sum_iv                           24  5.3    0.722    0.889    0.722    0.889
 qs_scf_ensure_work_matrices          1  3.0    0.000    0.000    0.721    0.889
 tree_to_linear_d                 50120 11.1    0.781    0.881    0.781    0.881
 dbcsr_work_destroy_all          115168  9.7    0.549    0.561    0.852    0.870
 kpoint_set_mo_occupation            28  7.0    0.784    0.790    0.835    0.868
 copy_dbcsr_to_fm_bc              35784  7.8    0.366    0.382    0.835    0.856
 dbcsr_zero                      281617  8.2    0.235    0.827    0.235    0.827
 dbcsr_iterator_stop             592751  8.7    0.657    0.665    0.780    0.795
 dbcsr_data_release             1993532  9.9    0.698    0.753    0.698    0.753
 fft_wrap_pw1pw2                    509 10.0    0.004    0.005    0.636    0.706
 dbcsr_reserve_blocks             37326  7.9    0.188    0.645    0.206    0.677
 fft_wrap_pw1pw2_500                338 11.3    0.030    0.031    0.587    0.656
 dbcsr_destroy                   188308  7.5    0.306    0.345    0.550    0.619
 fft3d_ps                           509 12.0    0.167    0.172    0.544    0.618
 build_core_ppl                       1  5.0    0.113    0.561    0.113    0.561
 cp_fm_finish_copy_general        18068  7.8    0.419    0.441    0.447    0.488
 parser_read_line                135257  4.0    0.045    0.047    0.472    0.475
 parser_read_line_low               155  5.2    0.049    0.215    0.427    0.431
 mp_alltoall_z22v                   509 14.0    0.337    0.417    0.337    0.417
 kpoint_density_matrices             28  7.0    0.017    0.017    0.343    0.412
 dbcsr_copy_into_existing         17596  9.3    0.136    0.307    0.234    0.409
 broadcast_input_information        155  6.2    0.099    0.102    0.378    0.408
 mp_bcast_im                      87200  8.3    0.348    0.394    0.348    0.394
 parallel_gemm_fm                  3584  8.0    0.003    0.003    0.318    0.387
 parallel_gemm_fm_gemm             3584  9.0    0.003    0.004    0.315    0.383
 cp_fm_gemm                        3584 10.0    0.311    0.380    0.311    0.380
 quick_finalize                   65048  9.4    0.167    0.218    0.278    0.375
 qs_vxc_create                       28  8.0    0.000    0.001    0.366    0.366
 xc_vxc_pw_create                    28  9.0    0.013    0.013    0.365    0.366
 potential_pw2rs                     28 10.0    0.002    0.002    0.292    0.358
 cp_cfm_gemm                       2799  7.9    0.342    0.348    0.342    0.348
 mp_waitall_1                    180715  8.3    0.163    0.333    0.163    0.333
 yz_to_x                            229 12.8    0.013    0.013    0.225    0.299
 mp_comm_free                    107397  8.8    0.251    0.282    0.251    0.282
 gspace_mixing                       27  5.0    0.010    0.010    0.272    0.272
 xc_pw_derive                       168 11.0    0.000    0.001    0.237    0.240
 broyden_mixing                      27  6.0    0.213    0.216    0.219    0.221
 mp_bcast_i_src                     620  7.2    0.167    0.197    0.167    0.197
 xc_rho_set_and_dset_create          28 10.0    0.009    0.010    0.187    0.194
 dbcsr_iterator_seek             592751  9.7    0.152    0.191    0.152    0.191
 dbcsr_make_index_exist          370868  8.7    0.159    0.177    0.159    0.177
 xc_pw_divergence                    28 10.0    0.000    0.000    0.163    0.167
 dbcsr_sort_indices              152494 10.7    0.085    0.160    0.085    0.160
 x_to_yz                            280 13.2    0.023    0.025    0.148    0.153
 dbcsr_reserve_all_blocks         14336 10.0    0.022    0.028    0.106    0.134
 mp_isend_dv                      44192  8.2    0.122    0.130    0.122    0.130
 mp_recv_dv                       19560  7.0    0.016    0.129    0.016    0.129
 transfer_pw2rs                     113 11.0    0.001    0.001    0.126    0.126
 mp_bcast_am_src                    155  7.2    0.100    0.108    0.110    0.115
 merge_index                      50120 11.1    0.103    0.112    0.103    0.112
 dbcsr_data_copy_aa2              50120 10.9    0.044    0.103    0.044    0.103
 -------------------------------------------------------------------------------

 The number of warnings for this run is : 1
 
 -------------------------------------------------------------------------------
  **** **** ******  **  PROGRAM ENDED AT                 2025-08-04 04:37:53.891
 ***** ** ***  *** **   PROGRAM RAN ON                              i05r10c05s12
 **    ****   ******    PROGRAM RAN BY                                   di38fab
 ***** **    ** ** **   PROGRAM PROCESS ID                               2103868
  **** **  *******  **  PROGRAM STOPPED IN /hppfs/scratch/04/di38fab/09_GTH/Delt
                                           a_Set/Zr/TZV2P-MOLOPT-PBE-GTH/8x8x8
