I                                       
   1.00000000000000     
     8.577010    0.000000    0.000000
     0.000000    4.554220    0.000000
     0.000000    0.000000   10.183810
   I 
     8
Direct
  0.000000  0.364100  0.878570
  0.000000  0.135900  0.378570
  0.000000  0.864100  0.621430
  0.000000  0.635900  0.121430
  0.500000  0.864100  0.878570
  0.500000  0.635900  0.378570
  0.500000  0.364100  0.621430
  0.500000  0.135900  0.121430
 
   64   36   80
  17.089      16.837      16.106      14.969      13.530      11.911      10.228      8.5876      7.0704      5.7363    
  4.6237      3.7525      3.1311      2.7666      2.6777      2.9051      3.5178      4.6169      6.3474      8.9203    
  12.641      17.924      25.273      35.202      48.117      64.164      83.082      104.08      125.78      146.24    
  163.19      174.44      178.39      174.44      163.19      146.24      125.78      104.08      83.082      64.164    
  48.117      35.202      25.273      17.924      12.641      8.9203      6.3474      4.6169      3.5178      2.9051    
  2.6777      2.7666      3.1311      3.7525      4.6237      5.7363      7.0704      8.5876      10.228      11.911    
  13.530      14.969      16.106      16.837      17.948      17.678      16.898      15.686      14.154      12.435    
  10.656      8.9266      7.3338      5.9376      4.7751      3.8640      3.2109      2.8212      2.7127      2.9250    
  3.5255      4.6140      6.3337      8.8943      12.599      17.860      25.175      35.053      47.891      63.829    
  82.602      103.42      124.91      145.16      161.92      173.03      176.93      173.03      161.92      145.16    
  124.91      103.42      82.602      63.829      47.891      35.053      25.175      17.860      12.599      8.8943    
  6.3337      4.6140      3.5255      2.9250      2.7127      2.8212      3.2109      3.8640      4.7751      5.9376    
  7.3338      8.9266      10.656      12.435      14.154      15.686      16.898      17.678      20.575      20.253    
  19.322      17.878      16.063      14.039      11.959      9.9577      8.1314      6.5439      5.2284      4.1964    
  3.4479      2.9834      2.8167      2.9839      3.5480      4.6042      6.2913      8.8139      12.469      17.661    
  24.872      34.594      47.201      62.816      81.163      101.46      122.35      141.97      158.17      168.89    
  172.65      168.89      158.17      141.97      122.35      101.46      81.163      62.816      47.201      34.594    
  24.872      17.661      12.469      8.8139      6.2913      4.6042      3.5480      2.9839      2.8167      2.9834    
  3.4479      4.1964      5.2284      6.5439      8.1314      9.9577      11.959      14.039      16.063      17.878    
  19.322      20.253      25.102      24.689      23.497      21.655      19.350      16.795      14.194      11.717    
  9.4819      7.5605      5.9808      4.7432      3.8354      3.2476      2.9858      3.0789      3.5828      4.5848    
  6.2155      8.6716      12.240      17.309      24.341      33.797      46.022      61.109      78.768      98.222    
  118.16      136.81      152.15      162.27      165.81      162.27      152.15      136.81      118.16      98.222    
  78.768      61.109      46.022      33.797      24.341      17.309      12.240      8.6716      6.2155      4.5848    
  3.5828      3.0789      2.9858      3.2476      3.8354      4.7432      5.9808      7.5605      9.4819      11.717    
  14.194      16.795      19.350      21.655      23.497      24.689      31.668      31.125      29.556      27.135    
  24.116      20.787      17.420      14.241      11.404      8.9913      7.0264      5.4940      4.3626      3.6052    
  3.2138      3.2058      3.6263      4.5514      6.1007      8.4585      11.897      16.783      23.551      32.626    
  44.317      58.684      75.423      93.772      112.48      129.89      144.14      153.52      156.79      153.52    
  144.14      129.89      112.48      93.772      75.423      58.684      44.317      32.626      23.551      16.783    
  11.897      8.4585      6.1007      4.5514      3.6263      3.2058      3.2138      3.6052      4.3626      5.4940    
  7.0264      8.9913      11.404      14.241      17.420      20.787      24.116      27.135      29.556      31.125    
  40.340      39.623      37.556      34.372      30.408      26.049      21.662      17.545      13.900      10.829    
  8.3524      6.4335      5.0151      4.0444      3.4920      3.3583      3.6734      4.4995      5.9413      8.1669    
  11.428      16.065      22.477      31.052      42.058      55.527      71.144      88.177      105.45      121.44    
  134.47      143.01      145.98      143.01      134.47      121.44      105.45      88.177      71.144      55.527    
  42.058      31.052      22.477      16.065      11.428      8.1669      5.9413      4.4995      3.6734      3.3583    
  3.4920      4.0444      5.0151      6.4335      8.3524      10.829      13.900      17.545      21.662      26.049    
  30.408      34.372      37.556      39.623      51.031      50.102      47.421      43.294      38.163      32.531    
  26.877      21.592      16.939      13.047      9.9338      7.5398      5.7742      4.5503      3.8094      3.5284    
  3.7187      4.4249      5.7343      7.7940      10.830      15.149      21.114      29.070      39.247      51.654    
  65.978      81.528      97.222      111.68      123.41      131.08      133.75      131.08      123.41      111.68    
  97.222      81.528      65.978      51.654      39.247      29.070      21.114      15.149      10.830      7.7940    
  5.7343      4.4249      3.7187      3.5284      3.8094      4.5503      5.7742      7.5398      9.9338      13.047    
  16.939      21.592      26.877      32.531      38.163      43.294      47.421      50.102      63.469      62.291    
  58.896      53.670      47.179      40.062      32.929      26.277      20.442      15.587      11.728      8.7805    
  6.6155      5.1047      4.1526      3.7070      3.7562      4.3251      5.4804      7.3443      10.112      14.052    
  19.485      26.713      35.932      47.135      60.025      73.963      87.976      100.84      111.25      118.03    
  120.39      118.03      111.25      100.84      87.976      73.963      60.025      47.135      35.932      26.713    
  19.485      14.052      10.112      7.3443      5.4804      4.3251      3.7562      3.7070      4.1526      5.1047    
  6.6155      8.7805      11.728      15.587      20.442      26.277      32.929      40.062      47.179      53.670    
  58.896      62.291      77.200      75.746      71.557      65.114      57.115      48.354      39.585      31.422    
  24.278      18.355      13.669      10.111      7.5080      5.6857      4.5065      3.8843      3.7811      4.1997    
  5.1843      6.8297      9.2958      12.810      17.644      24.059      32.220      42.111      53.460      65.697    
  77.965      89.198      98.267      104.17      106.22      104.17      98.267      89.198      77.965      65.697    
  53.460      42.111      32.220      24.059      17.644      12.810      9.2958      6.8297      5.1843      4.1997    
  3.7811      3.8843      4.5065      5.6857      7.5080      10.111      13.669      18.355      24.278      31.422    
  39.585      48.354      57.115      65.114      71.557      75.746      91.649      89.902      84.869      77.131    
  67.534      57.034      46.541      36.788      28.271      21.226      15.674      11.475      8.4148      6.2691    
  4.8554      4.0511      3.7898      4.0511      4.8554      6.2691      8.4148      11.475      15.674      21.226    
  28.271      36.788      46.541      57.034      67.534      77.131      84.869      89.902      91.649      89.902    
  84.869      77.131      67.534      57.034      46.541      36.788      28.271      21.226      15.674      11.475    
  8.4148      6.2691      4.8554      4.0511      3.7898      4.0511      4.8554      6.2691      8.4148      11.475    
  15.674      21.226      28.271      36.788      46.541      57.034      67.534      77.131      84.869      89.902    
  106.22      104.17      98.267      89.198      77.965      65.697      53.460      42.111      32.220      24.059    
  17.644      12.810      9.2958      6.8297      5.1843      4.1997      3.7811      3.8843      4.5065      5.6857    
  7.5080      10.111      13.669      18.355      24.278      31.422      39.585      48.354      57.115      65.114    
  71.557      75.746      77.200      75.746      71.557      65.114      57.115      48.354      39.585      31.422    
  24.278      18.355      13.669      10.111      7.5080      5.6857      4.5065      3.8843      3.7811      4.1997    
  5.1843      6.8297      9.2958      12.810      17.644      24.059      32.220      42.111      53.460      65.697    
  77.965      89.198      98.267      104.17      120.39      118.03      111.25      100.84      87.976      73.963    
  60.025      47.135      35.932      26.713      19.485      14.052      10.112      7.3443      5.4804      4.3251    
  3.7562      3.7070      4.1526      5.1047      6.6155      8.7805      11.728      15.587      20.442      26.277    
  32.929      40.062      47.179      53.670      58.896      62.291      63.469      62.291      58.896      53.670    
  47.179      40.062      32.929      26.277      20.442      15.587      11.728      8.7805      6.6155      5.1047    
  4.1526      3.7070      3.7562      4.3251      5.4804      7.3443      10.112      14.052      19.485      26.713    
  35.932      47.135      60.025      73.963      87.976      100.84      111.25      118.03      133.75      131.08    
  123.41      111.68      97.222      81.528      65.978      51.654      39.247      29.070      21.114      15.149    
  10.830      7.7940      5.7343      4.4249      3.7187      3.5284      3.8094      4.5503      5.7742      7.5398    
  9.9338      13.047      16.939      21.592      26.877      32.531      38.163      43.294      47.421      50.102    
  51.031      50.102      47.421      43.294      38.163      32.531      26.877      21.592      16.939      13.047    
  9.9338      7.5398      5.7742      4.5503      3.8094      3.5284      3.7187      4.4249      5.7343      7.7940    
  10.830      15.149      21.114      29.070      39.247      51.654      65.978      81.528      97.222      111.68    
  123.41      131.08      145.98      143.01      134.47      121.44      105.45      88.177      71.144      55.527    
  42.058      31.052      22.477      16.065      11.428      8.1669      5.9413      4.4995      3.6734      3.3583    
  3.4920      4.0444      5.0151      6.4335      8.3524      10.829      13.900      17.545      21.662      26.049    
  30.408      34.372      37.556      39.623      40.340      39.623      37.556      34.372      30.408      26.049    
  21.662      17.545      13.900      10.829      8.3524      6.4335      5.0151      4.0444      3.4920      3.3583    
  3.6734      4.4995      5.9413      8.1669      11.428      16.065      22.477      31.052      42.058      55.527    
  71.144      88.177      105.45      121.44      134.47      143.01      156.79      153.52      144.14      129.89    
  112.48      93.772      75.423      58.684      44.317      32.626      23.551      16.783      11.897      8.4585    
  6.1007      4.5514      3.6263      3.2058      3.2138      3.6052      4.3626      5.4940      7.0264      8.9913    
  11.404      14.241      17.420      20.787      24.116      27.135      29.556      31.125      31.668      31.125    
  29.556      27.135      24.116      20.787      17.420      14.241      11.404      8.9913      7.0264      5.4940    
  4.3626      3.6052      3.2138      3.2058      3.6263      4.5514      6.1007      8.4585      11.897      16.783    
  23.551      32.626      44.317      58.684      75.423      93.772      112.48      129.89      144.14      153.52    
  165.81      162.27      152.15      136.81      118.16      98.222      78.768      61.109      46.022      33.797    
  24.341      17.309      12.240      8.6716      6.2155      4.5848      3.5828      3.0789      2.9858      3.2476    
  3.8354      4.7432      5.9808      7.5605      9.4819      11.717      14.194      16.795      19.350      21.655    
  23.497      24.689      25.102      24.689      23.497      21.655      19.350      16.795      14.194      11.717    
  9.4819      7.5605      5.9808      4.7432      3.8354      3.2476      2.9858      3.0789      3.5828      4.5848    
  6.2155      8.6716      12.240      17.309      24.341      33.797      46.022      61.109      78.768      98.222    
  118.16      136.81      152.15      162.27      172.65      168.89      158.17      141.97      122.35      101.46    
  81.163      62.816      47.201      34.594      24.872      17.661      12.469      8.8139      6.2913      4.6042    
  3.5480      2.9839      2.8167      2.9834      3.4479      4.1964      5.2284      6.5439      8.1314      9.9577    
  11.959      14.039      16.063      17.878      19.322      20.253      20.575      20.253      19.322      17.878    
  16.063      14.039      11.959      9.9577      8.1314      6.5439      5.2284      4.1964      3.4479      2.9834    
  2.8167      2.9839      3.5480      4.6042      6.2913      8.8139      12.469      17.661      24.872      34.594    
  47.201      62.816      81.163      101.46      122.35      141.97      158.17      168.89      176.93      173.03    
  161.92      145.16      124.91      103.42      82.602      63.829      47.891      35.053      25.175      17.860    
  12.599      8.8943      6.3337      4.6140      3.5255      2.9250      2.7127      2.8212      3.2109      3.8640    
  4.7751      5.9376      7.3338      8.9266      10.656      12.435      14.154      15.686      16.898      17.678    
  17.948      17.678      16.898      15.686      14.154      12.435      10.656      8.9266      7.3338      5.9376    
  4.7751      3.8640      3.2109      2.8212      2.7127      2.9250      3.5255      4.6140      6.3337      8.8943    
  12.599      17.860      25.175      35.053      47.891      63.829      82.602      103.42      124.91      145.16    
  161.92      173.03      178.39      174.44      163.19      146.24      125.78      104.08      83.082      64.164    
  48.117      35.202      25.273      17.924      12.641      8.9203      6.3474      4.6169      3.5178      2.9051    
  2.6777      2.7666      3.1311      3.7525      4.6237      5.7363      7.0704      8.5876      10.228      11.911    
  13.530      14.969      16.106      16.837      17.089      16.837      16.106      14.969      13.530      11.911    
  10.228      8.5876      7.0704      5.7363      4.6237      3.7525      3.1311      2.7666      2.6777      2.9051    
  3.5178      4.6169      6.3474      8.9203      12.641      17.924      25.273      35.202      48.117      64.164    
  83.082      104.08      125.78      146.24      163.19      174.44      176.93      173.03      161.92      145.16    
  124.91      103.42      82.602      63.829      47.891      35.053      25.175      17.860      12.599      8.8943    
  6.3337      4.6140      3.5255      2.9250      2.7127      2.8212      3.2109      3.8640      4.7751      5.9376    
  7.3338      8.9266      10.656      12.435      14.154      15.686      16.898      17.678      17.948      17.678    
  16.898      15.686      14.154      12.435      10.656      8.9266      7.3338      5.9376      4.7751      3.8640    
  3.2109      2.8212      2.7127      2.9250      3.5255      4.6140      6.3337      8.8943      12.599      17.860    
  25.175      35.053      47.891      63.829      82.602      103.42      124.91      145.16      161.92      173.03    
  172.65      168.89      158.17      141.97      122.35      101.46      81.163      62.816      47.201      34.594    
  24.872      17.661      12.469      8.8139      6.2913      4.6042      3.5480      2.9839      2.8167      2.9834    
  3.4479      4.1964      5.2284      6.5439      8.1314      9.9577      11.959      14.039      16.063      17.878    
  19.322      20.253      20.575      20.253      19.322      17.878      16.063      14.039      11.959      9.9577    
  8.1314      6.5439      5.2284      4.1964      3.4479      2.9834      2.8167      2.9839      3.5480      4.6042    
  6.2913      8.8139      12.469      17.661      24.872      34.594      47.201      62.816      81.163      101.46    
  122.35      141.97      158.17      168.89      165.81      162.27      152.15      136.81      118.16      98.222    
  78.768      61.109      46.022      33.797      24.341      17.309      12.240      8.6716      6.2155      4.5848    
  3.5828      3.0789      2.9858      3.2476      3.8354      4.7432      5.9808      7.5605      9.4819      11.717    
  14.194      16.795      19.350      21.655      23.497      24.689      25.102      24.689      23.497      21.655    
  19.350      16.795      14.194      11.717      9.4819      7.5605      5.9808      4.7432      3.8354      3.2476    
  2.9858      3.0789      3.5828      4.5848      6.2155      8.6716      12.240      17.309      24.341      33.797    
  46.022      61.109      78.768      98.222      118.16      136.81      152.15      162.27      156.79      153.52    
  144.14      129.89      112.48      93.772      75.423      58.684      44.317      32.626      23.551      16.783    
  11.897      8.4585      6.1007      4.5514      3.6263      3.2058      3.2138      3.6052      4.3626      5.4940    
  7.0264      8.9913      11.404      14.241      17.420      20.787      24.116      27.135      29.556      31.125    
  31.668      31.125      29.556      27.135      24.116      20.787      17.420      14.241      11.404      8.9913    
  7.0264      5.4940      4.3626      3.6052      3.2138      3.2058      3.6263      4.5514      6.1007      8.4585    
  11.897      16.783      23.551      32.626      44.317      58.684      75.423      93.772      112.48      129.89    
  144.14      153.52      145.98      143.01      134.47      121.44      105.45      88.177      71.144      55.527    
  42.058      31.052      22.477      16.065      11.428      8.1669      5.9413      4.4995      3.6734      3.3583    
  3.4920      4.0444      5.0151      6.4335      8.3524      10.829      13.900      17.545      21.662      26.049    
  30.408      34.372      37.556      39.623      40.340      39.623      37.556      34.372      30.408      26.049    
  21.662      17.545      13.900      10.829      8.3524      6.4335      5.0151      4.0444      3.4920      3.3583    
  3.6734      4.4995      5.9413      8.1669      11.428      16.065      22.477      31.052      42.058      55.527    
  71.144      88.177      105.45      121.44      134.47      143.01      133.75      131.08      123.41      111.68    
  97.222      81.528      65.978      51.654      39.247      29.070      21.114      15.149      10.830      7.7940    
  5.7343      4.4249      3.7187      3.5284      3.8094      4.5503      5.7742      7.5398      9.9338      13.047    
  16.939      21.592      26.877      32.531      38.163      43.294      47.421      50.102      51.031      50.102    
  47.421      43.294      38.163      32.531      26.877      21.592      16.939      13.047      9.9338      7.5398    
  5.7742      4.5503      3.8094      3.5284      3.7187      4.4249      5.7343      7.7940      10.830      15.149    
  21.114      29.070      39.247      51.654      65.978      81.528      97.222      111.68      123.41      131.08    
  120.39      118.03      111.25      100.84      87.976      73.963      60.025      47.135      35.932      26.713    
  19.485      14.052      10.112      7.3443      5.4804      4.3251      3.7562      3.7070      4.1526      5.1047    
  6.6155      8.7805      11.728      15.587      20.442      26.277      32.929      40.062      47.179      53.670    
  58.896      62.291      63.469      62.291      58.896      53.670      47.179      40.062      32.929      26.277    
  20.442      15.587      11.728      8.7805      6.6155      5.1047      4.1526      3.7070      3.7562      4.3251    
  5.4804      7.3443      10.112      14.052      19.485      26.713      35.932      47.135      60.025      73.963    
  87.976      100.84      111.25      118.03      106.22      104.17      98.267      89.198      77.965      65.697    
  53.460      42.111      32.220      24.059      17.644      12.810      9.2958      6.8297      5.1843      4.1997    
  3.7811      3.8843      4.5065      5.6857      7.5080      10.111      13.669      18.355      24.278      31.422    
  39.585      48.354      57.115      65.114      71.557      75.746      77.200      75.746      71.557      65.114    
  57.115      48.354      39.585      31.422      24.278      18.355      13.669      10.111      7.5080      5.6857    
  4.5065      3.8843      3.7811      4.1997      5.1843      6.8297      9.2958      12.810      17.644      24.059    
  32.220      42.111      53.460      65.697      77.965      89.198      98.267      104.17      91.649      89.902    
  84.869      77.131      67.534      57.034      46.541      36.788      28.271      21.226      15.674      11.475    
  8.4148      6.2691      4.8554      4.0511      3.7898      4.0511      4.8554      6.2691      8.4148      11.475    
  15.674      21.226      28.271      36.788      46.541      57.034      67.534      77.131      84.869      89.902    
  91.649      89.902      84.869      77.131      67.534      57.034      46.541      36.788      28.271      21.226    
  15.674      11.475      8.4148      6.2691      4.8554      4.0511      3.7898      4.0511      4.8554      6.2691    
  8.4148      11.475      15.674      21.226      28.271      36.788      46.541      57.034      67.534      77.131    
  84.869      89.902      77.200      75.746      71.557      65.114      57.115      48.354      39.585      31.422    
  24.278      18.355      13.669      10.111      7.5080      5.6857      4.5065      3.8843      3.7811      4.1997    
  5.1843      6.8297      9.2958      12.810      17.644      24.059      32.220      42.111      53.460      65.697    
  77.965      89.198      98.267      104.17      106.22      104.17      98.267      89.198      77.965      65.697    
  53.460      42.111      32.220      24.059      17.644      12.810      9.2958      6.8297      5.1843      4.1997    
  3.7811      3.8843      4.5065      5.6857      7.5080      10.111      13.669      18.355      24.278      31.422    
  39.585      48.354      57.115      65.114      71.557      75.746      63.469      62.291      58.896      53.670    
  47.179      40.062      32.929      26.277      20.442      15.587      11.728      8.7805      6.6155      5.1047    
  4.1526      3.7070      3.7562      4.3251      5.4804      7.3443      10.112      14.052      19.485      26.713    
  35.932      47.135      60.025      73.963      87.976      100.84      111.25      118.03      120.39      118.03    
  111.25      100.84      87.976      73.963      60.025      47.135      35.932      26.713      19.485      14.052    
  10.112      7.3443      5.4804      4.3251      3.7562      3.7070      4.1526      5.1047      6.6155      8.7805    
  11.728      15.587      20.442      26.277      32.929      40.062      47.179      53.670      58.896      62.291    
  51.031      50.102      47.421      43.294      38.163      32.531      26.877      21.592      16.939      13.047    
  9.9338      7.5398      5.7742      4.5503      3.8094      3.5284      3.7187      4.4249      5.7343      7.7940    
  10.830      15.149      21.114      29.070      39.247      51.654      65.978      81.528      97.222      111.68    
  123.41      131.08      133.75      131.08      123.41      111.68      97.222      81.528      65.978      51.654    
  39.247      29.070      21.114      15.149      10.830      7.7940      5.7343      4.4249      3.7187      3.5284    
  3.8094      4.5503      5.7742      7.5398      9.9338      13.047      16.939      21.592      26.877      32.531    
  38.163      43.294      47.421      50.102      40.340      39.623      37.556      34.372      30.408      26.049    
  21.662      17.545      13.900      10.829      8.3524      6.4335      5.0151      4.0444      3.4920      3.3583    
  3.6734      4.4995      5.9413      8.1669      11.428      16.065      22.477      31.052      42.058      55.527    
  71.144      88.177      105.45      121.44      134.47      143.01      145.98      143.01      134.47      121.44    
  105.45      88.177      71.144      55.527      42.058      31.052      22.477      16.065      11.428      8.1669    
  5.9413      4.4995      3.6734      3.3583      3.4920      4.0444      5.0151      6.4335      8.3524      10.829    
  13.900      17.545      21.662      26.049      30.408      34.372      37.556      39.623      31.668      31.125    
  29.556      27.135      24.116      20.787      17.420      14.241      11.404      8.9913      7.0264      5.4940    
  4.3626      3.6052      3.2138      3.2058      3.6263      4.5514      6.1007      8.4585      11.897      16.783    
  23.551      32.626      44.317      58.684      75.423      93.772      112.48      129.89      144.14      153.52    
  156.79      153.52      144.14      129.89      112.48      93.772      75.423      58.684      44.317      32.626    
  23.551      16.783      11.897      8.4585      6.1007      4.5514      3.6263      3.2058      3.2138      3.6052    
  4.3626      5.4940      7.0264      8.9913      11.404      14.241      17.420      20.787      24.116      27.135    
  29.556      31.125      25.102      24.689      23.497      21.655      19.350      16.795      14.194      11.717    
  9.4819      7.5605      5.9808      4.7432      3.8354      3.2476      2.9858      3.0789      3.5828      4.5848    
  6.2155      8.6716      12.240      17.309      24.341      33.797      46.022      61.109      78.768      98.222    
  118.16      136.81      152.15      162.27      165.81      162.27      152.15      136.81      118.16      98.222    
  78.768      61.109      46.022      33.797      24.341      17.309      12.240      8.6716      6.2155      4.5848    
  3.5828      3.0789      2.9858      3.2476      3.8354      4.7432      5.9808      7.5605      9.4819      11.717    
  14.194      16.795      19.350      21.655      23.497      24.689      20.575      20.253      19.322      17.878    
  16.063      14.039      11.959      9.9577      8.1314      6.5439      5.2284      4.1964      3.4479      2.9834    
  2.8167      2.9839      3.5480      4.6042      6.2913      8.8139      12.469      17.661      24.872      34.594    
  47.201      62.816      81.163      101.46      122.35      141.97      158.17      168.89      172.65      168.89    
  158.17      141.97      122.35      101.46      81.163      62.816      47.201      34.594      24.872      17.661    
  12.469      8.8139      6.2913      4.6042      3.5480      2.9839      2.8167      2.9834      3.4479      4.1964    
  5.2284      6.5439      8.1314      9.9577      11.959      14.039      16.063      17.878      19.322      20.253    
  17.948      17.678      16.898      15.686      14.154      12.435      10.656      8.9266      7.3338      5.9376    
  4.7751      3.8640      3.2109      2.8212      2.7127      2.9250      3.5255      4.6140      6.3337      8.8943    
  12.599      17.860      25.175      35.053      47.891      63.829      82.602      103.42      124.91      145.16    
  161.92      173.03      176.93      173.03      161.92      145.16      124.91      103.42      82.602      63.829    
  47.891      35.053      25.175      17.860      12.599      8.8943      6.3337      4.6140      3.5255      2.9250    
  2.7127      2.8212      3.2109      3.8640      4.7751      5.9376      7.3338      8.9266      10.656      12.435    
  14.154      15.686      16.898      17.678      17.519      17.258      16.502      15.326      13.841      12.170    
  10.439      8.7545      7.2001      5.8361      4.6999      3.8110      3.1771      2.8058      2.7165      2.9512    
  3.5798      4.7064      6.4818      9.1282      12.967      18.431      26.039      36.316      49.665      66.224    
  85.711      107.30      129.57      150.52      167.85      179.33      183.35      179.33      167.85      150.52    
  129.57      107.30      85.711      66.224      49.665      36.316      26.039      18.431      12.967      9.1282    
  6.4818      4.7064      3.5798      2.9512      2.7165      2.8058      3.1771      3.8110      4.6999      5.8361    
  7.2001      8.7545      10.439      12.170      13.841      15.326      16.502      17.258      16.707      16.461    
  15.749      14.641      13.238      11.657      10.015      8.4132      6.9322      5.6308      4.5470      3.7016    
  3.1042      2.7647      2.7054      2.9714      3.6364      4.8103      6.6542      9.4067      13.412      19.127    
  27.096      37.858      51.821      69.111      89.420      111.88      134.99      156.68      174.57      186.40    
  190.54      186.40      174.57      156.68      134.99      111.88      89.420      69.111      51.821      37.858    
  27.096      19.127      13.412      9.4067      6.6542      4.8103      3.6364      2.9714      2.7054      2.7647    
  3.1042      3.7016      4.5470      5.6308      6.9322      8.4132      10.015      11.657      13.238      14.641    
  15.749      16.461      17.556      17.292      16.529      15.343      13.846      12.164      10.424      8.7341    