I                                       
   1.00000000000000     
     8.577010    0.000000    0.000000
     0.000000    4.554220    0.000000
     0.000000    0.000000   10.183810
   I 
     8
Direct
  0.000000  0.364100  0.878570
  0.000000  0.135900  0.378570
  0.000000  0.864100  0.621430
  0.000000  0.635900  0.121430
  0.500000  0.864100  0.878570
  0.500000  0.635900  0.378570
  0.500000  0.364100  0.621430
  0.500000  0.135900  0.121430
 
   64   36   80
 0.17089203950E+02 0.16837080416E+02 0.16106367181E+02 0.14969090898E+02 0.13530352305E+02
 0.11910623446E+02 0.10228448422E+02 0.85875824208E+01 0.70703676195E+01 0.57363409627E+01
 0.46236872960E+01 0.37524921789E+01 0.31310748336E+01 0.27665583283E+01 0.26776513631E+01
 0.29051478350E+01 0.35177783629E+01 0.46168601796E+01 0.63473547912E+01 0.89202674871E+01
 0.12640875987E+02 0.17924157618E+02 0.25272792136E+02 0.35202104902E+02 0.48117007269E+02
 0.64163683035E+02 0.83082229365E+02 0.10408332896E+03 0.12578135179E+03 0.14623973975E+03
 0.16319087581E+03 0.17444375431E+03 0.17839199245E+03 0.17444375431E+03 0.16319087581E+03
 0.14623973975E+03 0.12578135179E+03 0.10408332896E+03 0.83082229365E+02 0.64163683035E+02
 0.48117007269E+02 0.35202104902E+02 0.25272792136E+02 0.17924157618E+02 0.12640875987E+02
 0.89202674871E+01 0.63473547912E+01 0.46168601796E+01 0.35177783629E+01 0.29051478350E+01
 0.26776513631E+01 0.27665583283E+01 0.31310748336E+01 0.37524921789E+01 0.46236872960E+01
 0.57363409627E+01 0.70703676195E+01 0.85875824208E+01 0.10228448422E+02 0.11910623446E+02
 0.13530352305E+02 0.14969090898E+02 0.16106367181E+02 0.16837080416E+02 0.17947627280E+02
 0.17678290990E+02 0.16898166186E+02 0.15685501603E+02 0.14154366691E+02 0.12435216425E+02
 0.10655759374E+02 0.89265879426E+01 0.73337742729E+01 0.59376280267E+01 0.47750614483E+01
 0.38640413990E+01 0.32108865720E+01 0.28212459693E+01 0.27127359210E+01 0.29250443677E+01
 0.35255327618E+01 0.46139584226E+01 0.63337393122E+01 0.88943436547E+01 0.12599106214E+02
 0.17859962419E+02 0.25174843499E+02 0.35052571361E+02 0.47890640713E+02 0.63828528030E+02
 0.82602301776E+02 0.10342348094E+03 0.12491486391E+03 0.14515874280E+03 0.16191719920E+03
 0.17303446908E+03 0.17693364388E+03 0.17303446908E+03 0.16191719920E+03 0.14515874280E+03
 0.12491486391E+03 0.10342348094E+03 0.82602301776E+02 0.63828528030E+02 0.47890640713E+02
 0.35052571361E+02 0.25174843499E+02 0.17859962419E+02 0.12599106214E+02 0.88943436547E+01
 0.63337393122E+01 0.46139584226E+01 0.35255327618E+01 0.29250443677E+01 0.27127359210E+01
 0.28212459693E+01 0.32108865720E+01 0.38640413990E+01 0.47750614483E+01 0.59376280267E+01
 0.73337742729E+01 0.89265879426E+01 0.10655759374E+02 0.12435216425E+02 0.14154366691E+02
 0.15685501603E+02 0.16898166186E+02 0.17678290990E+02 0.20574988425E+02 0.20253003707E+02
 0.19321663546E+02 0.17878044222E+02 0.16063416297E+02 0.14038625009E+02 0.11959458814E+02
 0.99577288119E+01 0.81314431866E+01 0.65438529617E+01 0.52283581274E+01 0.41964452461E+01
 0.34479403546E+01 0.29834307170E+01 0.28167141492E+01 0.29838528865E+01 0.35480014164E+01
 0.46042227699E+01 0.62912593626E+01 0.88138577483E+01 0.12469415256E+02 0.17660797279E+02
 0.24872104572E+02 0.34593510750E+02 0.47201432382E+02 0.62816419474E+02 0.81163459246E+02
 0.10145728176E+03 0.12234603994E+03 0.14196723829E+03 0.15816859666E+03 0.16889491732E+03
 0.17265286286E+03 0.16889491732E+03 0.15816859666E+03 0.14196723829E+03 0.12234603994E+03
 0.10145728176E+03 0.81163459246E+02 0.62816419474E+02 0.47201432382E+02 0.34593510750E+02
 0.24872104572E+02 0.17660797279E+02 0.12469415256E+02 0.88138577483E+01 0.62912593626E+01
 0.46042227699E+01 0.35480014164E+01 0.29838528865E+01 0.28167141492E+01 0.29834307170E+01
 0.34479403546E+01 0.41964452461E+01 0.52283581274E+01 0.65438529617E+01 0.81314431866E+01
 0.99577288119E+01 0.11959458814E+02 0.14038625009E+02 0.16063416297E+02 0.17878044222E+02
 0.19321663546E+02 0.20253003707E+02 0.25101697573E+02 0.24689129943E+02 0.23497393247E+02
 0.21655378769E+02 0.19350485942E+02 0.16795408144E+02 0.14194356523E+02 0.11716506043E+02
 0.94819027349E+01 0.75605169984E+01 0.59808255222E+01 0.47432326876E+01 0.38353989006E+01
 0.32476480248E+01 0.29858021904E+01 0.30789241263E+01 0.35828407059E+01 0.45847608304E+01
 0.62155085631E+01 0.86716089398E+01 0.12240202940E+02 0.17309177613E+02 0.24340806039E+02
 0.33796768470E+02 0.46021956744E+02 0.61109201988E+02 0.78768376894E+02 0.98221938987E+02
 0.11816051485E+03 0.13680928262E+03 0.15214772256E+03 0.16227209889E+03 0.16581327988E+03
 0.16227209889E+03 0.15214772256E+03 0.13680928262E+03 0.11816051485E+03 0.98221938987E+02
 0.78768376894E+02 0.61109201988E+02 0.46021956744E+02 0.33796768470E+02 0.24340806039E+02
 0.17309177613E+02 0.12240202940E+02 0.86716089398E+01 0.62155085631E+01 0.45847608304E+01
 0.35828407059E+01 0.30789241263E+01 0.29858021904E+01 0.32476480248E+01 0.38353989006E+01
 0.47432326876E+01 0.59808255222E+01 0.75605169984E+01 0.94819027349E+01 0.11716506043E+02
 0.14194356523E+02 0.16795408144E+02 0.19350485942E+02 0.21655378769E+02 0.23497393247E+02
 0.24689129943E+02 0.31668363643E+02 0.31124643274E+02 0.29555541758E+02 0.27135121061E+02
 0.24116483868E+02 0.20786609639E+02 0.17419878250E+02 0.14240841122E+02 0.11403832146E+02
 0.89912645441E+01 0.70264225315E+01 0.54939779622E+01 0.43625656446E+01 0.36052016827E+01
 0.32137796555E+01 0.32058196389E+01 0.36262915595E+01 0.45513870629E+01 0.61006591531E+01
 0.84584740860E+01 0.11896902028E+02 0.16783023437E+02 0.23550637749E+02 0.32626089755E+02
 0.44316714775E+02 0.58683865903E+02 0.75422984083E+02 0.93772140783E+02 0.11248174068E+03
 0.12989115697E+03 0.14414356267E+03 0.15351731479E+03 0.15678950666E+03 0.15351731479E+03
 0.14414356267E+03 0.12989115697E+03 0.11248174068E+03 0.93772140783E+02 0.75422984083E+02
 0.58683865903E+02 0.44316714775E+02 0.32626089755E+02 0.23550637749E+02 0.16783023437E+02
 0.11896902028E+02 0.84584740860E+01 0.61006591531E+01 0.45513870629E+01 0.36262915595E+01
 0.32058196389E+01 0.32137796555E+01 0.36052016827E+01 0.43625656446E+01 0.54939779622E+01
 0.70264225315E+01 0.89912645441E+01 0.11403832146E+02 0.14240841122E+02 0.17419878250E+02
 0.20786609639E+02 0.24116483868E+02 0.27135121061E+02 0.29555541758E+02 0.31124643274E+02
 0.40339935233E+02 0.39623322144E+02 0.37556416500E+02 0.34371906267E+02 0.30408294745E+02
 0.26049451305E+02 0.21662037850E+02 0.17544795510E+02 0.13899894040E+02 0.10829423941E+02
 0.83524056324E+01 0.64335463772E+01 0.50150683461E+01 0.40443743107E+01 0.34920038482E+01
 0.33583023555E+01 0.36734410867E+01 0.44994724442E+01 0.59413103084E+01 0.81668572164E+01
 0.11427795994E+02 0.16064558342E+02 0.22477002950E+02 0.31052129154E+02 0.42058123801E+02
 0.55526517855E+02 0.71144310313E+02 0.88176755522E+02 0.10545114482E+03 0.12144069570E+03
 0.13446918717E+03 0.14300724071E+03 0.14598188825E+03 0.14300724071E+03 0.13446918717E+03
 0.12144069570E+03 0.10545114482E+03 0.88176755522E+02 0.71144310313E+02 0.55526517855E+02
 0.42058123801E+02 0.31052129154E+02 0.22477002950E+02 0.16064558342E+02 0.11427795994E+02
 0.81668572164E+01 0.59413103084E+01 0.44994724442E+01 0.36734410867E+01 0.33583023555E+01
 0.34920038482E+01 0.40443743107E+01 0.50150683461E+01 0.64335463772E+01 0.83524056324E+01
 0.10829423941E+02 0.13899894040E+02 0.17544795510E+02 0.21662037850E+02 0.26049451305E+02
 0.30408294745E+02 0.34371906267E+02 0.37556416500E+02 0.39623322144E+02 0.51031495834E+02
 0.50101834765E+02 0.47421299006E+02 0.43294223329E+02 0.38163437016E+02 0.32531173639E+02
 0.26877167465E+02 0.21592063736E+02 0.16938997491E+02 0.13047378576E+02 0.99338300983E+01
 0.75397943860E+01 0.57741674489E+01 0.45502978949E+01 0.38093967364E+01 0.35284468824E+01
 0.37186535883E+01 0.44249258948E+01 0.57343463860E+01 0.77940101344E+01 0.10829685028E+02
 0.15149321094E+02 0.21114146108E+02 0.29069800149E+02 0.39247072512E+02 0.51653627123E+02
 0.65978249834E+02 0.81527505983E+02 0.97221566498E+02 0.11168065289E+03 0.12341405420E+03
 0.13107992319E+03 0.13374632466E+03 0.13107992319E+03 0.12341405420E+03 0.11168065289E+03
 0.97221566498E+02 0.81527505983E+02 0.65978249834E+02 0.51653627123E+02 0.39247072512E+02
 0.29069800149E+02 0.21114146108E+02 0.15149321094E+02 0.10829685028E+02 0.77940101344E+01
 0.57343463860E+01 0.44249258948E+01 0.37186535883E+01 0.35284468824E+01 0.38093967364E+01
 0.45502978949E+01 0.57741674489E+01 0.75397943860E+01 0.99338300983E+01 0.13047378576E+02
 0.16938997491E+02 0.21592063736E+02 0.26877167465E+02 0.32531173639E+02 0.38163437016E+02
 0.43294223329E+02 0.47421299006E+02 0.50101834765E+02 0.63469234113E+02 0.62291322994E+02
 0.58895745667E+02 0.53670256897E+02 0.47179030562E+02 0.40061629613E+02 0.32928641113E+02
 0.26277243480E+02 0.20442249102E+02 0.15586918572E+02 0.11727629195E+02 0.87804534775E+01
 0.66154657159E+01 0.51046545317E+01 0.41525991319E+01 0.37070324156E+01 0.37561990752E+01
 0.43251372048E+01 0.54803502650E+01 0.73442752564E+01 0.10111641632E+02 0.14052427129E+02
 0.19485039945E+02 0.26712704806E+02 0.35932172462E+02 0.47135301389E+02 0.60024747288E+02
 0.73962822404E+02 0.87976141422E+02 0.10083976253E+03 0.11124640003E+03 0.11803036257E+03
 0.12038727122E+03 0.11803036257E+03 0.11124640003E+03 0.10083976253E+03 0.87976141422E+02
 0.73962822404E+02 0.60024747288E+02 0.47135301389E+02 0.35932172462E+02 0.26712704806E+02
 0.19485039945E+02 0.14052427129E+02 0.10111641632E+02 0.73442752564E+01 0.54803502650E+01
 0.43251372048E+01 0.37561990752E+01 0.37070324156E+01 0.41525991319E+01 0.51046545317E+01
 0.66154657159E+01 0.87804534775E+01 0.11727629195E+02 0.15586918572E+02 0.20442249102E+02
 0.26277243480E+02 0.32928641113E+02 0.40061629613E+02 0.47179030562E+02 0.53670256897E+02
 0.58895745667E+02 0.62291322994E+02 0.77199618773E+02 0.75746225763E+02 0.71557333879E+02
 0.65113803690E+02 0.57115213421E+02 0.48353841473E+02 0.39584750739E+02 0.31421796999E+02
 0.24278124566E+02 0.18354715380E+02 0.13669133261E+02 0.10110980723E+02 0.75080015355E+01
 0.56856962739E+01 0.45065277948E+01 0.38843134177E+01 0.37810547162E+01 0.41997387173E+01
 0.51842914463E+01 0.68297085620E+01 0.92957570565E+01 0.12809981269E+02 0.17644428078E+02
 0.24059087561E+02 0.32219986330E+02 0.42110975960E+02 0.53459837235E+02 0.65696946667E+02
 0.77965209987E+02 0.89198066981E+02 0.98266746952E+02 0.10417021933E+03 0.10621978477E+03
 0.10417021933E+03 0.98266746952E+02 0.89198066981E+02 0.77965209987E+02 0.65696946667E+02
 0.53459837235E+02 0.42110975960E+02 0.32219986330E+02 0.24059087561E+02 0.17644428078E+02
 0.12809981269E+02 0.92957570565E+01 0.68297085620E+01 0.51842914463E+01 0.41997387173E+01
 0.37810547162E+01 0.38843134177E+01 0.45065277948E+01 0.56856962739E+01 0.75080015355E+01
 0.10110980723E+02 0.13669133261E+02 0.18354715380E+02 0.24278124566E+02 0.31421796999E+02
 0.39584750739E+02 0.48353841473E+02 0.57115213421E+02 0.65113803690E+02 0.71557333879E+02
 0.75746225763E+02 0.91648966405E+02 0.89902262180E+02 0.84869189605E+02 0.77131195577E+02
 0.67534116823E+02 0.57034397816E+02 0.46540593432E+02 0.36788269619E+02 0.28270576963E+02
 0.21226261280E+02 0.15673686011E+02 0.11475246850E+02 0.84148434471E+01 0.62690821030E+01
 0.48554282210E+01 0.40510791106E+01 0.37897536646E+01 0.40510791106E+01 0.48554282210E+01
 0.62690821030E+01 0.84148434471E+01 0.11475246850E+02 0.15673686011E+02 0.21226261280E+02
 0.28270576963E+02 0.36788269619E+02 0.46540593432E+02 0.57034397816E+02 0.67534116823E+02
 0.77131195577E+02 0.84869189605E+02 0.89902262180E+02 0.91648966405E+02 0.89902262180E+02
 0.84869189605E+02 0.77131195577E+02 0.67534116823E+02 0.57034397816E+02 0.46540593432E+02
 0.36788269619E+02 0.28270576963E+02 0.21226261280E+02 0.15673686011E+02 0.11475246850E+02
 0.84148434471E+01 0.62690821030E+01 0.48554282210E+01 0.40510791106E+01 0.37897536646E+01
 0.40510791106E+01 0.48554282210E+01 0.62690821030E+01 0.84148434471E+01 0.11475246850E+02
 0.15673686011E+02 0.21226261280E+02 0.28270576963E+02 0.36788269619E+02 0.46540593432E+02
 0.57034397816E+02 0.67534116823E+02 0.77131195577E+02 0.84869189605E+02 0.89902262180E+02
 0.10621978477E+03 0.10417021933E+03 0.98266746952E+02 0.89198066981E+02 0.77965209987E+02
 0.65696946667E+02 0.53459837235E+02 0.42110975960E+02 0.32219986330E+02 0.24059087561E+02
 0.17644428078E+02 0.12809981269E+02 0.92957570565E+01 0.68297085620E+01 0.51842914463E+01
 0.41997387173E+01 0.37810547162E+01 0.38843134177E+01 0.45065277948E+01 0.56856962739E+01
 0.75080015355E+01 0.10110980723E+02 0.13669133261E+02 0.18354715380E+02 0.24278124566E+02
 0.31421796999E+02 0.39584750739E+02 0.48353841473E+02 0.57115213421E+02 0.65113803690E+02
 0.71557333879E+02 0.75746225763E+02 0.77199618773E+02 0.75746225763E+02 0.71557333879E+02
 0.65113803690E+02 0.57115213421E+02 0.48353841473E+02 0.39584750739E+02 0.31421796999E+02
 0.24278124566E+02 0.18354715380E+02 0.13669133261E+02 0.10110980723E+02 0.75080015355E+01
 0.56856962739E+01 0.45065277948E+01 0.38843134177E+01 0.37810547162E+01 0.41997387173E+01
 0.51842914463E+01 0.68297085620E+01 0.92957570565E+01 0.12809981269E+02 0.17644428078E+02
 0.24059087561E+02 0.32219986330E+02 0.42110975960E+02 0.53459837235E+02 0.65696946667E+02
 0.77965209987E+02 0.89198066981E+02 0.98266746952E+02 0.10417021933E+03 0.12038727122E+03
 0.11803036257E+03 0.11124640003E+03 0.10083976253E+03 0.87976141422E+02 0.73962822404E+02
 0.60024747288E+02 0.47135301389E+02 0.35932172462E+02 0.26712704806E+02 0.19485039945E+02
 0.14052427129E+02 0.10111641632E+02 0.73442752564E+01 0.54803502650E+01 0.43251372048E+01
 0.37561990752E+01 0.37070324156E+01 0.41525991319E+01 0.51046545317E+01 0.66154657159E+01
 0.87804534775E+01 0.11727629195E+02 0.15586918572E+02 0.20442249102E+02 0.26277243480E+02
 0.32928641113E+02 0.40061629613E+02 0.47179030562E+02 0.53670256897E+02 0.58895745667E+02
 0.62291322994E+02 0.63469234113E+02 0.62291322994E+02 0.58895745667E+02 0.53670256897E+02
 0.47179030562E+02 0.40061629613E+02 0.32928641113E+02 0.26277243480E+02 0.20442249102E+02
 0.15586918572E+02 0.11727629195E+02 0.87804534775E+01 0.66154657159E+01 0.51046545317E+01
 0.41525991319E+01 0.37070324156E+01 0.37561990752E+01 0.43251372048E+01 0.54803502650E+01
 0.73442752564E+01 0.10111641632E+02 0.14052427129E+02 0.19485039945E+02 0.26712704806E+02
 0.35932172462E+02 0.47135301389E+02 0.60024747288E+02 0.73962822404E+02 0.87976141422E+02
 0.10083976253E+03 0.11124640003E+03 0.11803036257E+03 0.13374632466E+03 0.13107992319E+03
 0.12341405420E+03 0.11168065289E+03 0.97221566498E+02 0.81527505983E+02 0.65978249834E+02
 0.51653627123E+02 0.39247072512E+02 0.29069800149E+02 0.21114146108E+02 0.15149321094E+02
 0.10829685028E+02 0.77940101344E+01 0.57343463860E+01 0.44249258948E+01 0.37186535883E+01
 0.35284468824E+01 0.38093967364E+01 0.45502978949E+01 0.57741674489E+01 0.75397943860E+01
 0.99338300983E+01 0.13047378576E+02 0.16938997491E+02 0.21592063736E+02 0.26877167465E+02
 0.32531173639E+02 0.38163437016E+02 0.43294223329E+02 0.47421299006E+02 0.50101834765E+02
 0.51031495834E+02 0.50101834765E+02 0.47421299006E+02 0.43294223329E+02 0.38163437016E+02
 0.32531173639E+02 0.26877167465E+02 0.21592063736E+02 0.16938997491E+02 0.13047378576E+02
 0.99338300983E+01 0.75397943860E+01 0.57741674489E+01 0.45502978949E+01 0.38093967364E+01
 0.35284468824E+01 0.37186535883E+01 0.44249258948E+01 0.57343463860E+01 0.77940101344E+01
 0.10829685028E+02 0.15149321094E+02 0.21114146108E+02 0.29069800149E+02 0.39247072512E+02
 0.51653627123E+02 0.65978249834E+02 0.81527505983E+02 0.97221566498E+02 0.11168065289E+03
 0.12341405420E+03 0.13107992319E+03 0.14598188825E+03 0.14300724071E+03 0.13446918717E+03
 0.12144069570E+03 0.10545114482E+03 0.88176755522E+02 0.71144310313E+02 0.55526517855E+02
 0.42058123801E+02 0.31052129154E+02 0.22477002950E+02 0.16064558342E+02 0.11427795994E+02
 0.81668572164E+01 0.59413103084E+01 0.44994724442E+01 0.36734410867E+01 0.33583023555E+01
 0.34920038482E+01 0.40443743107E+01 0.50150683461E+01 0.64335463772E+01 0.83524056324E+01
 0.10829423941E+02 0.13899894040E+02 0.17544795510E+02 0.21662037850E+02 0.26049451305E+02
 0.30408294745E+02 0.34371906267E+02 0.37556416500E+02 0.39623322144E+02 0.40339935233E+02
 0.39623322144E+02 0.37556416500E+02 0.34371906267E+02 0.30408294745E+02 0.26049451305E+02
 0.21662037850E+02 0.17544795510E+02 0.13899894040E+02 0.10829423941E+02 0.83524056324E+01
 0.64335463772E+01 0.50150683461E+01 0.40443743107E+01 0.34920038482E+01 0.33583023555E+01
 0.36734410867E+01 0.44994724442E+01 0.59413103084E+01 0.81668572164E+01 0.11427795994E+02
 0.16064558342E+02 0.22477002950E+02 0.31052129154E+02 0.42058123801E+02 0.55526517855E+02
 0.71144310313E+02 0.88176755522E+02 0.10545114482E+03 0.12144069570E+03 0.13446918717E+03
 0.14300724071E+03 0.15678950666E+03 0.15351731479E+03 0.14414356267E+03 0.12989115697E+03
 0.11248174068E+03 0.93772140783E+02 0.75422984083E+02 0.58683865903E+02 0.44316714775E+02
 0.32626089755E+02 0.23550637749E+02 0.16783023437E+02 0.11896902028E+02 0.84584740860E+01
 0.61006591531E+01 0.45513870629E+01 0.36262915595E+01 0.32058196389E+01 0.32137796555E+01
 0.36052016827E+01 0.43625656446E+01 0.54939779622E+01 0.70264225315E+01 0.89912645441E+01
 0.11403832146E+02 0.14240841122E+02 0.17419878250E+02 0.20786609639E+02 0.24116483868E+02
 0.27135121061E+02 0.29555541758E+02 0.31124643274E+02 0.31668363643E+02 0.31124643274E+02
 0.29555541758E+02 0.27135121061E+02 0.24116483868E+02 0.20786609639E+02 0.17419878250E+02
 0.14240841122E+02 0.11403832146E+02 0.89912645441E+01 0.70264225315E+01 0.54939779622E+01
 0.43625656446E+01 0.36052016827E+01 0.32137796555E+01 0.32058196389E+01 0.36262915595E+01
 0.45513870629E+01 0.61006591531E+01 0.84584740860E+01 0.11896902028E+02 0.16783023437E+02
 0.23550637749E+02 0.32626089755E+02 0.44316714775E+02 0.58683865903E+02 0.75422984083E+02
 0.93772140783E+02 0.11248174068E+03 0.12989115697E+03 0.14414356267E+03 0.15351731479E+03
 0.16581327988E+03 0.16227209889E+03 0.15214772256E+03 0.13680928262E+03 0.11816051485E+03
 0.98221938987E+02 0.78768376894E+02 0.61109201988E+02 0.46021956744E+02 0.33796768470E+02
 0.24340806039E+02 0.17309177613E+02 0.12240202940E+02 0.86716089398E+01 0.62155085631E+01
 0.45847608304E+01 0.35828407059E+01 0.30789241263E+01 0.29858021904E+01 0.32476480248E+01
 0.38353989006E+01 0.47432326876E+01 0.59808255222E+01 0.75605169984E+01 0.94819027349E+01
 0.11716506043E+02 0.14194356523E+02 0.16795408144E+02 0.19350485942E+02 0.21655378769E+02
 0.23497393247E+02 0.24689129943E+02 0.25101697573E+02 0.24689129943E+02 0.23497393247E+02
 0.21655378769E+02 0.19350485942E+02 0.16795408144E+02 0.14194356523E+02 0.11716506043E+02
 0.94819027349E+01 0.75605169984E+01 0.59808255222E+01 0.47432326876E+01 0.38353989006E+01
 0.32476480248E+01 0.29858021904E+01 0.30789241263E+01 0.35828407059E+01 0.45847608304E+01
 0.62155085631E+01 0.86716089398E+01 0.12240202940E+02 0.17309177613E+02 0.24340806039E+02
 0.33796768470E+02 0.46021956744E+02 0.61109201988E+02 0.78768376894E+02 0.98221938987E+02
 0.11816051485E+03 0.13680928262E+03 0.15214772256E+03 0.16227209889E+03 0.17265286286E+03
 0.16889491732E+03 0.15816859666E+03 0.14196723829E+03 0.12234603994E+03 0.10145728176E+03
 0.81163459246E+02 0.62816419474E+02 0.47201432382E+02 0.34593510750E+02 0.24872104572E+02
 0.17660797279E+02 0.12469415256E+02 0.88138577483E+01 0.62912593626E+01 0.46042227699E+01
 0.35480014164E+01 0.29838528865E+01 0.28167141492E+01 0.29834307170E+01 0.34479403546E+01
 0.41964452461E+01 0.52283581274E+01 0.65438529617E+01 0.81314431866E+01 0.99577288119E+01
 0.11959458814E+02 0.14038625009E+02 0.16063416297E+02 0.17878044222E+02 0.19321663546E+02
 0.20253003707E+02 0.20574988425E+02 0.20253003707E+02 0.19321663546E+02 0.17878044222E+02
 0.16063416297E+02 0.14038625009E+02 0.11959458814E+02 0.99577288119E+01 0.81314431866E+01
 0.65438529617E+01 0.52283581274E+01 0.41964452461E+01 0.34479403546E+01 0.29834307170E+01
 0.28167141492E+01 0.29838528865E+01 0.35480014164E+01 0.46042227699E+01 0.62912593626E+01
 0.88138577483E+01 0.12469415256E+02 0.17660797279E+02 0.24872104572E+02 0.34593510750E+02
 0.47201432382E+02 0.62816419474E+02 0.81163459246E+02 0.10145728176E+03 0.12234603994E+03
 0.14196723829E+03 0.15816859666E+03 0.16889491732E+03 0.17693364388E+03 0.17303446908E+03
 0.16191719920E+03 0.14515874280E+03 0.12491486391E+03 0.10342348094E+03 0.82602301776E+02
 0.63828528030E+02 0.47890640713E+02 0.35052571361E+02 0.25174843499E+02 0.17859962419E+02
 0.12599106214E+02 0.88943436547E+01 0.63337393122E+01 0.46139584226E+01 0.35255327618E+01
 0.29250443677E+01 0.27127359210E+01 0.28212459693E+01 0.32108865720E+01 0.38640413990E+01
 0.47750614483E+01 0.59376280267E+01 0.73337742729E+01 0.89265879426E+01 0.10655759374E+02
 0.12435216425E+02 0.14154366691E+02 0.15685501603E+02 0.16898166186E+02 0.17678290990E+02
 0.17947627280E+02 0.17678290990E+02 0.16898166186E+02 0.15685501603E+02 0.14154366691E+02
 0.12435216425E+02 0.10655759374E+02 0.89265879426E+01 0.73337742729E+01 0.59376280267E+01
 0.47750614483E+01 0.38640413990E+01 0.32108865720E+01 0.28212459693E+01 0.27127359210E+01
 0.29250443677E+01 0.35255327618E+01 0.46139584226E+01 0.63337393122E+01 0.88943436547E+01
 0.12599106214E+02 0.17859962419E+02 0.25174843499E+02 0.35052571361E+02 0.47890640713E+02
 0.63828528030E+02 0.82602301776E+02 0.10342348094E+03 0.12491486391E+03 0.14515874280E+03
 0.16191719920E+03 0.17303446908E+03 0.17839199245E+03 0.17444375431E+03 0.16319087581E+03
 0.14623973975E+03 0.12578135179E+03 0.10408332896E+03 0.83082229365E+02 0.64163683035E+02
 0.48117007269E+02 0.35202104902E+02 0.25272792136E+02 0.17924157618E+02 0.12640875987E+02
 0.89202674871E+01 0.63473547912E+01 0.46168601796E+01 0.35177783629E+01 0.29051478350E+01
 0.26776513631E+01 0.27665583283E+01 0.31310748336E+01 0.37524921789E+01 0.46236872960E+01
 0.57363409627E+01 0.70703676195E+01 0.85875824208E+01 0.10228448422E+02 0.11910623446E+02
 0.13530352305E+02 0.14969090898E+02 0.16106367181E+02 0.16837080416E+02 0.17089203950E+02
 0.16837080416E+02 0.16106367181E+02 0.14969090898E+02 0.13530352305E+02 0.11910623446E+02
 0.10228448422E+02 0.85875824208E+01 0.70703676195E+01 0.57363409627E+01 0.46236872960E+01
 0.37524921789E+01 0.31310748336E+01 0.27665583283E+01 0.26776513631E+01 0.29051478350E+01
 0.35177783629E+01 0.46168601796E+01 0.63473547912E+01 0.89202674871E+01 0.12640875987E+02
 0.17924157618E+02 0.25272792136E+02 0.35202104902E+02 0.48117007269E+02 0.64163683035E+02
 0.83082229365E+02 0.10408332896E+03 0.12578135179E+03 0.14623973975E+03 0.16319087581E+03
 0.17444375431E+03 0.17693364388E+03 0.17303446908E+03 0.16191719920E+03 0.14515874280E+03
 0.12491486391E+03 0.10342348094E+03 0.82602301776E+02 0.63828528030E+02 0.47890640713E+02
 0.35052571361E+02 0.25174843499E+02 0.17859962419E+02 0.12599106214E+02 0.88943436547E+01
 0.63337393122E+01 0.46139584226E+01 0.35255327618E+01 0.29250443677E+01 0.27127359210E+01
 0.28212459693E+01 0.32108865720E+01 0.38640413990E+01 0.47750614483E+01 0.59376280267E+01
 0.73337742729E+01 0.89265879426E+01 0.10655759374E+02 0.12435216425E+02 0.14154366691E+02
 0.15685501603E+02 0.16898166186E+02 0.17678290990E+02 0.17947627280E+02 0.17678290990E+02
 0.16898166186E+02 0.15685501603E+02 0.14154366691E+02 0.12435216425E+02 0.10655759374E+02
 0.89265879426E+01 0.73337742729E+01 0.59376280267E+01 0.47750614483E+01 0.38640413990E+01
 0.32108865720E+01 0.28212459693E+01 0.27127359210E+01 0.29250443677E+01 0.35255327618E+01
 0.46139584226E+01 0.63337393122E+01 0.88943436547E+01 0.12599106214E+02 0.17859962419E+02
 0.25174843499E+02 0.35052571361E+02 0.47890640713E+02 0.63828528030E+02 0.82602301776E+02
 0.10342348094E+03 0.12491486391E+03 0.14515874280E+03 0.16191719920E+03 0.17303446908E+03
 0.17265286286E+03 0.16889491732E+03 0.15816859666E+03 0.14196723829E+03 0.12234603994E+03
 0.10145728176E+03 0.81163459246E+02 0.62816419474E+02 0.47201432382E+02 0.34593510750E+02
 0.24872104572E+02 0.17660797279E+02 0.12469415256E+02 0.88138577483E+01 0.62912593626E+01
 0.46042227699E+01 0.35480014164E+01 0.29838528865E+01 0.28167141492E+01 0.29834307170E+01
 0.34479403546E+01 0.41964452461E+01 0.52283581274E+01 0.65438529617E+01 0.81314431866E+01
 0.99577288119E+01 0.11959458814E+02 0.14038625009E+02 0.16063416297E+02 0.17878044222E+02
 0.19321663546E+02 0.20253003707E+02 0.20574988425E+02 0.20253003707E+02 0.19321663546E+02
 0.17878044222E+02 0.16063416297E+02 0.14038625009E+02 0.11959458814E+02 0.99577288119E+01
 0.81314431866E+01 0.65438529617E+01 0.52283581274E+01 0.41964452461E+01 0.34479403546E+01
 0.29834307170E+01 0.28167141492E+01 0.29838528865E+01 0.35480014164E+01 0.46042227699E+01
 0.62912593626E+01 0.88138577483E+01 0.12469415256E+02 0.17660797279E+02 0.24872104572E+02
 0.34593510750E+02 0.47201432382E+02 0.62816419474E+02 0.81163459246E+02 0.10145728176E+03
 0.12234603994E+03 0.14196723829E+03 0.15816859666E+03 0.16889491732E+03 0.16581327988E+03
 0.16227209889E+03 0.15214772256E+03 0.13680928262E+03 0.11816051485E+03 0.98221938987E+02
 0.78768376894E+02 0.61109201988E+02 0.46021956744E+02 0.33796768470E+02 0.24340806039E+02
 0.17309177613E+02 0.12240202940E+02 0.86716089398E+01 0.62155085631E+01 0.45847608304E+01
 0.35828407059E+01 0.30789241263E+01 0.29858021904E+01 0.32476480248E+01 0.38353989006E+01
 0.47432326876E+01 0.59808255222E+01 0.75605169984E+01 0.94819027349E+01 0.11716506043E+02
 0.14194356523E+02 0.16795408144E+02 0.19350485942E+02 0.21655378769E+02 0.23497393247E+02
 0.24689129943E+02 0.25101697573E+02 0.24689129943E+02 0.23497393247E+02 0.21655378769E+02
 0.19350485942E+02 0.16795408144E+02 0.14194356523E+02 0.11716506043E+02 0.94819027349E+01
 0.75605169984E+01 0.59808255222E+01 0.47432326876E+01 0.38353989006E+01 0.32476480248E+01
 0.29858021904E+01 0.30789241263E+01 0.35828407059E+01 0.45847608304E+01 0.62155085631E+01
 0.86716089398E+01 0.12240202940E+02 0.17309177613E+02 0.24340806039E+02 0.33796768470E+02
 0.46021956744E+02 0.61109201988E+02 0.78768376894E+02 0.98221938987E+02 0.11816051485E+03
 0.13680928262E+03 0.15214772256E+03 0.16227209889E+03 0.15678950666E+03 0.15351731479E+03
 0.14414356267E+03 0.12989115697E+03 0.11248174068E+03 0.93772140783E+02 0.75422984083E+02
 0.58683865903E+02 0.44316714775E+02 0.32626089755E+02 0.23550637749E+02 0.16783023437E+02
 0.11896902028E+02 0.84584740860E+01 0.61006591531E+01 0.45513870629E+01 0.36262915595E+01
 0.32058196389E+01 0.32137796555E+01 0.36052016827E+01 0.43625656446E+01 0.54939779622E+01
 0.70264225315E+01 0.89912645441E+01 0.11403832146E+02 0.14240841122E+02 0.17419878250E+02
 0.20786609639E+02 0.24116483868E+02 0.27135121061E+02 0.29555541758E+02 0.31124643274E+02
 0.31668363643E+02 0.31124643274E+02 0.29555541758E+02 0.27135121061E+02 0.24116483868E+02
 0.20786609639E+02 0.17419878250E+02 0.14240841122E+02 0.11403832146E+02 0.89912645441E+01
 0.70264225315E+01 0.54939779622E+01 0.43625656446E+01 0.36052016827E+01 0.32137796555E+01
 0.32058196389E+01 0.36262915595E+01 0.45513870629E+01 0.61006591531E+01 0.84584740860E+01
 0.11896902028E+02 0.16783023437E+02 0.23550637749E+02 0.32626089755E+02 0.44316714775E+02
 0.58683865903E+02 0.75422984083E+02 0.93772140783E+02 0.11248174068E+03 0.12989115697E+03
 0.14414356267E+03 0.15351731479E+03 0.14598188825E+03 0.14300724071E+03 0.13446918717E+03
 0.12144069570E+03 0.10545114482E+03 0.88176755522E+02 0.71144310313E+02 0.55526517855E+02
 0.42058123801E+02 0.31052129154E+02 0.22477002950E+02 0.16064558342E+02 0.11427795994E+02
 0.81668572164E+01 0.59413103084E+01 0.44994724442E+01 0.36734410867E+01 0.33583023555E+01
 0.34920038482E+01 0.40443743107E+01 0.50150683461E+01 0.64335463772E+01 0.83524056324E+01
 0.10829423941E+02 0.13899894040E+02 0.17544795510E+02 0.21662037850E+02 0.26049451305E+02
 0.30408294745E+02 0.34371906267E+02 0.37556416500E+02 0.39623322144E+02 0.40339935233E+02
 0.39623322144E+02 0.37556416500E+02 0.34371906267E+02 0.30408294745E+02 0.26049451305E+02
 0.21662037850E+02 0.17544795510E+02 0.13899894040E+02 0.10829423941E+02 0.83524056324E+01
 0.64335463772E+01 0.50150683461E+01 0.40443743107E+01 0.34920038482E+01 0.33583023555E+01
 0.36734410867E+01 0.44994724442E+01 0.59413103084E+01 0.81668572164E+01 0.11427795994E+02
 0.16064558342E+02 0.22477002950E+02 0.31052129154E+02 0.42058123801E+02 0.55526517855E+02
 0.71144310313E+02 0.88176755522E+02 0.10545114482E+03 0.12144069570E+03 0.13446918717E+03
 0.14300724071E+03 0.13374632466E+03 0.13107992319E+03 0.12341405420E+03 0.11168065289E+03
 0.97221566498E+02 0.81527505983E+02 0.65978249834E+02 0.51653627123E+02 0.39247072512E+02
 0.29069800149E+02 0.21114146108E+02 0.15149321094E+02 0.10829685028E+02 0.77940101344E+01
 0.57343463860E+01 0.44249258948E+01 0.37186535883E+01 0.35284468824E+01 0.38093967364E+01
 0.45502978949E+01 0.57741674489E+01 0.75397943860E+01 0.99338300983E+01 0.13047378576E+02
 0.16938997491E+02 0.21592063736E+02 0.26877167465E+02 0.32531173639E+02 0.38163437016E+02
 0.43294223329E+02 0.47421299006E+02 0.50101834765E+02 0.51031495834E+02 0.50101834765E+02
 0.47421299006E+02 0.43294223329E+02 0.38163437016E+02 0.32531173639E+02 0.26877167465E+02
 0.21592063736E+02 0.16938997491E+02 0.13047378576E+02 0.99338300983E+01 0.75397943860E+01
 0.57741674489E+01 0.45502978949E+01 0.38093967364E+01 0.35284468824E+01 0.37186535883E+01
 0.44249258948E+01 0.57343463860E+01 0.77940101344E+01 0.10829685028E+02 0.15149321094E+02
 0.21114146108E+02 0.29069800149E+02 0.39247072512E+02 0.51653627123E+02 0.65978249834E+02
 0.81527505983E+02 0.97221566498E+02 0.11168065289E+03 0.12341405420E+03 0.13107992319E+03
 0.12038727122E+03 0.11803036257E+03 0.11124640003E+03 0.10083976253E+03 0.87976141422E+02
 0.73962822404E+02 0.60024747288E+02 0.47135301389E+02 0.35932172462E+02 0.26712704806E+02
 0.19485039945E+02 0.14052427129E+02 0.10111641632E+02 0.73442752564E+01 0.54803502650E+01
 0.43251372048E+01 0.37561990752E+01 0.37070324156E+01 0.41525991319E+01 0.51046545317E+01