   8   8   0   0
  0.4972448E+02  0.8577010E-09  0.4554220E-09  0.1018381E-08  0.5000000E-15
  1.000000000000000E-004
  CAR 
 I                                       
     11.74164139    -13.13253083  301      1.54841290      1.00000000
    -13.133  0.0000E+00  0.0000E+00
    -13.050  0.0000E+00  0.0000E+00
    -12.967  0.0000E+00  0.0000E+00
    -12.884  0.0000E+00  0.0000E+00
    -12.801  0.0000E+00  0.0000E+00
    -12.718  0.0000E+00  0.0000E+00
    -12.635  0.0000E+00  0.0000E+00
    -12.552  0.0000E+00  0.0000E+00
    -12.469  0.0000E+00  0.0000E+00
    -12.386  0.0000E+00  0.0000E+00
    -12.303  0.0000E+00  0.0000E+00
    -12.220  0.3870E-10  0.3209E-11
    -12.138  0.1134E-04  0.9407E-06
    -12.055  0.2591E-01  0.2149E-02
    -11.972  0.1283E+01  0.1085E+00
    -11.889  0.6091E+01  0.6136E+00
    -11.806  0.9678E+01  0.1416E+01
    -11.723  0.1084E+02  0.2315E+01
    -11.640  0.1415E+02  0.3488E+01
    -11.557  0.1976E+02  0.5127E+01
    -11.474  0.2213E+02  0.6962E+01
    -11.391  0.1131E+02  0.7900E+01
    -11.308  0.1203E+01  0.7999E+01
    -11.226  0.6230E-02  0.8000E+01
    -11.143  0.4425E-06  0.8000E+01
    -11.060  0.2072E-12  0.8000E+01
    -10.977  0.0000E+00  0.8000E+01
    -10.894  0.0000E+00  0.8000E+01
    -10.811  0.0000E+00  0.8000E+01
    -10.728  0.0000E+00  0.8000E+01
    -10.645  0.1046E-16  0.8000E+01
    -10.562  0.2555E-09  0.8000E+01
    -10.479  0.3145E-04  0.8000E+01
    -10.396  0.3105E-01  0.8003E+01
    -10.313  0.9712E+00  0.8083E+01
    -10.231  0.3881E+01  0.8405E+01
    -10.148  0.5617E+01  0.8871E+01
    -10.065  0.6649E+01  0.9422E+01
     -9.982  0.7989E+01  0.1008E+02
     -9.899  0.1056E+02  0.1096E+02
     -9.816  0.1504E+02  0.1221E+02
     -9.733  0.1136E+02  0.1315E+02
     -9.650  0.9024E+01  0.1390E+02
     -9.567  0.7410E+01  0.1451E+02
     -9.484  0.6194E+01  0.1503E+02
     -9.401  0.5864E+01  0.1551E+02
     -9.318  0.4697E+01  0.1590E+02
     -9.236  0.1172E+01  0.1600E+02
     -9.153  0.2137E-01  0.1600E+02
     -9.070  0.8098E-05  0.1600E+02
     -8.987  0.2225E-10  0.1600E+02
     -8.904  0.0000E+00  0.1600E+02
     -8.821  0.0000E+00  0.1600E+02
     -8.738  0.0000E+00  0.1600E+02
     -8.655  0.0000E+00  0.1600E+02
     -8.572  0.0000E+00  0.1600E+02
     -8.489  0.0000E+00  0.1600E+02
     -8.406  0.0000E+00  0.1600E+02
     -8.324  0.0000E+00  0.1600E+02
     -8.241  0.0000E+00  0.1600E+02
     -8.158  0.0000E+00  0.1600E+02
     -8.075  0.0000E+00  0.1600E+02
     -7.992  0.0000E+00  0.1600E+02
     -7.909  0.0000E+00  0.1600E+02
     -7.826  0.0000E+00  0.1600E+02
     -7.743  0.0000E+00  0.1600E+02
     -7.660  0.0000E+00  0.1600E+02
     -7.577  0.0000E+00  0.1600E+02
     -7.494  0.0000E+00  0.1600E+02
     -7.411  0.0000E+00  0.1600E+02
     -7.329  0.0000E+00  0.1600E+02
     -7.246  0.0000E+00  0.1600E+02
     -7.163  0.0000E+00  0.1600E+02
     -7.080  0.0000E+00  0.1600E+02
     -6.997  0.0000E+00  0.1600E+02
     -6.914  0.0000E+00  0.1600E+02
     -6.831  0.0000E+00  0.1600E+02
     -6.748  0.0000E+00  0.1600E+02
     -6.665  0.0000E+00  0.1600E+02
     -6.582  0.0000E+00  0.1600E+02
     -6.499  0.0000E+00  0.1600E+02
     -6.417  0.0000E+00  0.1600E+02
     -6.334  0.0000E+00  0.1600E+02
     -6.251  0.0000E+00  0.1600E+02
     -6.168  0.0000E+00  0.1600E+02
     -6.085  0.0000E+00  0.1600E+02
     -6.002  0.0000E+00  0.1600E+02
     -5.919  0.0000E+00  0.1600E+02
     -5.836  0.0000E+00  0.1600E+02
     -5.753  0.0000E+00  0.1600E+02
     -5.670  0.0000E+00  0.1600E+02
     -5.587  0.0000E+00  0.1600E+02
     -5.504  0.0000E+00  0.1600E+02
     -5.422  0.0000E+00  0.1600E+02
     -5.339  0.0000E+00  0.1600E+02
     -5.256  0.0000E+00  0.1600E+02
     -5.173  0.0000E+00  0.1600E+02
     -5.090  0.0000E+00  0.1600E+02
     -5.007  0.0000E+00  0.1600E+02
     -4.924  0.0000E+00  0.1600E+02
     -4.841  0.0000E+00  0.1600E+02
     -4.758  0.0000E+00  0.1600E+02
     -4.675  0.0000E+00  0.1600E+02
     -4.592  0.0000E+00  0.1600E+02
     -4.509  0.0000E+00  0.1600E+02
     -4.427  0.0000E+00  0.1600E+02
     -4.344  0.0000E+00  0.1600E+02
     -4.261  0.0000E+00  0.1600E+02
     -4.178  0.0000E+00  0.1600E+02
     -4.095  0.0000E+00  0.1600E+02
     -4.012  0.0000E+00  0.1600E+02
     -3.929  0.0000E+00  0.1600E+02
     -3.846  0.0000E+00  0.1600E+02
     -3.763  0.0000E+00  0.1600E+02
     -3.680  0.0000E+00  0.1600E+02
     -3.597  0.0000E+00  0.1600E+02
     -3.515  0.2615E-17  0.1600E+02
     -3.432  0.1303E-09  0.1600E+02
     -3.349  0.2321E-04  0.1600E+02
     -3.266  0.3563E-01  0.1600E+02
     -3.183  0.1718E+01  0.1615E+02
     -3.100  0.9275E+01  0.1691E+02
     -3.017  0.1271E+02  0.1797E+02
     -2.934  0.1055E+02  0.1884E+02
     -2.851  0.8921E+01  0.1958E+02
     -2.768  0.1148E+02  0.2053E+02
     -2.685  0.9946E+01  0.2136E+02
     -2.602  0.2142E+01  0.2154E+02
     -2.520  0.4863E+01  0.2194E+02
     -2.437  0.2692E+01  0.2216E+02
     -2.354  0.4713E+01  0.2255E+02
     -2.271  0.4475E+01  0.2292E+02
     -2.188  0.1456E+01  0.2305E+02
     -2.105  0.1649E+01  0.2318E+02
     -2.022  0.1593E+01  0.2331E+02
     -1.939  0.2077E+01  0.2349E+02
     -1.856  0.3005E+01  0.2374E+02
     -1.773  0.1409E+01  0.2385E+02
     -1.690  0.2745E+01  0.2408E+02
     -1.607  0.5429E+01  0.2453E+02
     -1.525  0.6358E+01  0.2506E+02
     -1.442  0.5152E+01  0.2548E+02
     -1.359  0.5594E+01  0.2595E+02
     -1.276  0.9371E+01  0.2673E+02
     -1.193  0.9328E+01  0.2750E+02
     -1.110  0.8382E+01  0.2819E+02
     -1.027  0.1006E+02  0.2903E+02
     -0.944  0.1121E+02  0.2996E+02
     -0.861  0.1110E+02  0.3088E+02
     -0.778  0.1154E+02  0.3183E+02
     -0.695  0.1273E+02  0.3289E+02
     -0.613  0.1418E+02  0.3407E+02
     -0.530  0.1803E+02  0.3556E+02
     -0.447  0.2024E+02  0.3724E+02
     -0.364  0.1256E+02  0.3828E+02
     -0.281  0.7591E+01  0.3891E+02
     -0.198  0.8121E+01  0.3958E+02
     -0.115  0.6840E+01  0.4015E+02
     -0.032  0.4941E+01  0.4056E+02
      0.051  0.8179E+01  0.4124E+02
      0.134  0.1192E+02  0.4223E+02
      0.217  0.1048E+02  0.4310E+02
      0.300  0.9531E+01  0.4389E+02
      0.382  0.7219E+01  0.4448E+02
      0.465  0.1119E+02  0.4541E+02
      0.548  0.1195E+02  0.4640E+02
      0.631  0.1349E+02  0.4752E+02
      0.714  0.1475E+02  0.4875E+02
      0.797  0.1863E+02  0.5029E+02
      0.880  0.1873E+02  0.5184E+02
      0.963  0.2060E+02  0.5355E+02
      1.046  0.1650E+02  0.5492E+02
      1.129  0.7761E+01  0.5556E+02
      1.212  0.3022E+01  0.5581E+02
      1.294  0.1807E+01  0.5596E+02
      1.377  0.4250E+00  0.5600E+02
      1.460  0.1676E-01  0.5600E+02
      1.543  0.1342E-04  0.5600E+02
      1.626  0.8565E-10  0.5600E+02
      1.709  0.0000E+00  0.5600E+02
      1.792  0.0000E+00  0.5600E+02
      1.875  0.2877E-16  0.5600E+02
      1.958  0.8268E-09  0.5600E+02
      2.041  0.1035E-03  0.5600E+02
      2.124  0.8509E-01  0.5601E+02
      2.207  0.1634E+01  0.5614E+02
      2.289  0.3589E+01  0.5644E+02
      2.372  0.2803E+01  0.5667E+02
      2.455  0.2026E+01  0.5684E+02
      2.538  0.2496E+01  0.5705E+02
      2.621  0.5637E+01  0.5751E+02
      2.704  0.1026E+02  0.5837E+02
      2.787  0.9547E+01  0.5916E+02
      2.870  0.5599E+01  0.5962E+02
      2.953  0.4898E+01  0.6003E+02
      3.036  0.8989E+01  0.6077E+02
      3.119  0.7720E+01  0.6141E+02
      3.202  0.8791E+01  0.6214E+02
      3.284  0.1342E+02  0.6325E+02
      3.367  0.7480E+01  0.6387E+02
      3.450  0.1501E+01  0.6400E+02
      3.533  0.1135E-01  0.6400E+02
      3.616  0.9070E-06  0.6400E+02
      3.699  0.4792E-12  0.6400E+02
      3.782  0.0000E+00  0.6400E+02
      3.865  0.0000E+00  0.6400E+02
      3.948  0.0000E+00  0.6400E+02
      4.031  0.0000E+00  0.6400E+02
      4.114  0.0000E+00  0.6400E+02
      4.196  0.0000E+00  0.6400E+02
      4.279  0.0000E+00  0.6400E+02
      4.362  0.0000E+00  0.6400E+02
      4.445  0.0000E+00  0.6400E+02
      4.528  0.0000E+00  0.6400E+02
      4.611  0.0000E+00  0.6400E+02
      4.694  0.0000E+00  0.6400E+02
      4.777  0.0000E+00  0.6400E+02
      4.860  0.0000E+00  0.6400E+02
      4.943  0.0000E+00  0.6400E+02
      5.026  0.0000E+00  0.6400E+02
      5.109  0.0000E+00  0.6400E+02
      5.191  0.0000E+00  0.6400E+02
      5.274  0.0000E+00  0.6400E+02
      5.357  0.0000E+00  0.6400E+02
      5.440  0.0000E+00  0.6400E+02
      5.523  0.0000E+00  0.6400E+02
      5.606  0.0000E+00  0.6400E+02
      5.689  0.0000E+00  0.6400E+02
      5.772  0.2055E-10  0.6400E+02
      5.855  0.3664E-05  0.6400E+02
      5.938  0.4112E-02  0.6400E+02
      6.021  0.7691E-01  0.6401E+02
      6.103  0.1648E+00  0.6402E+02
      6.186  0.4417E+00  0.6406E+02
      6.269  0.6662E+00  0.6411E+02
      6.352  0.8509E+00  0.6418E+02
      6.435  0.7152E+00  0.6424E+02
      6.518  0.1033E+01  0.6433E+02
      6.601  0.1664E+01  0.6447E+02
      6.684  0.1933E+01  0.6463E+02
      6.767  0.2811E+01  0.6486E+02
      6.850  0.4671E+01  0.6525E+02
      6.933  0.5803E+01  0.6573E+02
      7.016  0.7005E+01  0.6631E+02
      7.098  0.8749E+01  0.6703E+02
      7.181  0.8860E+01  0.6777E+02
      7.264  0.1051E+02  0.6864E+02
      7.347  0.8376E+01  0.6933E+02
      7.430  0.6030E+01  0.6983E+02
      7.513  0.6930E+01  0.7041E+02
      7.596  0.8152E+01  0.7108E+02
      7.679  0.9431E+01  0.7187E+02
      7.762  0.9577E+01  0.7266E+02
      7.845  0.1043E+02  0.7353E+02
      7.928  0.1095E+02  0.7443E+02
      8.011  0.1014E+02  0.7527E+02
      8.093  0.1021E+02  0.7612E+02
      8.176  0.9549E+01  0.7691E+02
      8.259  0.1040E+02  0.7777E+02
      8.342  0.1077E+02  0.7867E+02
      8.425  0.1134E+02  0.7961E+02
      8.508  0.1301E+02  0.8069E+02
      8.591  0.1301E+02  0.8176E+02
      8.674  0.1361E+02  0.8289E+02
      8.757  0.8343E+01  0.8359E+02
      8.840  0.7756E+01  0.8423E+02
      8.923  0.8703E+01  0.8495E+02
      9.005  0.8660E+01  0.8567E+02
      9.088  0.9361E+01  0.8644E+02
      9.171  0.1176E+02  0.8742E+02
      9.254  0.1136E+02  0.8836E+02
      9.337  0.1284E+02  0.8943E+02
      9.420  0.1064E+02  0.9031E+02
      9.503  0.9793E+01  0.9112E+02
      9.586  0.9066E+01  0.9187E+02
      9.669  0.8560E+01  0.9258E+02
      9.752  0.8358E+01  0.9327E+02
      9.835  0.8788E+01  0.9400E+02
      9.918  0.4981E+01  0.9442E+02
     10.000  0.4288E+01  0.9477E+02
     10.083  0.4203E+01  0.9512E+02
     10.166  0.3492E+01  0.9541E+02
     10.249  0.2112E+01  0.9558E+02
     10.332  0.1124E+01  0.9568E+02
     10.415  0.8164E+00  0.9575E+02
     10.498  0.1679E+01  0.9588E+02
     10.581  0.8023E+00  0.9595E+02
     10.664  0.5549E+00  0.9600E+02
     10.747  0.3801E-01  0.9600E+02
     10.830  0.2885E-04  0.9600E+02
     10.913  0.1313E-09  0.9600E+02
     10.995  0.0000E+00  0.9600E+02
     11.078  0.0000E+00  0.9600E+02
     11.161  0.0000E+00  0.9600E+02
     11.244  0.0000E+00  0.9600E+02
     11.327  0.0000E+00  0.9600E+02
     11.410  0.0000E+00  0.9600E+02
     11.493  0.0000E+00  0.9600E+02
     11.576  0.0000E+00  0.9600E+02
     11.659  0.0000E+00  0.9600E+02
     11.742  0.0000E+00  0.9600E+02
