I                                       
           1
     8.577010    0.000000    0.000000
     0.000000    4.554220    0.000000
     0.000000    0.000000   10.183810
   I 
     8
Direct configuration=     1
   0.00000000  0.36410000  0.87857000
   0.00000000  0.13590000  0.37857000
   0.00000000  0.86410000  0.62143000
   0.00000000  0.63590000  0.12143000
   0.50000000  0.86410000  0.87857000
   0.50000000  0.63590000  0.37857000
   0.50000000  0.36410000  0.62143000
   0.50000000  0.13590000  0.12143000
