 DBCSR| CPU Multiplication driver                                           BLAS (U)
 DBCSR| Multrec recursion limit                                              512 (U)
 DBCSR| Multiplication stack size                                           1000 (D)
 DBCSR| Maximum elements for images                                    UNLIMITED (U)
 DBCSR| Multiplicative factor virtual images                                   1 (U)
 DBCSR| Use multiplication densification                                       T (D)
 DBCSR| Multiplication size stacks                                             3 (U)
 DBCSR| Use memory pool for CPU allocation                                     F (U)
 DBCSR| Number of 3D layers                                               SINGLE (U)
 DBCSR| Use MPI memory allocation                                              F (U)
 DBCSR| Use RMA algorithm                                                      F (U)
 DBCSR| Use Communication thread                                               T (U)
 DBCSR| Communication thread load                                             45 (D)
 DBCSR| MPI: My process id                                                     0
 DBCSR| MPI: Number of processes                                              16
 DBCSR| OMP: Current number of threads                                        12
 DBCSR| OMP: Max number of threads                                            12
 DBCSR| Split modifier for TAS multiplication algorithm                  1.0E+00 (U)


  **** **** ******  **  PROGRAM STARTED AT               2025-08-05 23:29:58.034
 ***** ** ***  *** **   PROGRAM STARTED ON                          i04r01c01s03
 **    ****   ******    PROGRAM STARTED BY                               di38fab
 ***** **    ** ** **   PROGRAM PROCESS ID                                968076
  **** **  *******  **  PROGRAM STARTED IN /hppfs/scratch/04/di38fab/09_GTH/Delt
                                           a_Set/Ba/aug-TZVP-MOLOPT-GTH-tier-1/8
                                           x8x8

 CP2K| version string:                 CP2K version 2025.1 (Development Version)
 CP2K| source code revision number:                                  git:3130539
 CP2K| cp2kflags: omp libint fftw3 libxc parallel scalapack max_contr=4         
 CP2K| is freely available from                            https://www.cp2k.org/
 CP2K| Program compiled at                         Tue Jun  3 16:14:32 CEST 2025
 CP2K| Program compiled on                                               login01
 CP2K| Program compiled for                                        Supermuc-foss
 CP2K| Data directory path                  /hppfs/work/pn36zo/di38fab/cp2k/data
 CP2K| Input file name                                                    GW.inp

 GLOBAL| Force Environment number                                              1
 GLOBAL| Basis set file name            /hppfs/scratch/04/di38fab/09_GTH/BASIS_A
 GLOBAL| Potential file name            /hppfs/work/pn36zo/di38fab/cp2k/data/GTH
 GLOBAL| MM Potential file name                                     MM_POTENTIAL
 GLOBAL| Coordinate file name                                             Ba.cif
 GLOBAL| Method name                                                        CP2K
 GLOBAL| Project name                                                       WSe2
 GLOBAL| Run type                                                         ENERGY
 GLOBAL| FFT library                                                       FFTW3
 GLOBAL| Diagonalization library                                       ScaLAPACK
 GLOBAL| Cholesky decomposition library                                ScaLAPACK
 GLOBAL| DGEMM library                                                      BLAS
 GLOBAL| Orthonormality check for eigenvectors                          DISABLED
 GLOBAL| Matrix multiplication library                                 ScaLAPACK
 GLOBAL| All-to-all communication in single precision                          F
 GLOBAL| FFTs using library dependent lengths                                  F
 GLOBAL| Grid backend                                                       AUTO
 GLOBAL| Global print level                                               MEDIUM
 GLOBAL| MPI I/O enabled                                                       T
 GLOBAL| Total number of message passing processes                            16
 GLOBAL| Number of threads for this process                                   12
 GLOBAL| This output is from process                                           0
 GLOBAL| OpenMP stack size per thread (OMP_STACKSIZE)                    default
 GLOBAL| CPU model name             Intel(R) Xeon(R) Platinum 8174 CPU @ 3.10GHz

 MEMORY| system memory details [Kb]
 MEMORY|                        rank 0           min           max       average
 MEMORY| MemTotal             98436708      98436664      98436708      98436686
 MEMORY| MemFree              84602224      84209748      84604084      84449724
 MEMORY| Buffers                     0             0             0             0
 MEMORY| Cached                2368900       2368900       2455296       2398678
 MEMORY| Slab                  1279644       1278872       1304444       1288902
 MEMORY| SReclaimable           281356        281356        288496        285513
 MEMORY| MemLikelyFree        87252480      86953540      87274180      87133915


 *** Fundamental physical constants (SI units) ***

 *** Literature: B. J. Mohr and B. N. Taylor,
 ***             CODATA recommended values of the fundamental physical
 ***             constants: 2006, Web Version 5.1
 ***             http://physics.nist.gov/constants

 Speed of light in vacuum [m/s]                             2.99792458000000E+08
 Magnetic constant or permeability of vacuum [N/A**2]       1.25663706143592E-06
 Electric constant or permittivity of vacuum [F/m]          8.85418781762039E-12
 Planck constant (h) [J*s]                                  6.62606896000000E-34
 Planck constant (h-bar) [J*s]                              1.05457162825177E-34
 Elementary charge [C]                                      1.60217648700000E-19
 Electron mass [kg]                                         9.10938215000000E-31
 Electron g factor [ ]                                     -2.00231930436220E+00
 Proton mass [kg]                                           1.67262163700000E-27
 Fine-structure constant                                    7.29735253760000E-03
 Rydberg constant [1/m]                                     1.09737315685270E+07
 Avogadro constant [1/mol]                                  6.02214179000000E+23
 Boltzmann constant [J/K]                                   1.38065040000000E-23
 Atomic mass unit [kg]                                      1.66053878200000E-27
 Bohr radius [m]                                            5.29177208590000E-11

 *** Conversion factors ***

 [u] -> [a.u.]                                              1.82288848426455E+03
 [Angstrom] -> [Bohr] = [a.u.]                              1.88972613288564E+00
 [a.u.] = [Bohr] -> [Angstrom]                              5.29177208590000E-01
 [a.u.] -> [s]                                              2.41888432650478E-17
 [a.u.] -> [fs]                                             2.41888432650478E-02
 [a.u.] -> [J]                                              4.35974393937059E-18
 [a.u.] -> [N]                                              8.23872205491840E-08
 [a.u.] -> [K]                                              3.15774647902944E+05
 [a.u.] -> [kJ/mol]                                         2.62549961709828E+03
 [a.u.] -> [kcal/mol]                                       6.27509468713739E+02
 [a.u.] -> [Pa]                                             2.94210107994716E+13
 [a.u.] -> [bar]                                            2.94210107994716E+08
 [a.u.] -> [atm]                                            2.90362800883016E+08
 [a.u.] -> [eV]                                             2.72113838565563E+01
 [a.u.] -> [Hz]                                             6.57968392072181E+15
 [a.u.] -> [1/cm] (wave numbers)                            2.19474631370540E+05
 [a.u./Bohr**2] -> [1/cm]                                   5.14048714338585E+03
 

 CELL_TOP| Volume [angstrom^3]:                                       127.105715
 CELL_TOP| Vector a [angstrom     5.028     0.000     0.000   |a| =     5.027920
 CELL_TOP| Vector b [angstrom     0.000     5.028     0.000   |b| =     5.027920
 CELL_TOP| Vector c [angstrom     0.000     0.000     5.028   |c| =     5.027920
 CELL_TOP| Angle (b,c), alpha [degree]:                                90.000000
 CELL_TOP| Angle (a,c), beta  [degree]:                                90.000000
 CELL_TOP| Angle (a,b), gamma [degree]:                                90.000000
 CELL_TOP| Numerically orthorhombic:                                         YES
 CELL_TOP| Periodicity                                                       XYZ

 CELL_CIF| Volume [angstrom^3]:                                       127.105715
 CELL_CIF| Vector a [angstrom     5.028     0.000     0.000   |a| =     5.027920
 CELL_CIF| Vector b [angstrom     0.000     5.028     0.000   |b| =     5.027920
 CELL_CIF| Vector c [angstrom     0.000     0.000     5.028   |c| =     5.027920
 CELL_CIF| Angle (b,c), alpha [degree]:                                90.000000
 CELL_CIF| Angle (a,c), beta  [degree]:                                90.000000
 CELL_CIF| Angle (a,b), gamma [degree]:                                90.000000
 CELL_CIF| Numerically orthorhombic:                                         YES
 CELL_CIF| Periodicity                                                       XYZ

 GENERATE|  Preliminary Number of Bonds generated:                             0
 GENERATE|  Achieved consistency in connectivity generation.

 CELL| Volume [angstrom^3]:                                           127.105715
 CELL| Vector a [angstrom]:       5.028     0.000     0.000   |a| =     5.027920
 CELL| Vector b [angstrom]:       0.000     5.028     0.000   |b| =     5.027920
 CELL| Vector c [angstrom]:       0.000     0.000     5.028   |c| =     5.027920
 CELL| Angle (b,c), alpha [degree]:                                    90.000000
 CELL| Angle (a,c), beta  [degree]:                                    90.000000
 CELL| Angle (a,b), gamma [degree]:                                    90.000000
 CELL| Numerically orthorhombic:                                             YES
 CELL| Periodicity                                                           XYZ

 CELL_REF| Volume [angstrom^3]:                                       127.105715
 CELL_REF| Vector a [angstrom     5.028     0.000     0.000   |a| =     5.027920
 CELL_REF| Vector b [angstrom     0.000     5.028     0.000   |b| =     5.027920
 CELL_REF| Vector c [angstrom     0.000     0.000     5.028   |c| =     5.027920
 CELL_REF| Angle (b,c), alpha [degree]:                                90.000000
 CELL_REF| Angle (a,c), beta  [degree]:                                90.000000
 CELL_REF| Angle (a,b), gamma [degree]:                                90.000000
 CELL_REF| Numerically orthorhombic:                                         YES
 CELL_REF| Periodicity                                                       XYZ

 *** WARNING in cryssym.F:180 :: Symmetry library SPGLIB not available ***


 *******************************************************************************
                                    Kpoints
 *******************************************************************************
 BRILLOUIN| K-point scheme                                        Monkhorst-Pack
 BRILLOUIN| K-Point grid                                             8    8    8
 BRILLOUIN| Accuracy in Symmetry determination                      0.100000E-05
 BRILLOUIN| K-Point point group symmetrization                               OFF
 BRILLOUIN| Wavefunction type                                            COMPLEX
 BRILLOUIN| List of Kpoints [2 Pi/Bohr]                                      256
 BRILLOUIN| Number           Weight            X              Y              Z
 BRILLOUIN|     1           0.00391       -0.43750       -0.43750       -0.43750
 BRILLOUIN|     2           0.00391       -0.43750       -0.43750       -0.31250
 BRILLOUIN|     3           0.00391       -0.43750       -0.43750       -0.18750
 BRILLOUIN|     4           0.00391       -0.43750       -0.43750       -0.06250
 BRILLOUIN|     5           0.00391       -0.43750       -0.43750        0.06250
 BRILLOUIN|     6           0.00391       -0.43750       -0.43750        0.18750
 BRILLOUIN|     7           0.00391       -0.43750       -0.43750        0.31250
 BRILLOUIN|     8           0.00391       -0.43750       -0.43750        0.43750
 BRILLOUIN|     9           0.00391       -0.43750       -0.31250       -0.43750
 BRILLOUIN|    10           0.00391       -0.43750       -0.31250       -0.31250
 BRILLOUIN|    11           0.00391       -0.43750       -0.31250       -0.18750
 BRILLOUIN|    12           0.00391       -0.43750       -0.31250       -0.06250
 BRILLOUIN|    13           0.00391       -0.43750       -0.31250        0.06250
 BRILLOUIN|    14           0.00391       -0.43750       -0.31250        0.18750
 BRILLOUIN|    15           0.00391       -0.43750       -0.31250        0.31250
 BRILLOUIN|    16           0.00391       -0.43750       -0.31250        0.43750
 BRILLOUIN|    17           0.00391       -0.43750       -0.18750       -0.43750
 BRILLOUIN|    18           0.00391       -0.43750       -0.18750       -0.31250
 BRILLOUIN|    19           0.00391       -0.43750       -0.18750       -0.18750
 BRILLOUIN|    20           0.00391       -0.43750       -0.18750       -0.06250
 BRILLOUIN|    21           0.00391       -0.43750       -0.18750        0.06250
 BRILLOUIN|    22           0.00391       -0.43750       -0.18750        0.18750
 BRILLOUIN|    23           0.00391       -0.43750       -0.18750        0.31250
 BRILLOUIN|    24           0.00391       -0.43750       -0.18750        0.43750
 BRILLOUIN|    25           0.00391       -0.43750       -0.06250       -0.43750
 BRILLOUIN|    26           0.00391       -0.43750       -0.06250       -0.31250
 BRILLOUIN|    27           0.00391       -0.43750       -0.06250       -0.18750
 BRILLOUIN|    28           0.00391       -0.43750       -0.06250       -0.06250
 BRILLOUIN|    29           0.00391       -0.43750       -0.06250        0.06250
 BRILLOUIN|    30           0.00391       -0.43750       -0.06250        0.18750
 BRILLOUIN|    31           0.00391       -0.43750       -0.06250        0.31250
 BRILLOUIN|    32           0.00391       -0.43750       -0.06250        0.43750
 BRILLOUIN|    33           0.00391       -0.43750        0.06250       -0.43750
 BRILLOUIN|    34           0.00391       -0.43750        0.06250       -0.31250
 BRILLOUIN|    35           0.00391       -0.43750        0.06250       -0.18750
 BRILLOUIN|    36           0.00391       -0.43750        0.06250       -0.06250
 BRILLOUIN|    37           0.00391       -0.43750        0.06250        0.06250
 BRILLOUIN|    38           0.00391       -0.43750        0.06250        0.18750
 BRILLOUIN|    39           0.00391       -0.43750        0.06250        0.31250
 BRILLOUIN|    40           0.00391       -0.43750        0.06250        0.43750
 BRILLOUIN|    41           0.00391       -0.43750        0.18750       -0.43750
 BRILLOUIN|    42           0.00391       -0.43750        0.18750       -0.31250
 BRILLOUIN|    43           0.00391       -0.43750        0.18750       -0.18750
 BRILLOUIN|    44           0.00391       -0.43750        0.18750       -0.06250
 BRILLOUIN|    45           0.00391       -0.43750        0.18750        0.06250
 BRILLOUIN|    46           0.00391       -0.43750        0.18750        0.18750
 BRILLOUIN|    47           0.00391       -0.43750        0.18750        0.31250
 BRILLOUIN|    48           0.00391       -0.43750        0.18750        0.43750
 BRILLOUIN|    49           0.00391       -0.43750        0.31250       -0.43750
 BRILLOUIN|    50           0.00391       -0.43750        0.31250       -0.31250
 BRILLOUIN|    51           0.00391       -0.43750        0.31250       -0.18750
 BRILLOUIN|    52           0.00391       -0.43750        0.31250       -0.06250
 BRILLOUIN|    53           0.00391       -0.43750        0.31250        0.06250
 BRILLOUIN|    54           0.00391       -0.43750        0.31250        0.18750
 BRILLOUIN|    55           0.00391       -0.43750        0.31250        0.31250
 BRILLOUIN|    56           0.00391       -0.43750        0.31250        0.43750
 BRILLOUIN|    57           0.00391       -0.43750        0.43750       -0.43750
 BRILLOUIN|    58           0.00391       -0.43750        0.43750       -0.31250
 BRILLOUIN|    59           0.00391       -0.43750        0.43750       -0.18750
 BRILLOUIN|    60           0.00391       -0.43750        0.43750       -0.06250
 BRILLOUIN|    61           0.00391       -0.43750        0.43750        0.06250
 BRILLOUIN|    62           0.00391       -0.43750        0.43750        0.18750
 BRILLOUIN|    63           0.00391       -0.43750        0.43750        0.31250
 BRILLOUIN|    64           0.00391       -0.43750        0.43750        0.43750
 BRILLOUIN|    65           0.00391       -0.31250       -0.43750       -0.43750
 BRILLOUIN|    66           0.00391       -0.31250       -0.43750       -0.31250
 BRILLOUIN|    67           0.00391       -0.31250       -0.43750       -0.18750
 BRILLOUIN|    68           0.00391       -0.31250       -0.43750       -0.06250
 BRILLOUIN|    69           0.00391       -0.31250       -0.43750        0.06250
 BRILLOUIN|    70           0.00391       -0.31250       -0.43750        0.18750
 BRILLOUIN|    71           0.00391       -0.31250       -0.43750        0.31250
 BRILLOUIN|    72           0.00391       -0.31250       -0.43750        0.43750
 BRILLOUIN|    73           0.00391       -0.31250       -0.31250       -0.43750
 BRILLOUIN|    74           0.00391       -0.31250       -0.31250       -0.31250
 BRILLOUIN|    75           0.00391       -0.31250       -0.31250       -0.18750
 BRILLOUIN|    76           0.00391       -0.31250       -0.31250       -0.06250
 BRILLOUIN|    77           0.00391       -0.31250       -0.31250        0.06250
 BRILLOUIN|    78           0.00391       -0.31250       -0.31250        0.18750
 BRILLOUIN|    79           0.00391       -0.31250       -0.31250        0.31250
 BRILLOUIN|    80           0.00391       -0.31250       -0.31250        0.43750
 BRILLOUIN|    81           0.00391       -0.31250       -0.18750       -0.43750
 BRILLOUIN|    82           0.00391       -0.31250       -0.18750       -0.31250
 BRILLOUIN|    83           0.00391       -0.31250       -0.18750       -0.18750
 BRILLOUIN|    84           0.00391       -0.31250       -0.18750       -0.06250
 BRILLOUIN|    85           0.00391       -0.31250       -0.18750        0.06250
 BRILLOUIN|    86           0.00391       -0.31250       -0.18750        0.18750
 BRILLOUIN|    87           0.00391       -0.31250       -0.18750        0.31250
 BRILLOUIN|    88           0.00391       -0.31250       -0.18750        0.43750
 BRILLOUIN|    89           0.00391       -0.31250       -0.06250       -0.43750
 BRILLOUIN|    90           0.00391       -0.31250       -0.06250       -0.31250
 BRILLOUIN|    91           0.00391       -0.31250       -0.06250       -0.18750
 BRILLOUIN|    92           0.00391       -0.31250       -0.06250       -0.06250
 BRILLOUIN|    93           0.00391       -0.31250       -0.06250        0.06250
 BRILLOUIN|    94           0.00391       -0.31250       -0.06250        0.18750
 BRILLOUIN|    95           0.00391       -0.31250       -0.06250        0.31250
 BRILLOUIN|    96           0.00391       -0.31250       -0.06250        0.43750
 BRILLOUIN|    97           0.00391       -0.31250        0.06250       -0.43750
 BRILLOUIN|    98           0.00391       -0.31250        0.06250       -0.31250
 BRILLOUIN|    99           0.00391       -0.31250        0.06250       -0.18750
 BRILLOUIN|   100           0.00391       -0.31250        0.06250       -0.06250
 BRILLOUIN|   101           0.00391       -0.31250        0.06250        0.06250
 BRILLOUIN|   102           0.00391       -0.31250        0.06250        0.18750
 BRILLOUIN|   103           0.00391       -0.31250        0.06250        0.31250
 BRILLOUIN|   104           0.00391       -0.31250        0.06250        0.43750
 BRILLOUIN|   105           0.00391       -0.31250        0.18750       -0.43750
 BRILLOUIN|   106           0.00391       -0.31250        0.18750       -0.31250
 BRILLOUIN|   107           0.00391       -0.31250        0.18750       -0.18750
 BRILLOUIN|   108           0.00391       -0.31250        0.18750       -0.06250
 BRILLOUIN|   109           0.00391       -0.31250        0.18750        0.06250
 BRILLOUIN|   110           0.00391       -0.31250        0.18750        0.18750
 BRILLOUIN|   111           0.00391       -0.31250        0.18750        0.31250
 BRILLOUIN|   112           0.00391       -0.31250        0.18750        0.43750
 BRILLOUIN|   113           0.00391       -0.31250        0.31250       -0.43750
 BRILLOUIN|   114           0.00391       -0.31250        0.31250       -0.31250
 BRILLOUIN|   115           0.00391       -0.31250        0.31250       -0.18750
 BRILLOUIN|   116           0.00391       -0.31250        0.31250       -0.06250
 BRILLOUIN|   117           0.00391       -0.31250        0.31250        0.06250
 BRILLOUIN|   118           0.00391       -0.31250        0.31250        0.18750
 BRILLOUIN|   119           0.00391       -0.31250        0.31250        0.31250
 BRILLOUIN|   120           0.00391       -0.31250        0.31250        0.43750
 BRILLOUIN|   121           0.00391       -0.31250        0.43750       -0.43750
 BRILLOUIN|   122           0.00391       -0.31250        0.43750       -0.31250
 BRILLOUIN|   123           0.00391       -0.31250        0.43750       -0.18750
 BRILLOUIN|   124           0.00391       -0.31250        0.43750       -0.06250
 BRILLOUIN|   125           0.00391       -0.31250        0.43750        0.06250
 BRILLOUIN|   126           0.00391       -0.31250        0.43750        0.18750
 BRILLOUIN|   127           0.00391       -0.31250        0.43750        0.31250
 BRILLOUIN|   128           0.00391       -0.31250        0.43750        0.43750
 BRILLOUIN|   129           0.00391       -0.18750       -0.43750       -0.43750
 BRILLOUIN|   130           0.00391       -0.18750       -0.43750       -0.31250
 BRILLOUIN|   131           0.00391       -0.18750       -0.43750       -0.18750
 BRILLOUIN|   132           0.00391       -0.18750       -0.43750       -0.06250
 BRILLOUIN|   133           0.00391       -0.18750       -0.43750        0.06250
 BRILLOUIN|   134           0.00391       -0.18750       -0.43750        0.18750
 BRILLOUIN|   135           0.00391       -0.18750       -0.43750        0.31250
 BRILLOUIN|   136           0.00391       -0.18750       -0.43750        0.43750
 BRILLOUIN|   137           0.00391       -0.18750       -0.31250       -0.43750
 BRILLOUIN|   138           0.00391       -0.18750       -0.31250       -0.31250
 BRILLOUIN|   139           0.00391       -0.18750       -0.31250       -0.18750
 BRILLOUIN|   140           0.00391       -0.18750       -0.31250       -0.06250
 BRILLOUIN|   141           0.00391       -0.18750       -0.31250        0.06250
 BRILLOUIN|   142           0.00391       -0.18750       -0.31250        0.18750
 BRILLOUIN|   143           0.00391       -0.18750       -0.31250        0.31250
 BRILLOUIN|   144           0.00391       -0.18750       -0.31250        0.43750
 BRILLOUIN|   145           0.00391       -0.18750       -0.18750       -0.43750
 BRILLOUIN|   146           0.00391       -0.18750       -0.18750       -0.31250
 BRILLOUIN|   147           0.00391       -0.18750       -0.18750       -0.18750
 BRILLOUIN|   148           0.00391       -0.18750       -0.18750       -0.06250
 BRILLOUIN|   149           0.00391       -0.18750       -0.18750        0.06250
 BRILLOUIN|   150           0.00391       -0.18750       -0.18750        0.18750
 BRILLOUIN|   151           0.00391       -0.18750       -0.18750        0.31250
 BRILLOUIN|   152           0.00391       -0.18750       -0.18750        0.43750
 BRILLOUIN|   153           0.00391       -0.18750       -0.06250       -0.43750
 BRILLOUIN|   154           0.00391       -0.18750       -0.06250       -0.31250
 BRILLOUIN|   155           0.00391       -0.18750       -0.06250       -0.18750
 BRILLOUIN|   156           0.00391       -0.18750       -0.06250       -0.06250
 BRILLOUIN|   157           0.00391       -0.18750       -0.06250        0.06250
 BRILLOUIN|   158           0.00391       -0.18750       -0.06250        0.18750
 BRILLOUIN|   159           0.00391       -0.18750       -0.06250        0.31250
 BRILLOUIN|   160           0.00391       -0.18750       -0.06250        0.43750
 BRILLOUIN|   161           0.00391       -0.18750        0.06250       -0.43750
 BRILLOUIN|   162           0.00391       -0.18750        0.06250       -0.31250
 BRILLOUIN|   163           0.00391       -0.18750        0.06250       -0.18750
 BRILLOUIN|   164           0.00391       -0.18750        0.06250       -0.06250
 BRILLOUIN|   165           0.00391       -0.18750        0.06250        0.06250
 BRILLOUIN|   166           0.00391       -0.18750        0.06250        0.18750
 BRILLOUIN|   167           0.00391       -0.18750        0.06250        0.31250
 BRILLOUIN|   168           0.00391       -0.18750        0.06250        0.43750
 BRILLOUIN|   169           0.00391       -0.18750        0.18750       -0.43750
 BRILLOUIN|   170           0.00391       -0.18750        0.18750       -0.31250
 BRILLOUIN|   171           0.00391       -0.18750        0.18750       -0.18750
 BRILLOUIN|   172           0.00391       -0.18750        0.18750       -0.06250
 BRILLOUIN|   173           0.00391       -0.18750        0.18750        0.06250
 BRILLOUIN|   174           0.00391       -0.18750        0.18750        0.18750
 BRILLOUIN|   175           0.00391       -0.18750        0.18750        0.31250
 BRILLOUIN|   176           0.00391       -0.18750        0.18750        0.43750
 BRILLOUIN|   177           0.00391       -0.18750        0.31250       -0.43750
 BRILLOUIN|   178           0.00391       -0.18750        0.31250       -0.31250
 BRILLOUIN|   179           0.00391       -0.18750        0.31250       -0.18750
 BRILLOUIN|   180           0.00391       -0.18750        0.31250       -0.06250
 BRILLOUIN|   181           0.00391       -0.18750        0.31250        0.06250
 BRILLOUIN|   182           0.00391       -0.18750        0.31250        0.18750
 BRILLOUIN|   183           0.00391       -0.18750        0.31250        0.31250
 BRILLOUIN|   184           0.00391       -0.18750        0.31250        0.43750
 BRILLOUIN|   185           0.00391       -0.18750        0.43750       -0.43750
 BRILLOUIN|   186           0.00391       -0.18750        0.43750       -0.31250
 BRILLOUIN|   187           0.00391       -0.18750        0.43750       -0.18750
 BRILLOUIN|   188           0.00391       -0.18750        0.43750       -0.06250
 BRILLOUIN|   189           0.00391       -0.18750        0.43750        0.06250
 BRILLOUIN|   190           0.00391       -0.18750        0.43750        0.18750
 BRILLOUIN|   191           0.00391       -0.18750        0.43750        0.31250
 BRILLOUIN|   192           0.00391       -0.18750        0.43750        0.43750
 BRILLOUIN|   193           0.00391       -0.06250       -0.43750       -0.43750
 BRILLOUIN|   194           0.00391       -0.06250       -0.43750       -0.31250
 BRILLOUIN|   195           0.00391       -0.06250       -0.43750       -0.18750
 BRILLOUIN|   196           0.00391       -0.06250       -0.43750       -0.06250
 BRILLOUIN|   197           0.00391       -0.06250       -0.43750        0.06250
 BRILLOUIN|   198           0.00391       -0.06250       -0.43750        0.18750
 BRILLOUIN|   199           0.00391       -0.06250       -0.43750        0.31250
 BRILLOUIN|   200           0.00391       -0.06250       -0.43750        0.43750
 BRILLOUIN|   201           0.00391       -0.06250       -0.31250       -0.43750
 BRILLOUIN|   202           0.00391       -0.06250       -0.31250       -0.31250
 BRILLOUIN|   203           0.00391       -0.06250       -0.31250       -0.18750
 BRILLOUIN|   204           0.00391       -0.06250       -0.31250       -0.06250
 BRILLOUIN|   205           0.00391       -0.06250       -0.31250        0.06250
 BRILLOUIN|   206           0.00391       -0.06250       -0.31250        0.18750
 BRILLOUIN|   207           0.00391       -0.06250       -0.31250        0.31250
 BRILLOUIN|   208           0.00391       -0.06250       -0.31250        0.43750
 BRILLOUIN|   209           0.00391       -0.06250       -0.18750       -0.43750
 BRILLOUIN|   210           0.00391       -0.06250       -0.18750       -0.31250
 BRILLOUIN|   211           0.00391       -0.06250       -0.18750       -0.18750
 BRILLOUIN|   212           0.00391       -0.06250       -0.18750       -0.06250
 BRILLOUIN|   213           0.00391       -0.06250       -0.18750        0.06250
 BRILLOUIN|   214           0.00391       -0.06250       -0.18750        0.18750
 BRILLOUIN|   215           0.00391       -0.06250       -0.18750        0.31250
 BRILLOUIN|   216           0.00391       -0.06250       -0.18750        0.43750
 BRILLOUIN|   217           0.00391       -0.06250       -0.06250       -0.43750
 BRILLOUIN|   218           0.00391       -0.06250       -0.06250       -0.31250
 BRILLOUIN|   219           0.00391       -0.06250       -0.06250       -0.18750
 BRILLOUIN|   220           0.00391       -0.06250       -0.06250       -0.06250
 BRILLOUIN|   221           0.00391       -0.06250       -0.06250        0.06250
 BRILLOUIN|   222           0.00391       -0.06250       -0.06250        0.18750
 BRILLOUIN|   223           0.00391       -0.06250       -0.06250        0.31250
 BRILLOUIN|   224           0.00391       -0.06250       -0.06250        0.43750
 BRILLOUIN|   225           0.00391       -0.06250        0.06250       -0.43750
 BRILLOUIN|   226           0.00391       -0.06250        0.06250       -0.31250
 BRILLOUIN|   227           0.00391       -0.06250        0.06250       -0.18750
 BRILLOUIN|   228           0.00391       -0.06250        0.06250       -0.06250
 BRILLOUIN|   229           0.00391       -0.06250        0.06250        0.06250
 BRILLOUIN|   230           0.00391       -0.06250        0.06250        0.18750
 BRILLOUIN|   231           0.00391       -0.06250        0.06250        0.31250
 BRILLOUIN|   232           0.00391       -0.06250        0.06250        0.43750
 BRILLOUIN|   233           0.00391       -0.06250        0.18750       -0.43750
 BRILLOUIN|   234           0.00391       -0.06250        0.18750       -0.31250
 BRILLOUIN|   235           0.00391       -0.06250        0.18750       -0.18750
 BRILLOUIN|   236           0.00391       -0.06250        0.18750       -0.06250
 BRILLOUIN|   237           0.00391       -0.06250        0.18750        0.06250
 BRILLOUIN|   238           0.00391       -0.06250        0.18750        0.18750
 BRILLOUIN|   239           0.00391       -0.06250        0.18750        0.31250
 BRILLOUIN|   240           0.00391       -0.06250        0.18750        0.43750
 BRILLOUIN|   241           0.00391       -0.06250        0.31250       -0.43750
 BRILLOUIN|   242           0.00391       -0.06250        0.31250       -0.31250
 BRILLOUIN|   243           0.00391       -0.06250        0.31250       -0.18750
 BRILLOUIN|   244           0.00391       -0.06250        0.31250       -0.06250
 BRILLOUIN|   245           0.00391       -0.06250        0.31250        0.06250
 BRILLOUIN|   246           0.00391       -0.06250        0.31250        0.18750
 BRILLOUIN|   247           0.00391       -0.06250        0.31250        0.31250
 BRILLOUIN|   248           0.00391       -0.06250        0.31250        0.43750
 BRILLOUIN|   249           0.00391       -0.06250        0.43750       -0.43750
 BRILLOUIN|   250           0.00391       -0.06250        0.43750       -0.31250
 BRILLOUIN|   251           0.00391       -0.06250        0.43750       -0.18750
 BRILLOUIN|   252           0.00391       -0.06250        0.43750       -0.06250
 BRILLOUIN|   253           0.00391       -0.06250        0.43750        0.06250
 BRILLOUIN|   254           0.00391       -0.06250        0.43750        0.18750
 BRILLOUIN|   255           0.00391       -0.06250        0.43750        0.31250
 BRILLOUIN|   256           0.00391       -0.06250        0.43750        0.43750
 *******************************************************************************

 *******************************************************************************
 *******************************************************************************
 **                                                                           **
 **     #####                         ##              ##                      **
 **    ##   ##            ##          ##              ##                      **
 **   ##     ##                       ##            ######                    **
 **   ##     ##  ##   ##  ##   #####  ##  ##   ####   ##    #####    #####    **
 **   ##     ##  ##   ##  ##  ##      ## ##   ##      ##   ##   ##  ##   ##   **
 **   ##  ## ##  ##   ##  ##  ##      ####     ###    ##   ######   ######    **
 **    ##  ###   ##   ##  ##  ##      ## ##      ##   ##   ##       ##        **
 **     #######   #####   ##   #####  ##  ##  ####    ##    #####   ##        **
 **           ##                                                    ##        **
 **                                                                           **
 **                                                ... make the atoms dance   **
 **                                                                           **
 **            Copyright (C) by CP2K developers group (2000-2025)             **
 **                      J. Chem. Phys. 152, 194103 (2020)                    **
 **                                                                           **
 *******************************************************************************

 DFT| Spin restricted Kohn-Sham (RKS) calculation                            RKS
 DFT| Multiplicity                                                             1
 DFT| Number of spin states                                                    1
 DFT| Charge                                                                   0
 DFT| Self-interaction correction (SIC)                                       NO
 DFT| Cutoffs: density                                              1.000000E-10
 DFT|          gradient                                             1.000000E-10
 DFT|          tau                                                  1.000000E-10
 DFT|          cutoff_smoothing_range                               0.000000E+00
 DFT| XC density smoothing                                                  NONE
 DFT| XC derivatives                                                          PW

 FUNCTIONAL| PBE:
 FUNCTIONAL| J.P.Perdew, K.Burke, M.Ernzerhof, Phys. Rev. Letter, vol. 77, n 18,
 FUNCTIONAL|  pp. 3865-3868, (1996) {spin unpolarized}                          


 QS| Method:                                                                 GPW
 QS| Density plane wave grid type                        NON-SPHERICAL FULLSPACE
 QS| Number of grid levels:                                                    4
 QS| Density cutoff [a.u.]:                                                500.0
 QS| Multi grid cutoff [a.u.]: 1) grid level                               500.0
 QS|                           2) grid level                               166.7
 QS|                           3) grid level                                55.6
 QS|                           4) grid level                                18.5
 QS| Grid level progression factor:                                          3.0
 QS| Relative density cutoff [a.u.]:                                        50.0
 QS| Interaction thresholds: eps_pgf_orb:                                1.0E-16
 QS|                         eps_filter_matrix:                          0.0E+00
 QS|                         eps_core_charge:                            1.0E-18
 QS|                         eps_rho_gspace:                             1.0E-16
 QS|                         eps_rho_rspace:                             1.0E-16
 QS|                         eps_gvg_rspace:                             1.0E-08
 QS|                         eps_ppl:                                    1.0E-02
 QS|                         eps_ppnl:                                   1.0E-10


 ATOMIC KIND INFORMATION

  1. Atomic kind: Ba                                    Number of atoms:       2

     Orbital Basis Set                                aug-TZVP-MOLOPT-GTH-tier-1

       Number of orbital shell sets:                                           1
       Number of orbital shells:                                              12
       Number of primitive Cartesian functions:                                6
       Number of Cartesian basis functions:                                   35
       Number of spherical basis functions:                                   32
       Norm type:                                                              2

       Normalised Cartesian orbitals:

                        Set   Shell   Orbital            Exponent    Coefficient

                          1       1    2s                0.038382       0.000777
                                                         0.061651       0.000000
                                                         0.099027      -0.005889
                                                         0.270998       0.010478
                                                         0.876746       0.891592
                                                         0.919668      -1.600270

                          1       2    3s                0.038382       0.042136
                                                         0.061651       0.000000
                                                         0.099027       0.057088
                                                         0.270998      -0.033401
                                                         0.876746       0.010709
                                                         0.919668      -0.047159

                          1       3    4s                0.038382      -0.098434
                                                         0.061651       0.000000
                                                         0.099027       0.289975
                                                         0.270998      -0.120185
                                                         0.876746      -0.341981
                                                         0.919668      -0.197704

                          1       4    5s                0.038382       0.035421
                                                         0.061651       0.000000
                                                         0.099027       0.001658
                                                         0.270998       0.031624
                                                         0.876746      -0.790740
                                                         0.919668       0.124361

                          1       5    6s                0.038382      -0.086660
                                                         0.061651       0.045754
                                                         0.099027      -0.023869
                                                         0.270998       0.031233
                                                         0.876746       0.062266
                                                         0.919668       0.094703

                          1       6    3px               0.038382       0.001862
                                                         0.061651       0.000000
                                                         0.099027      -0.000731
                                                         0.270998      -0.043483
                                                         0.876746      -0.604321
                                                         0.919668      -0.508938
                          1       6    3py               0.038382       0.001862
                                                         0.061651       0.000000
                                                         0.099027      -0.000731
                                                         0.270998      -0.043483
                                                         0.876746      -0.604321
                                                         0.919668      -0.508938
                          1       6    3pz               0.038382       0.001862
                                                         0.061651       0.000000
                                                         0.099027      -0.000731
                                                         0.270998      -0.043483
                                                         0.876746      -0.604321
                                                         0.919668      -0.508938

                          1       7    4px               0.038382       0.019464
                                                         0.061651       0.000000
                                                         0.099027       0.018137
                                                         0.270998       0.002760
                                                         0.876746      -0.209038
                                                         0.919668       0.276181
                          1       7    4py               0.038382       0.019464
                                                         0.061651       0.000000
                                                         0.099027       0.018137
                                                         0.270998       0.002760
                                                         0.876746      -0.209038
                                                         0.919668       0.276181
                          1       7    4pz               0.038382       0.019464
                                                         0.061651       0.000000
                                                         0.099027       0.018137
                                                         0.270998       0.002760
                                                         0.876746      -0.209038
                                                         0.919668       0.276181

                          1       8    5px               0.038382       0.029977
                                                         0.061651       0.000000
                                                         0.099027      -0.132680
                                                         0.270998       0.042906
                                                         0.876746       1.816563
                                                         0.919668      -2.098919
                          1       8    5py               0.038382       0.029977
                                                         0.061651       0.000000
                                                         0.099027      -0.132680
                                                         0.270998       0.042906
                                                         0.876746       1.816563
                                                         0.919668      -2.098919
                          1       8    5pz               0.038382       0.029977
                                                         0.061651       0.000000
                                                         0.099027      -0.132680
                                                         0.270998       0.042906
                                                         0.876746       1.816563
                                                         0.919668      -2.098919

                          1       9    6px               0.038382       0.006243
                                                         0.061651       0.003518
                                                         0.099027       0.047763
                                                         0.270998       0.018429
                                                         0.876746       0.104638
                                                         0.919668       0.110806
                          1       9    6py               0.038382       0.006243
                                                         0.061651       0.003518
                                                         0.099027       0.047763
                                                         0.270998       0.018429
                                                         0.876746       0.104638
                                                         0.919668       0.110806
                          1       9    6pz               0.038382       0.006243
                                                         0.061651       0.003518
                                                         0.099027       0.047763
                                                         0.270998       0.018429
                                                         0.876746       0.104638
                                                         0.919668       0.110806

                          1      10    4dx2              0.038382       0.002311
                                                         0.061651       0.000000
                                                         0.099027       0.015986
                                                         0.270998       0.036053
                                                         0.876746      -0.724099
                                                         0.919668       0.327435
                          1      10    4dxy              0.038382       0.004003
                                                         0.061651       0.000000
                                                         0.099027       0.027689
                                                         0.270998       0.062446
                                                         0.876746      -1.254176
                                                         0.919668       0.567134
                          1      10    4dxz              0.038382       0.004003
                                                         0.061651       0.000000
                                                         0.099027       0.027689
                                                         0.270998       0.062446
                                                         0.876746      -1.254176
                                                         0.919668       0.567134
                          1      10    4dy2              0.038382       0.002311
                                                         0.061651       0.000000
                                                         0.099027       0.015986
                                                         0.270998       0.036053
                                                         0.876746      -0.724099
                                                         0.919668       0.327435
                          1      10    4dyz              0.038382       0.004003
                                                         0.061651       0.000000
                                                         0.099027       0.027689
                                                         0.270998       0.062446
                                                         0.876746      -1.254176
                                                         0.919668       0.567134
                          1      10    4dz2              0.038382       0.002311
                                                         0.061651       0.000000
                                                         0.099027       0.015986
                                                         0.270998       0.036053
                                                         0.876746      -0.724099
                                                         0.919668       0.327435

                          1      11    5dx2              0.038382       0.000356
                                                         0.061651       0.000000
                                                         0.099027       0.004758
                                                         0.270998       0.039157
                                                         0.876746       0.252469
                                                         0.919668       0.825385
                          1      11    5dxy              0.038382       0.000617
                                                         0.061651       0.000000
                                                         0.099027       0.008242
                                                         0.270998       0.067822
                                                         0.876746       0.437289
                                                         0.919668       1.429609
                          1      11    5dxz              0.038382       0.000617
                                                         0.061651       0.000000
                                                         0.099027       0.008242
                                                         0.270998       0.067822
                                                         0.876746       0.437289
                                                         0.919668       1.429609
                          1      11    5dy2              0.038382       0.000356
                                                         0.061651       0.000000
                                                         0.099027       0.004758
                                                         0.270998       0.039157
                                                         0.876746       0.252469
                                                         0.919668       0.825385
                          1      11    5dyz              0.038382       0.000617
                                                         0.061651       0.000000
                                                         0.099027       0.008242
                                                         0.270998       0.067822
                                                         0.876746       0.437289
                                                         0.919668       1.429609
                          1      11    5dz2              0.038382       0.000356
                                                         0.061651       0.000000
                                                         0.099027       0.004758
                                                         0.270998       0.039157
                                                         0.876746       0.252469
                                                         0.919668       0.825385

                          1      12    6dx2              0.038382       0.002267
                                                         0.061651       0.000868
                                                         0.099027       0.006094
                                                         0.270998       0.039574
                                                         0.876746       0.265064
                                                         0.919668       0.384340
                          1      12    6dxy              0.038382       0.003926
                                                         0.061651       0.001504
                                                         0.099027       0.010554
                                                         0.270998       0.068545
                                                         0.876746       0.459104
                                                         0.919668       0.665697
                          1      12    6dxz              0.038382       0.003926
                                                         0.061651       0.001504
                                                         0.099027       0.010554
                                                         0.270998       0.068545
                                                         0.876746       0.459104
                                                         0.919668       0.665697
                          1      12    6dy2              0.038382       0.002267
                                                         0.061651       0.000868
                                                         0.099027       0.006094
                                                         0.270998       0.039574
                                                         0.876746       0.265064
                                                         0.919668       0.384340
                          1      12    6dyz              0.038382       0.003926
                                                         0.061651       0.001504
                                                         0.099027       0.010554
                                                         0.270998       0.068545
                                                         0.876746       0.459104
                                                         0.919668       0.665697
                          1      12    6dz2              0.038382       0.002267
                                                         0.061651       0.000868
                                                         0.099027       0.006094
                                                         0.270998       0.039574
                                                         0.876746       0.265064
                                                         0.919668       0.384340

       Atomic covalent radius [Angstrom]:                                  1.980

       Atomic van der Waals radius [Angstrom]:                             2.680

     GTH Potential information for                                       GTH-PBE

       Description:                       Goedecker-Teter-Hutter pseudopotential
                                           Goedecker et al., PRB 54, 1703 (1996)
                                          Hartwigsen et al., PRB 58, 3641 (1998)
                                                      Krack, TCA 114, 145 (2005)

       Gaussian exponent of the core charge distribution:               1.714678
       Electronic configuration (s p d ...):                               4   6

       Parameters of the local part of the GTH pseudopotential:

                          rloc        C1          C2          C3          C4
                        0.540000   24.526781   -2.468670

       Parameters of the non-local part of the GTH (SOC) pseudopotential:

                   l      r(l)      h(i,j,l)
                                    k(i,j,l)
                   0    0.492068    0.095151    1.169318
                                    1.169318   -1.509584
                   1    0.391489    0.800183   -1.616839    0.000000
                                   -1.616839    1.913070    0.000000
                                    0.000000    0.000000    0.000000
                                    1.386777   -2.229262    0.551222
                                   -2.229262    3.555398   -1.304429
                                    0.551222   -1.304429    0.927065
                   2    0.672173    0.388531
                                    0.016633
                   3    0.300498  -19.653795
                                    0.006079


 MOLECULE KIND INFORMATION


 All atoms are their own molecule, skipping detailed information


 TOTAL NUMBERS AND MAXIMUM NUMBERS

  Total number of            - Atomic kinds:                                   1
                             - Atoms:                                          2
                             - Shell sets:                                     2
                             - Shells:                                        24
                             - Primitive Cartesian functions:                 12
                             - Cartesian basis functions:                     70
                             - Spherical basis functions:                     64

  Maximum angular momentum of- Orbital basis functions:                        2
                             - Local part of the GTH pseudopotential:          2
                             - Non-local part of the GTH pseudopotential:      5


 MODULE QUICKSTEP: ATOMIC COORDINATES IN ANGSTROM

   Atom Kind Element         X             Y             Z       Z(eff)     Mass
      1    1 Ba   56      0.000000      0.000000      0.000000  10.0000 137.3270
      2    1 Ba   56      2.513960      2.513960      2.513960  10.0000 137.3270



 SCF PARAMETERS         Density guess:                                    ATOMIC
                        --------------------------------------------------------
                        max_scf:                                             500
                        max_scf_history:                                       0
                        max_diis:                                              4
                        --------------------------------------------------------
                        eps_scf:                                        1.00E-09
                        eps_scf_history:                                0.00E+00
                        eps_diis:                                       1.00E-01
                        eps_eigval:                                     1.00E-05
                        --------------------------------------------------------
                        level_shift [a.u.]:                             0.000000
                        added MOs                                        54    0
                        --------------------------------------------------------
                        Mixing method:                            BROYDEN_MIXING
                                                charge density mixing in g-space
                        --------------------------------------------------------
                        Smear method:                                FERMI_DIRAC
                        Electronic temperature [K]:                        300.0
                        Electronic temperature [a.u.]:                  9.50E-04
                        Accuracy threshold:                             1.00E-10
                        --------------------------------------------------------
                        No outer SCF

 PW_GRID| Information for grid number                                          1
 PW_GRID| Grid distributed over                                    16 processors
 PW_GRID| Real space group dimensions                                    16    1
 PW_GRID| the grid is blocked:                                                NO
 PW_GRID| Cutoff [a.u.]                                                    500.0
 PW_GRID| spherical cutoff:                                                   NO
 PW_GRID|   Bounds   1            -48      47                Points:          96
 PW_GRID|   Bounds   2            -48      47                Points:          96
 PW_GRID|   Bounds   3            -48      47                Points:          96
 PW_GRID| Volume element (a.u.^3)  0.9695E-03     Volume (a.u.^3)       857.7519
 PW_GRID| Grid span                                                    FULLSPACE
 PW_GRID|   Distribution                         Average         Max         Min
 PW_GRID|   G-Vectors                            55296.0       55296       55296
 PW_GRID|   G-Rays                                 576.0         576         576
 PW_GRID|   Real Space Points                    55296.0       55296       55296

 PW_GRID| Information for grid number                                          2
 PW_GRID| Number of the reference grid                                         1
 PW_GRID| Grid distributed over                                    16 processors
 PW_GRID| Real space group dimensions                                    16    1
 PW_GRID| the grid is blocked:                                                NO
 PW_GRID| Cutoff [a.u.]                                                    166.7
 PW_GRID| spherical cutoff:                                                   NO
 PW_GRID|   Bounds   1            -30      29                Points:          60
 PW_GRID|   Bounds   2            -30      29                Points:          60
 PW_GRID|   Bounds   3            -30      29                Points:          60
 PW_GRID| Volume element (a.u.^3)  0.3971E-02     Volume (a.u.^3)       857.7519
 PW_GRID| Grid span                                                    FULLSPACE
 PW_GRID|   Distribution                         Average         Max         Min
 PW_GRID|   G-Vectors                            13500.0       13560       13440
 PW_GRID|   G-Rays                                 225.0         226         224
 PW_GRID|   Real Space Points                    13500.0       14400       10800

 PW_GRID| Information for grid number                                          3
 PW_GRID| Number of the reference grid                                         1
 PW_GRID| Grid distributed over                                    16 processors
 PW_GRID| Real space group dimensions                                    16    1
 PW_GRID| the grid is blocked:                                                NO
 PW_GRID| Cutoff [a.u.]                                                     55.6
 PW_GRID| spherical cutoff:                                                   NO
 PW_GRID|   Bounds   1            -16      15                Points:          32
 PW_GRID|   Bounds   2            -16      15                Points:          32
 PW_GRID|   Bounds   3            -16      15                Points:          32
 PW_GRID| Volume element (a.u.^3)  0.2618E-01     Volume (a.u.^3)       857.7519
 PW_GRID| Grid span                                                    FULLSPACE
 PW_GRID|   Distribution                         Average         Max         Min
 PW_GRID|   G-Vectors                             2048.0        2080        2016
 PW_GRID|   G-Rays                                  64.0          65          63
 PW_GRID|   Real Space Points                     2048.0        2048        2048

 PW_GRID| Information for grid number                                          4
 PW_GRID| Number of the reference grid                                         1
 PW_GRID| Grid distributed over                                    16 processors
 PW_GRID| Real space group dimensions                                    16    1
 PW_GRID| the grid is blocked:                                                NO
 PW_GRID| Cutoff [a.u.]                                                     18.5
 PW_GRID| spherical cutoff:                                                   NO
 PW_GRID|   Bounds   1            -10       9                Points:          20
 PW_GRID|   Bounds   2            -10       9                Points:          20
 PW_GRID|   Bounds   3            -10       9                Points:          20
 PW_GRID| Volume element (a.u.^3)  0.1072         Volume (a.u.^3)       857.7519
 PW_GRID| Grid span                                                    FULLSPACE
 PW_GRID|   Distribution                         Average         Max         Min
 PW_GRID|   G-Vectors                              500.0         520         480
 PW_GRID|   G-Rays                                  25.0          26          24
 PW_GRID|   Real Space Points                      500.0         800         400

 POISSON| Solver                                                        PERIODIC
 POISSON| Periodicity                                                        XYZ

 RS_GRID| Information for grid number                                          1
 RS_GRID|   Bounds   1            -48      47                Points:          96
 RS_GRID|   Bounds   2            -48      47                Points:          96
 RS_GRID|   Bounds   3            -48      47                Points:          96
 RS_GRID| Real space fully replicated
 RS_GRID| Group size                                                           1

 RS_GRID| Information for grid number                                          2
 RS_GRID|   Bounds   1            -30      29                Points:          60
 RS_GRID|   Bounds   2            -30      29                Points:          60
 RS_GRID|   Bounds   3            -30      29                Points:          60
 RS_GRID| Real space fully replicated
 RS_GRID| Group size                                                           1

 RS_GRID| Information for grid number                                          3
 RS_GRID|   Bounds   1            -16      15                Points:          32
 RS_GRID|   Bounds   2            -16      15                Points:          32
 RS_GRID|   Bounds   3            -16      15                Points:          32
 RS_GRID| Real space fully replicated
 RS_GRID| Group size                                                           1

 RS_GRID| Information for grid number                                          4
 RS_GRID|   Bounds   1            -10       9                Points:          20
 RS_GRID|   Bounds   2            -10       9                Points:          20
 RS_GRID|   Bounds   3            -10       9                Points:          20
 RS_GRID| Real space fully replicated
 RS_GRID| Group size                                                           1

 Number of electrons:                                                         20
 Number of occupied orbitals:                                                 10
 Number of molecular orbitals:                                                64

 Number of orbital functions:                                                 64
 Number of independent orbital functions:                                     64

 Extrapolation method: initial_guess

 Atomic guess: The first density matrix is obtained in terms of atomic orbitals
               and electronic configurations assigned to each atomic kind

 Guess for atomic kind: Ba

 Electronic structure
    Total number of core electrons                                         46.00
    Total number of valence electrons                                      10.00
    Total number of electrons                                              56.00
    Multiplicity                                                   not specified
    S   [  2.00  2.00  2.00  2.00] 2.00  2.00
    P   [  6.00  6.00  6.00] 6.00
    D   [ 10.00 10.00]


 *******************************************************************************
                  Iteration          Convergence                     Energy [au]
 *******************************************************************************
                          1        0.651580                     -24.695085985928
                          2        0.484728                     -24.844337427369
                          3        0.361884E-02                 -24.915941209418
                          4        0.340031E-03                 -24.915949585275
                          5        0.283859E-05                 -24.915949630266
                          6        0.284494E-06                 -24.915949630271

 Energy components [Hartree]           Total Energy ::          -24.915949630271
                                        Band Energy ::           -7.075997600106
                                     Kinetic Energy ::            6.305475266368
                                   Potential Energy ::          -31.221424896639
                                      Virial (-V/T) ::            4.951478449716
                                        Core Energy ::          -40.429608936526
                                          XC Energy ::           -3.356373009421
                                     Coulomb Energy ::           18.870032315675
                       Total Pseudopotential Energy ::          -46.835201501599
                       Local Pseudopotential Energy ::          -46.828082856932
                    Nonlocal Pseudopotential Energy ::           -0.007118644667
                                        Confinement ::            1.001172987049

 Orbital energies  State     L     Occupation   Energy[a.u.]          Energy[eV]

                       1     0          2.000      -1.161461          -31.604959
                       2     0          2.000      -0.115753           -3.149794

                       1     1          6.000      -0.753595          -20.506363


 Total Electron Density at R=0:                                         0.002689
 Re-scaling the density matrix to get the right number of electrons
                  # Electrons              Trace(P)               Scaling factor
                           20                20.000                        1.000


 SCF WAVEFUNCTION OPTIMIZATION

  Step     Update method      Time    Convergence         Total energy    Change
  ------------------------------------------------------------------------------
     1 NoMix/Diag. 0.10E+00    4.9    44.24258213       -51.0005240894 -5.10E+01
     2 Broy./Diag. 0.10E+00    5.0     0.11996275       -51.0012650502 -7.41E-04
     3 Broy./Diag. 0.10E+00    5.0     1.70368101       -50.8191483293  1.82E-01
     4 Broy./Diag. 0.10E+00    5.0     0.07236257       -50.8490139486 -2.99E-02
     5 Broy./Diag. 0.10E+00    5.0     0.65527240       -50.9042327091 -5.52E-02
     6 Broy./Diag. 0.10E+00    5.0     0.00297094       -50.9317440439 -2.75E-02
     7 Broy./Diag. 0.10E+00    5.0     0.04239203       -50.9430925306 -1.13E-02
     8 Broy./Diag. 0.10E+00    5.0     0.00148504       -50.9445366395 -1.44E-03
     9 Broy./Diag. 0.10E+00    5.0     0.00991941       -50.9426753625  1.86E-03
    10 Broy./Diag. 0.10E+00    5.0     0.00007119       -50.9422952734  3.80E-04
    11 Broy./Diag. 0.10E+00    5.0     0.00054235       -50.9422032101  9.21E-05
    12 Broy./Diag. 0.10E+00    5.0     0.00001779       -50.9421834917  1.97E-05
    13 Broy./Diag. 0.10E+00    5.0     0.00014536       -50.9421781265  5.37E-06
    14 Broy./Diag. 0.10E+00    5.0     0.00000262       -50.9421803085 -2.18E-06
    15 Broy./Diag. 0.10E+00    5.0     0.00004555       -50.9421843699 -4.06E-06
    16 Broy./Diag. 0.10E+00    5.0     0.00000433       -50.9421866875 -2.32E-06
    17 Broy./Diag. 0.10E+00    5.0     0.00001764       -50.9421874332 -7.46E-07
    18 Broy./Diag. 0.10E+00    5.0     0.00000044       -50.9421883079 -8.75E-07
    19 Broy./Diag. 0.10E+00    5.0     0.00000067       -50.9421881671  1.41E-07
    20 Broy./Diag. 0.10E+00    5.0     0.00000014       -50.9421882665 -9.94E-08
    21 Broy./Diag. 0.10E+00    5.0     0.00000036       -50.9421884575 -1.91E-07
    22 Broy./Diag. 0.10E+00    5.0     0.00000053       -50.9421885461 -8.86E-08
    23 Broy./Diag. 0.10E+00    5.0     0.00000018       -50.9421885379  8.22E-09
    24 Broy./Diag. 0.10E+00    5.0     0.00000027       -50.9421884701  6.78E-08
    25 Broy./Diag. 0.10E+00    5.0     0.00000009       -50.9421884388  3.13E-08
    26 Broy./Diag. 0.10E+00    5.0     0.00000003       -50.9421884335  5.33E-09
    27 Broy./Diag. 0.10E+00    5.0     0.00000004       -50.9421884346 -1.13E-09
    28 Broy./Diag. 0.10E+00    5.0     0.00000002       -50.9421884356 -9.07E-10
    29 Broy./Diag. 0.10E+00    5.0     0.00000008       -50.9421884421 -6.54E-09
    30 Broy./Diag. 0.10E+00    5.0     0.00000001       -50.9421884456 -3.56E-09
    31 Broy./Diag. 0.10E+00    5.0     0.00000002       -50.9421884429  2.78E-09
    32 Broy./Diag. 0.10E+00    5.0     5.2797E-09       -50.9421884440 -1.10E-09
    33 Broy./Diag. 0.10E+00    5.0     2.9007E-09       -50.9421884451 -1.09E-09
    34 Broy./Diag. 0.10E+00    5.0     4.2165E-09       -50.9421884470 -1.92E-09
    35 Broy./Diag. 0.10E+00    5.0     5.6177E-09       -50.9421884475 -5.21E-10
    36 Broy./Diag. 0.10E+00    5.0     5.1819E-09       -50.9421884473  2.04E-10
    37 Broy./Diag. 0.10E+00    5.0     2.0677E-09       -50.9421884471  2.20E-10
    38 Broy./Diag. 0.10E+00    5.0     9.5378E-10       -50.9421884469  1.42E-10

  *** SCF run converged in    38 steps ***


  Electronic density on regular grids:        -20.0000000000       -0.0000000000
  Core density on regular grids:               20.0000000000       -0.0000000000
  Total charge density on r-space grids:       -0.0000000000
  Total charge density g-space grids:          -0.0000000000

  Overlap energy of the core charge distribution:               0.00000000000000
  Self energy of the core charge distribution:               -104.47955250884375
  Core Hamiltonian energy:                                     20.15244330674990
  Hartree energy:                                              40.71066688443358
  Exchange-correlation energy:                                 -7.32558244557362
  Electronic entropic energy:                                  -0.00016368369340
  Fermi energy:                                                 0.17852476397180

  Total energy:                                               -50.94218844692730

 !-----------------------------------------------------------------------------!
                     Mulliken Population Analysis

 #  Atom  Element  Kind  Atomic population                           Net charge
       1     Ba       1         10.000000                             -0.000000
       2     Ba       1         10.000000                              0.000000
 # Total charge                             20.000000                 -0.000000

 !-----------------------------------------------------------------------------!

 !-----------------------------------------------------------------------------!
                           Hirshfeld Charges

  #Atom  Element  Kind  Ref Charge     Population                    Net charge
      1       Ba     1      10.000         10.000                        -0.000
      2       Ba     1      10.000         10.000                        -0.000

  Total Charge                                                           -0.000
 !-----------------------------------------------------------------------------!

 KPOINTS| Band Structure Calculation
 KPOINTS| Number of k-point sets                                               1
 KPOINTS| Number of added MOs/bands                                           -1
 KPOINTS| Number of k-points in set    1                                     148
 KPOINTS| In units of b-vector [2pi/Bohr]
 KPOINTS| Special point     1 not specifi     0.000000     0.000000     0.000000
 KPOINTS| Special point     2 not specifi     0.500000    -0.500000     0.500000
 KPOINTS| Special point     3 not specifi     0.000000     0.000000     0.500000
 KPOINTS| Special point     4 not specifi     0.000000     0.000000     0.000000
 KPOINTS| Time for k-point line                                            2.128

 ENERGY| Total FORCE_EVAL ( QS ) energy [hartree]            -50.942188446927297

 -------------------------------------------------------------------------------
 -                                                                             -
 -                                DBCSR STATISTICS                             -
 -                                                                             -
 -------------------------------------------------------------------------------
 COUNTER                                    TOTAL       BLAS       SMM       ACC
 flops inhomo. stacks                           0       0.0%      0.0%      0.0%
 flops total                         0.000000E+00       0.0%      0.0%      0.0%
 flops max/rank                      0.000000E+00       0.0%      0.0%      0.0%
 matmuls inhomo. stacks                         0       0.0%      0.0%      0.0%
 matmuls total                                  0       0.0%      0.0%      0.0%
 number of processed stacks                     0       0.0%      0.0%      0.0%
 average stack size                                     0.0       0.0       0.0
 marketing flops                     0.000000E+00
 -------------------------------------------------------------------------------
 -                                                                             -
 -                      DBCSR MESSAGE PASSING PERFORMANCE                      -
 -                                                                             -
 -------------------------------------------------------------------------------
 ROUTINE             CALLS      AVE VOLUME [Bytes]
 MP_Bcast                1                     12.
 MP_Allreduce           19                     21.
 MP_Alltoall        839992                   4650.
 -------------------------------------------------------------------------------

 -------------------------------------------------------------------------------
 -                                                                             -
 -                                DBM STATISTICS                               -
 -                                                                             -
 -------------------------------------------------------------------------------
    M  x    N  x    K                                          COUNT     PERCENT
 -------------------------------------------------------------------------------

 -------------------------------------------------------------------------------
 -                                                                             -
 -                                GRID STATISTICS                              -
 -                                                                             -
 -------------------------------------------------------------------------------
 LP    KERNEL             BACKEND                              COUNT     PERCENT
 4     collocate ortho    CPU                                 667836      50.65%
 4     integrate ortho    CPU                                 650712      49.35%
 0     collocate general  CPU                                      4       0.00%
 0     integrate general  CPU                                      2       0.00%
 -------------------------------------------------------------------------------

 MEMORY| Estimated peak process memory [MiB]                                 438

 -------------------------------------------------------------------------------
 ----                             MULTIGRID INFO                            ----
 -------------------------------------------------------------------------------
 count for grid        1:              0          cutoff [a.u.]          500.00
 count for grid        2:          74232          cutoff [a.u.]          166.67
 count for grid        3:         127458          cutoff [a.u.]           55.56
 count for grid        4:         164314          cutoff [a.u.]           18.52
 total gridlevel count  :         366004

 -------------------------------------------------------------------------------
 -                                                                             -
 -                         MESSAGE PASSING PERFORMANCE                         -
 -                                                                             -
 -------------------------------------------------------------------------------

 ROUTINE             CALLS      AVE VOLUME [Bytes]
 MP_Group                6
 MP_Bcast           353980                   1619.
 MP_Allreduce       154301                     43.
 MP_Sync                 4
 MP_Alltoall           689                2470205.
 MP_SendRecv          2370                 148851.
 MP_ISendRecv         2295                 147031.
 MP_Wait            241931
 MP_comm_split           4
 MP_ISend           247228                    508.
 MP_IRecv           412720                    307.
 -------------------------------------------------------------------------------


 -------------------------------------------------------------------------------
 -                                                                             -
 -                           R E F E R E N C E S                               -
 -                                                                             -
 -------------------------------------------------------------------------------
 
 CP2K version 2025.1 (Development Version), the CP2K developers group (2025).
 CP2K is freely available from https://www.cp2k.org/ .
 
 T. D. Kuehne, M. Iannuzzi, M. Del Ben, V. V. Rybkin, P. Seewald, F. Stein, T. 
 Laino, R. Z. Khaliullin, O. Schuett, F. Schiffmann, D. Golze, J. Wilhelm, S. 
 Chulkov, M. H. Bani-Hashemian, V. Weber, U. Borstnik, M. Taillefumier, A. S. 
 Jakobovits, A. Lazzaro, H. Pabst, T. Mueller, R. Schade, M. Guidon, S. 
 Andermatt, N. Holmberg, G. K. Schenter, A. Hehn, A. Bussy, F. Belleflamme, G. 
 Tabacchi, A. Gloess, M. Lass, I. Bethune, C. J. Mundy, C. Plessl, M. Watkins, 
 J. VandeVondele, M. Krack, J. Hutter.
 J. Chem. Phys. 152, 194103 (2020).
 CP2K: An electronic structure and molecular dynamics software package - 
 Quickstep: Efficient and accurate electronic structure calculations.
 https://doi.org/10.1063/5.0007045

 O. Schuett, P. Messmer, J. Hutter, J. VandeVondele.
 Electronic Structure Calculations on Graphics Processing Units, 173-190 (2016).
 GPU-Accelerated Sparse Matrix-Matrix Multiplication for Linear Scaling Density 
 Functional Theory.
 https://doi.org/10.1002/9781118670712.ch8

 J. Hutter, M. Iannuzzi, F. Schiffmann, J. VandeVondele.
 WIREs Comput Mol Sci. 4, 15-25 (2014).
 CP2K: atomistic simulations of condensed matter systems.
 https://doi.org/10.1002/wcms.1159

 U. Borstnik, J. VandeVondele, V. Weber, J. Hutter.
 Parallel Comput. 40, 47-58 (2014).
 Sparse matrix multiplication: The distributed block-compressed sparse row 
 library.
 https://doi.org/10.1016/j.parco.2014.03.012

 J. VandeVondele, J. Hutter.
 J. Chem. Phys. 127, 114105 (2007).
 Gaussian basis sets for accurate calculations on molecular systems in gas and 
 condensed phases.
 https://doi.org/10.1063/1.2770708

 J. VandeVondele, M. Krack, F. Mohamed, M. Parrinello, T. Chassaing, J. Hutter.
 Comput. Phys. Commun. 167, 103-128 (2005).
 QUICKSTEP: Fast and accurate density functional calculations using a mixed 
 Gaussian and plane waves approach.
 https://doi.org/10.1016/j.cpc.2004.12.014

 M. Krack.
 Theor. Chem. Acc. 114, 145-152 (2005).
 Pseudopotentials for H to Kr optimized for gradient-corrected 
 exchange-correlation functionals.
 https://doi.org/10.1007/s00214-005-0655-y

 M. Frigo, S. G. Johnson.
 Proc. IEEE 93, 216-231 (2005).
 The design and implementation of FFTW3.
 https://doi.org/10.1109/JPROC.2004.840301

 C. Hartwigsen, S. Goedecker, J. Hutter.
 Phys. Rev. B 58, 3641-3662 (1998).
 Relativistic separable dual-space Gaussian pseudopotentials from H to Rn.
 https://doi.org/10.1103/PhysRevB.58.3641

 G. Lippert, J. Hutter, M. Parrinello.
 Mol. Phys. 92, 477-487 (1997).
 A hybrid Gaussian and plane wave density functional scheme.
 https://doi.org/10.1080/002689797170220

 S. Goedecker, M. Teter, J. Hutter.
 Phys. Rev. B 54, 1703-1710 (1996).
 Separable dual-space Gaussian pseudopotentials.
 https://doi.org/10.1103/PhysRevB.54.1703

 J. P. Perdew, K. Burke, M. Ernzerhof.
 Phys. Rev. Lett. 77, 3865-3868 (1996).
 Generalized gradient approximation made simple.
 https://doi.org/10.1103/PhysRevLett.77.3865


 -------------------------------------------------------------------------------
 -                                                                             -
 -                                T I M I N G                                  -
 -                                                                             -
 -------------------------------------------------------------------------------
 SUBROUTINE                       CALLS  ASD         SELF TIME        TOTAL TIME
                                MAXIMUM       AVERAGE  MAXIMUM  AVERAGE  MAXIMUM
 CP2K                                 1  1.0    0.015    0.018  195.966  195.967
 qs_energies                          1  2.0    0.007    0.034  195.716  195.738
 scf_env_do_scf                       1  3.0    0.000    0.000  192.457  192.458
 scf_env_do_scf_inner_loop           38  4.0    0.044    0.048  192.457  192.457
 do_general_diag_kp                  39  5.9    0.205    0.237  180.515  181.927
 qs_scf_new_mos_kp                   38  5.0    0.000    0.000  178.440  179.838
 mp_alltoall_i22                 143340  8.8  117.241  143.451  117.241  143.451
 dbcsr_desymmetrize_deep          81694  7.4    1.188    1.408   88.754  106.862
 rskp_transform                   19752  7.0   16.418   88.624   16.418   88.624
 dbcsr_complete_redistribute      61646  8.2    1.899    2.202   55.305   63.373
 kpoint_density_transform            38  7.0    0.096    0.115   50.396   50.557
 copy_fm_to_dbcsr                 19456  8.0    0.109    0.124   39.657   47.370
 transform_dmat                    9728  8.0    7.734   41.659    7.734   41.659
 copy_dbcsr_to_fm                 42190  6.9    0.424    0.484   24.302   24.661
 qs_ks_update_qs_env                 38  5.0    0.000    0.000    4.574   10.813
 rebuild_ks_matrix                   38  6.0    0.000    0.000    2.842    9.081
 qs_ks_build_kohn_sham_matrix        38  7.0    0.085    0.087    2.842    9.080
 sum_up_and_integrate                38  8.0    0.000    0.000    1.896    8.117
 integrate_v_rspace                  38  9.0    0.025    0.129    1.894    8.116
 grid_integrate_task_list            38 10.0    1.406    7.547    1.406    7.547
 cp_fm_start_copy_general         58960  7.3    0.751    1.172    6.795    6.896
 qs_rho_update_rho_low               39  5.0    0.000    0.000    5.274    5.296
 calculate_rho_elec                  39  6.0    0.022    0.047    5.274    5.295
 transfer_rs2pw                     158  8.0    0.002    0.003    4.366    5.261
 mp_cart_sub                      84382  8.9    5.119    5.163    5.119    5.163
 dbcsr_finalize                  165288  8.4    0.696    0.734    4.809    5.152
 transfer_rs2pw_500                  41  8.9    0.125    0.133    4.242    5.139
 mp_sendrecv_dv                    2370 10.0    4.205    5.109    4.205    5.109
 density_rs2pw                       39  7.0    0.002    0.002    4.151    4.974
 mp_alltoall_d11v                430020  9.4    4.538    4.703    4.538    4.703
 grid_collocate_task_list            39  7.0    1.098    4.668    1.098    4.668
 mp_allgather_i                  117920  8.3    3.556    3.701    3.556    3.701
 mp_alltoall_i11v                266632  9.0    3.173    3.281    3.173    3.281
 dbcsr_merge_all                  61646 10.2    1.522    1.900    2.687    3.063
 hybrid_alltoall_any              81694  8.4    0.321    0.353    2.915    3.025
 mp_cart_create                   42197  8.9    2.622    2.741    2.622    2.741
 write_kpoints_restart               38  5.0    0.011    0.015    2.466    2.467
 mp_bcast_iv                     235867  8.3    1.772    1.925    1.772    1.925
 dbcsr_dot                       102069  8.0    0.426    0.615    1.787    1.818
 evaluate_core_matrix_traces         38  6.0    0.000    0.000    1.732    1.732
 calculate_ptrace_kp                 76  7.0    0.074    0.075    1.732    1.732
 cp_cfm_geeig_canon                 645  6.8    0.004    0.005    1.554    1.585
 dbcsr_work_create               143340  8.8    0.865    0.905    1.356    1.520
 dbcsr_create_new                316725  8.0    1.093    1.179    1.324    1.463
 cp_cfm_heevd                      1290  7.8    0.001    0.002    1.426    1.457
 cp_cfm_heevd_base                 1290  8.8    1.425    1.456    1.425    1.456
 mp_sum_d                        102791  9.0    1.162    1.268    1.162    1.268
 dbcsr_iterator_start            544372  8.9    1.000    1.016    1.147    1.187
 dbcsr_copy                      122867  6.9    0.583    0.650    0.996    1.168
 dbcsr_data_new                 1549320  9.7    0.904    1.147    0.904    1.147
 self_consistency_check              38  5.0    0.071    0.073    1.051    1.082
 dbcsr_work_destroy_all          143340  9.8    0.679    0.686    1.021    1.034
 kpoint_set_mo_occupation            38  7.0    0.971    0.977    1.010    1.031
 tree_to_linear_d                 61646 11.2    0.933    1.014    0.933    1.014
 cp_fm_write_unformatted           2686  6.0    0.706    0.950    0.711    0.984
 cp_sm_mix                        51034  6.0    0.137    0.243    0.907    0.948
 copy_fm_to_dbcsr_bc              19456  9.0    0.245    0.275    0.830    0.927
 copy_dbcsr_to_fm_bc              42190  7.9    0.397    0.416    0.896    0.920
 dbcsr_data_release             2257080 10.1    0.760    0.849    0.760    0.849
 dbcsr_iterator_stop             544372  8.9    0.638    0.656    0.759    0.784
 dbcsr_destroy                   214657  8.1    0.351    0.385    0.673    0.742
 mp_max_d                         51036  7.0    0.648    0.713    0.648    0.713
 fft_wrap_pw1pw2                    689 10.0    0.005    0.006    0.630    0.651
 cp_dbcsr_alloc_block_from_nbl     9631  5.1    0.114    0.512    0.138    0.602
 qs_energies_init_hamiltonians        1  3.0    0.000    0.000    0.590    0.590
 fft_wrap_pw1pw2_500                458 11.3    0.042    0.043    0.567    0.588
 fft3d_ps                           689 12.0    0.199    0.204    0.513    0.533
 mp_bcast_im                     117920  8.3    0.509    0.523    0.509    0.523
 mp_waitall_1                    241931  8.4    0.267    0.515    0.267    0.515
 quick_finalize                   81694  9.4    0.208    0.270    0.355    0.505
 potential_pw2rs                     38 10.0    0.002    0.002    0.464    0.484
 build_core_hamiltonian_matrix        1  4.0    0.005    0.005    0.145    0.458
 qs_env_update_s_mstruct              1  4.0    0.000    0.000    0.358    0.419
 mp_comm_free                    126613  8.9    0.380    0.411    0.380    0.411
 qs_vxc_create                       38  8.0    0.001    0.001    0.406    0.407
 xc_vxc_pw_create                    38  9.0    0.018    0.018    0.405    0.407
 calculate_rho_core                   1  5.0    0.001    0.002    0.327    0.405
 dbcsr_set                       211429  7.6    0.186    0.199    0.276    0.398
 gspace_mixing                       37  5.0    0.015    0.015    0.373    0.374
 transfer_pw2rs                     153 11.0    0.001    0.001    0.354    0.354
 dbcsr_copy_into_existing         20799  9.7    0.136    0.226    0.250    0.345
 init_scf_run                         1  3.0    0.000    0.000    0.300    0.330
 scf_env_initial_rho_setup            1  4.0    0.000    0.000    0.299    0.330
 kpoint_density_matrices             38  7.0    0.010    0.011    0.211    0.318
 broyden_mixing                      37  6.0    0.301    0.306    0.311    0.313
 parallel_gemm_fm                  2432  8.0    0.002    0.002    0.198    0.304
 parallel_gemm_fm_gemm             2432  9.0    0.002    0.002    0.195    0.301
 cp_fm_gemm                        2432 10.0    0.193    0.299    0.193    0.299
 mp_alltoall_z22v                   689 14.0    0.260    0.282    0.260    0.282
 cp_fm_finish_copy_general        22036  7.9    0.186    0.209    0.214    0.256
 xc_pw_derive                       228 11.0    0.001    0.001    0.252    0.254
 transfer_pw2rs_500                  39 11.9    0.125    0.135    0.245    0.253
 xc_rho_set_and_dset_create          38 10.0    0.011    0.013    0.221    0.224
 dbcsr_reserve_blocks             29087  9.4    0.101    0.174    0.121    0.203
 dbcsr_zero                      211429  8.6    0.090    0.198    0.090    0.198
 dbcsr_iterator_seek             544372  9.9    0.147    0.192    0.147    0.192
 mixing_allocate                      1  3.0    0.008    0.008    0.058    0.188
 dbcsr_make_index_exist          316725  9.0    0.150    0.186    0.150    0.186
 dbcsr_sort_indices              172427 11.0    0.097    0.185    0.097    0.185
 yz_to_x                            309 12.8    0.016    0.017    0.154    0.174
 calculate_first_density_matrix       1  5.0    0.001    0.001    0.138    0.168
 calculate_atomic_block_dm            1  6.0    0.001    0.001    0.135    0.166
 xc_pw_divergence                    38 10.0    0.000    0.000    0.162    0.164
 x_to_yz                            380 13.2    0.032    0.033    0.154    0.157
 dbcsr_reserve_all_blocks         19456 10.0    0.027    0.034    0.128    0.150
 merge_index                      61646 11.2    0.118    0.135    0.118    0.135
 dbcsr_switch_data_area           81694 10.4    0.077    0.084    0.103    0.119
 mp_irecv_iv                     235840  8.3    0.007    0.117    0.007    0.117
 cp_cfm_gemm                       1935  7.8    0.113    0.115    0.113    0.115
 build_overlap_matrix_low             1  5.0    0.010    0.017    0.035    0.111
 build_kinetic_matrix_low             1  5.0    0.010    0.017    0.033    0.103
 scf_post_calculation_gpw             1  3.0    0.000    0.000    0.102    0.102
 parser_read_line                  7684  4.0    0.003    0.003    0.100    0.102
 write_available_results              1  4.0    0.000    0.000    0.102    0.102
 write_mo_free_results                1  5.0    0.001    0.001    0.102    0.102
 parser_read_line_low                26  6.1    0.007    0.038    0.097    0.100
 mp_isend_dv                      58960  8.3    0.089    0.099    0.089    0.099
 build_core_ppnl                      1  5.0    0.024    0.098    0.024    0.098
 transfer_rs2pw_170                  39  9.0    0.026    0.029    0.091    0.096
 calculate_ecore_overlap              1  4.0    0.000    0.000    0.077    0.096
 broadcast_input_information         26  7.1    0.028    0.033    0.090    0.095
 qs_env_rebuild_rho                   1  5.0    0.000    0.000    0.028    0.094
 qs_rho_rebuild                       1  6.0    0.004    0.004    0.028    0.094
 transfer_pw2rs_170                  38 12.0    0.033    0.036    0.078    0.083
 cp_fm_cleanup_copy_general       40720  7.0    0.050    0.054    0.075    0.081
 mp_sum_iv                           24  5.3    0.065    0.081    0.065    0.081
 qs_scf_ensure_work_matrices          1  3.0    0.000    0.000    0.065    0.080
 mp_isend_iv                     125512  8.3    0.011    0.078    0.011    0.078
 mp_sum_dv                          333  3.4    0.062    0.078    0.062    0.078
 create_qs_kind_set                   1  2.0    0.000    0.000    0.077    0.077
 read_qs_kind                         1  3.0    0.038    0.042    0.077    0.077
 xc_functional_eval                  38 11.0    0.000    0.000    0.074    0.075
 pbe_lda_eval                        38 12.0    0.073    0.075    0.073    0.075
 mp_isendrecv_dv                   2295 13.0    0.036    0.072    0.036    0.072
 topology_control                     1  2.0    0.000    0.000    0.067    0.067
 mp_sum_dm3                          38  8.0    0.039    0.065    0.039    0.065
 dbcsr_distribution_new           61648  8.6    0.045    0.063    0.045    0.063
 dbcsr_make_dbcsr_index          172427 10.9    0.052    0.061    0.052    0.061
 dbcsr_get_data_size_used        143340  9.8    0.051    0.061    0.051    0.061
 mp_irecv_im2                    117920  8.3    0.004    0.058    0.004    0.058
 hirshfeld_integration                1  6.0    0.006    0.045    0.051    0.051
 read_cell_cif                        2  4.5    0.002    0.005    0.046    0.048
 mp_bcast_i_src                     104  8.1    0.038    0.043    0.038    0.043
 dbcsr_data_copy_aa2              61646 11.0    0.028    0.042    0.028    0.042
 calculate_hirshfeld_normalizat       1  6.0    0.004    0.033    0.040    0.041
 coordinate_control                   1  3.0    0.001    0.003    0.040    0.041
 coordinate_control_READ_COORDI       1  4.0    0.000    0.000    0.039    0.041
 read_coordinate_cif                  1  5.0    0.002    0.002    0.039    0.040
 qs_init_subsys                       1  2.0    0.001    0.002    0.039    0.039
 pw_poisson_solve                    38  8.0    0.000    0.000    0.038    0.038
 pw_scatter_p                       380 12.2    0.036    0.037    0.036    0.037
 fft_wrap_pw1pw2_170                 77 10.5    0.003    0.003    0.036    0.037
 qs_env_setup                         1  3.0    0.000    0.000    0.036    0.037
 qs_env_rebuild_pw_env                2  3.5    0.000    0.000    0.036    0.036
 pw_env_rebuild                       1  5.0    0.000    0.001    0.036    0.036
 mp_isend_im2                     62756  8.3    0.005    0.035    0.005    0.035
 mp_recv_dv                        8058  7.0    0.002    0.035    0.002    0.035
 mp_irecv_dv                      58960  8.3    0.033    0.034    0.033    0.034
 build_core_ppl                       1  5.0    0.006    0.034    0.006    0.034
 restraint_control                    1  2.0    0.000    0.000    0.022    0.030
 mp_sum_i                             4  2.8    0.022    0.030    0.022    0.030
 mp_comm_size                    103255  9.0    0.025    0.029    0.025    0.029
 mp_bcast_am_src                     26  8.1    0.016    0.017    0.023    0.025
 transfer_rs2pw_60                   39  9.0    0.005    0.005    0.022    0.025
 mp_comm_rank                    103255  9.0    0.023    0.024    0.023    0.024
 pw_integral_ab_c1d_c1d_gs           38  9.0    0.022    0.022    0.023    0.023
 transfer_pw2rs_60                   38 12.0    0.008    0.008    0.021    0.023
 pw_grid_setup                        4  6.0    0.000    0.000    0.021    0.022
 pw_grid_setup_internal               4  7.0    0.001    0.001    0.021    0.021
 pw_gather_p                        309 11.8    0.020    0.020    0.020    0.020
 -------------------------------------------------------------------------------

 The number of warnings for this run is : 1
 
 -------------------------------------------------------------------------------
  **** **** ******  **  PROGRAM ENDED AT                 2025-08-05 23:33:14.437
 ***** ** ***  *** **   PROGRAM RAN ON                              i04r01c01s03
 **    ****   ******    PROGRAM RAN BY                                   di38fab
 ***** **    ** ** **   PROGRAM PROCESS ID                                968076
  **** **  *******  **  PROGRAM STOPPED IN /hppfs/scratch/04/di38fab/09_GTH/Delt
                                           a_Set/Ba/aug-TZVP-MOLOPT-GTH-tier-1/8
                                           x8x8
