 DBCSR| CPU Multiplication driver                                           BLAS (U)
 DBCSR| Multrec recursion limit                                              512 (U)
 DBCSR| Multiplication stack size                                           1000 (D)
 DBCSR| Maximum elements for images                                    UNLIMITED (U)
 DBCSR| Multiplicative factor virtual images                                   1 (U)
 DBCSR| Use multiplication densification                                       T (D)
 DBCSR| Multiplication size stacks                                             3 (U)
 DBCSR| Use memory pool for CPU allocation                                     F (U)
 DBCSR| Number of 3D layers                                               SINGLE (U)
 DBCSR| Use MPI memory allocation                                              F (U)
 DBCSR| Use RMA algorithm                                                      F (U)
 DBCSR| Use Communication thread                                               T (U)
 DBCSR| Communication thread load                                             45 (D)
 DBCSR| MPI: My process id                                                     0
 DBCSR| MPI: Number of processes                                               8
 DBCSR| OMP: Current number of threads                                        12
 DBCSR| OMP: Max number of threads                                            12
 DBCSR| Split modifier for TAS multiplication algorithm                  1.0E+00 (U)


  **** **** ******  **  PROGRAM STARTED AT               2025-08-20 16:44:22.303
 ***** ** ***  *** **   PROGRAM STARTED ON                          i01r10c05s04
 **    ****   ******    PROGRAM STARTED BY                               di38fab
 ***** **    ** ** **   PROGRAM PROCESS ID                               4178201
  **** **  *******  **  PROGRAM STARTED IN /hppfs/scratch/04/di38fab/09_GTH/Delt
                                           a_Set/N/SZV-MOLOPT-GTH/8x8x8

 CP2K| version string:                 CP2K version 2025.1 (Development Version)
 CP2K| source code revision number:                                  git:3130539
 CP2K| cp2kflags: omp libint fftw3 libxc parallel scalapack max_contr=4         
 CP2K| is freely available from                            https://www.cp2k.org/
 CP2K| Program compiled at                         Tue Jun  3 16:14:32 CEST 2025
 CP2K| Program compiled on                                               login01
 CP2K| Program compiled for                                        Supermuc-foss
 CP2K| Data directory path                  /hppfs/work/pn36zo/di38fab/cp2k/data
 CP2K| Input file name                                                    GW.inp

 GLOBAL| Force Environment number                                              1
 GLOBAL| Basis set file name            /hppfs/scratch/04/di38fab/09_GTH/BASIS_A
 GLOBAL| Potential file name            /hppfs/work/pn36zo/di38fab/cp2k/data/GTH
 GLOBAL| MM Potential file name                                     MM_POTENTIAL
 GLOBAL| Coordinate file name                                              N.cif
 GLOBAL| Method name                                                        CP2K
 GLOBAL| Project name                                                       WSe2
 GLOBAL| Run type                                                         ENERGY
 GLOBAL| FFT library                                                       FFTW3
 GLOBAL| Diagonalization library                                       ScaLAPACK
 GLOBAL| Cholesky decomposition library                                ScaLAPACK
 GLOBAL| DGEMM library                                                      BLAS
 GLOBAL| Orthonormality check for eigenvectors                          DISABLED
 GLOBAL| Matrix multiplication library                                 ScaLAPACK
 GLOBAL| All-to-all communication in single precision                          F
 GLOBAL| FFTs using library dependent lengths                                  F
 GLOBAL| Grid backend                                                       AUTO
 GLOBAL| Global print level                                               MEDIUM
 GLOBAL| MPI I/O enabled                                                       T
 GLOBAL| Total number of message passing processes                             8
 GLOBAL| Number of threads for this process                                   12
 GLOBAL| This output is from process                                           0
 GLOBAL| OpenMP stack size per thread (OMP_STACKSIZE)                        64M
 GLOBAL| CPU model name             Intel(R) Xeon(R) Platinum 8174 CPU @ 3.10GHz

 MEMORY| system memory details [Kb]
 MEMORY|                        rank 0           min           max       average
 MEMORY| MemTotal             98436660      98436660      98436660      98436660
 MEMORY| MemFree              84681356      84681356      84850744      84766050
 MEMORY| Buffers                     0             0             0             0
 MEMORY| Cached                2415452       2358728       2415452       2387090
 MEMORY| Slab                  1301040       1288164       1301040       1294602
 MEMORY| SReclaimable           280616        280320        280616        280468
 MEMORY| MemLikelyFree        87377424      87377424      87489792      87433608


 *** Fundamental physical constants (SI units) ***

 *** Literature: B. J. Mohr and B. N. Taylor,
 ***             CODATA recommended values of the fundamental physical
 ***             constants: 2006, Web Version 5.1
 ***             http://physics.nist.gov/constants

 Speed of light in vacuum [m/s]                             2.99792458000000E+08
 Magnetic constant or permeability of vacuum [N/A**2]       1.25663706143592E-06
 Electric constant or permittivity of vacuum [F/m]          8.85418781762039E-12
 Planck constant (h) [J*s]                                  6.62606896000000E-34
 Planck constant (h-bar) [J*s]                              1.05457162825177E-34
 Elementary charge [C]                                      1.60217648700000E-19
 Electron mass [kg]                                         9.10938215000000E-31
 Electron g factor [ ]                                     -2.00231930436220E+00
 Proton mass [kg]                                           1.67262163700000E-27
 Fine-structure constant                                    7.29735253760000E-03
 Rydberg constant [1/m]                                     1.09737315685270E+07
 Avogadro constant [1/mol]                                  6.02214179000000E+23
 Boltzmann constant [J/K]                                   1.38065040000000E-23
 Atomic mass unit [kg]                                      1.66053878200000E-27
 Bohr radius [m]                                            5.29177208590000E-11

 *** Conversion factors ***

 [u] -> [a.u.]                                              1.82288848426455E+03
 [Angstrom] -> [Bohr] = [a.u.]                              1.88972613288564E+00
 [a.u.] = [Bohr] -> [Angstrom]                              5.29177208590000E-01
 [a.u.] -> [s]                                              2.41888432650478E-17
 [a.u.] -> [fs]                                             2.41888432650478E-02
 [a.u.] -> [J]                                              4.35974393937059E-18
 [a.u.] -> [N]                                              8.23872205491840E-08
 [a.u.] -> [K]                                              3.15774647902944E+05
 [a.u.] -> [kJ/mol]                                         2.62549961709828E+03
 [a.u.] -> [kcal/mol]                                       6.27509468713739E+02
 [a.u.] -> [Pa]                                             2.94210107994716E+13
 [a.u.] -> [bar]                                            2.94210107994716E+08
 [a.u.] -> [atm]                                            2.90362800883016E+08
 [a.u.] -> [eV]                                             2.72113838565563E+01
 [a.u.] -> [Hz]                                             6.57968392072181E+15
 [a.u.] -> [1/cm] (wave numbers)                            2.19474631370540E+05
 [a.u./Bohr**2] -> [1/cm]                                   5.14048714338585E+03
 

 CELL_TOP| Volume [angstrom^3]:                                       237.198500
 CELL_TOP| Vector a [angstrom     6.190     0.000     0.000   |a| =     6.190190
 CELL_TOP| Vector b [angstrom     0.000     6.190     0.000   |b| =     6.190190
 CELL_TOP| Vector c [angstrom     0.000     0.000     6.190   |c| =     6.190190
 CELL_TOP| Angle (b,c), alpha [degree]:                                90.000000
 CELL_TOP| Angle (a,c), beta  [degree]:                                90.000000
 CELL_TOP| Angle (a,b), gamma [degree]:                                90.000000
 CELL_TOP| Numerically orthorhombic:                                         YES
 CELL_TOP| Periodicity                                                       XYZ

 CELL_CIF| Volume [angstrom^3]:                                       237.198500
 CELL_CIF| Vector a [angstrom     6.190     0.000     0.000   |a| =     6.190190
 CELL_CIF| Vector b [angstrom     0.000     6.190     0.000   |b| =     6.190190
 CELL_CIF| Vector c [angstrom     0.000     0.000     6.190   |c| =     6.190190
 CELL_CIF| Angle (b,c), alpha [degree]:                                90.000000
 CELL_CIF| Angle (a,c), beta  [degree]:                                90.000000
 CELL_CIF| Angle (a,b), gamma [degree]:                                90.000000
 CELL_CIF| Numerically orthorhombic:                                         YES
 CELL_CIF| Periodicity                                                       XYZ

 GENERATE|  Preliminary Number of Bonds generated:                             0
 GENERATE|  Achieved consistency in connectivity generation.

 CELL| Volume [angstrom^3]:                                           237.198500
 CELL| Vector a [angstrom]:       6.190     0.000     0.000   |a| =     6.190190
 CELL| Vector b [angstrom]:       0.000     6.190     0.000   |b| =     6.190190
 CELL| Vector c [angstrom]:       0.000     0.000     6.190   |c| =     6.190190
 CELL| Angle (b,c), alpha [degree]:                                    90.000000
 CELL| Angle (a,c), beta  [degree]:                                    90.000000
 CELL| Angle (a,b), gamma [degree]:                                    90.000000
 CELL| Numerically orthorhombic:                                             YES
 CELL| Periodicity                                                           XYZ

 CELL_REF| Volume [angstrom^3]:                                       237.198500
 CELL_REF| Vector a [angstrom     6.190     0.000     0.000   |a| =     6.190190
 CELL_REF| Vector b [angstrom     0.000     6.190     0.000   |b| =     6.190190
 CELL_REF| Vector c [angstrom     0.000     0.000     6.190   |c| =     6.190190
 CELL_REF| Angle (b,c), alpha [degree]:                                90.000000
 CELL_REF| Angle (a,c), beta  [degree]:                                90.000000
 CELL_REF| Angle (a,b), gamma [degree]:                                90.000000
 CELL_REF| Numerically orthorhombic:                                         YES
 CELL_REF| Periodicity                                                       XYZ

 *** WARNING in cryssym.F:180 :: Symmetry library SPGLIB not available ***


 *******************************************************************************
                                    Kpoints
 *******************************************************************************
 BRILLOUIN| K-point scheme                                        Monkhorst-Pack
 BRILLOUIN| K-Point grid                                             8    8    8
 BRILLOUIN| Accuracy in Symmetry determination                      0.100000E-05
 BRILLOUIN| K-Point point group symmetrization                               OFF
 BRILLOUIN| Wavefunction type                                            COMPLEX
 BRILLOUIN| List of Kpoints [2 Pi/Bohr]                                      256
 BRILLOUIN| Number           Weight            X              Y              Z
 BRILLOUIN|     1           0.00391       -0.43750       -0.43750       -0.43750
 BRILLOUIN|     2           0.00391       -0.43750       -0.43750       -0.31250
 BRILLOUIN|     3           0.00391       -0.43750       -0.43750       -0.18750
 BRILLOUIN|     4           0.00391       -0.43750       -0.43750       -0.06250
 BRILLOUIN|     5           0.00391       -0.43750       -0.43750        0.06250
 BRILLOUIN|     6           0.00391       -0.43750       -0.43750        0.18750
 BRILLOUIN|     7           0.00391       -0.43750       -0.43750        0.31250
 BRILLOUIN|     8           0.00391       -0.43750       -0.43750        0.43750
 BRILLOUIN|     9           0.00391       -0.43750       -0.31250       -0.43750
 BRILLOUIN|    10           0.00391       -0.43750       -0.31250       -0.31250
 BRILLOUIN|    11           0.00391       -0.43750       -0.31250       -0.18750
 BRILLOUIN|    12           0.00391       -0.43750       -0.31250       -0.06250
 BRILLOUIN|    13           0.00391       -0.43750       -0.31250        0.06250
 BRILLOUIN|    14           0.00391       -0.43750       -0.31250        0.18750
 BRILLOUIN|    15           0.00391       -0.43750       -0.31250        0.31250
 BRILLOUIN|    16           0.00391       -0.43750       -0.31250        0.43750
 BRILLOUIN|    17           0.00391       -0.43750       -0.18750       -0.43750
 BRILLOUIN|    18           0.00391       -0.43750       -0.18750       -0.31250
 BRILLOUIN|    19           0.00391       -0.43750       -0.18750       -0.18750
 BRILLOUIN|    20           0.00391       -0.43750       -0.18750       -0.06250
 BRILLOUIN|    21           0.00391       -0.43750       -0.18750        0.06250
 BRILLOUIN|    22           0.00391       -0.43750       -0.18750        0.18750
 BRILLOUIN|    23           0.00391       -0.43750       -0.18750        0.31250
 BRILLOUIN|    24           0.00391       -0.43750       -0.18750        0.43750
 BRILLOUIN|    25           0.00391       -0.43750       -0.06250       -0.43750
 BRILLOUIN|    26           0.00391       -0.43750       -0.06250       -0.31250
 BRILLOUIN|    27           0.00391       -0.43750       -0.06250       -0.18750
 BRILLOUIN|    28           0.00391       -0.43750       -0.06250       -0.06250
 BRILLOUIN|    29           0.00391       -0.43750       -0.06250        0.06250
 BRILLOUIN|    30           0.00391       -0.43750       -0.06250        0.18750
 BRILLOUIN|    31           0.00391       -0.43750       -0.06250        0.31250
 BRILLOUIN|    32           0.00391       -0.43750       -0.06250        0.43750
 BRILLOUIN|    33           0.00391       -0.43750        0.06250       -0.43750
 BRILLOUIN|    34           0.00391       -0.43750        0.06250       -0.31250
 BRILLOUIN|    35           0.00391       -0.43750        0.06250       -0.18750
 BRILLOUIN|    36           0.00391       -0.43750        0.06250       -0.06250
 BRILLOUIN|    37           0.00391       -0.43750        0.06250        0.06250
 BRILLOUIN|    38           0.00391       -0.43750        0.06250        0.18750
 BRILLOUIN|    39           0.00391       -0.43750        0.06250        0.31250
 BRILLOUIN|    40           0.00391       -0.43750        0.06250        0.43750
 BRILLOUIN|    41           0.00391       -0.43750        0.18750       -0.43750
 BRILLOUIN|    42           0.00391       -0.43750        0.18750       -0.31250
 BRILLOUIN|    43           0.00391       -0.43750        0.18750       -0.18750
 BRILLOUIN|    44           0.00391       -0.43750        0.18750       -0.06250
 BRILLOUIN|    45           0.00391       -0.43750        0.18750        0.06250
 BRILLOUIN|    46           0.00391       -0.43750        0.18750        0.18750
 BRILLOUIN|    47           0.00391       -0.43750        0.18750        0.31250
 BRILLOUIN|    48           0.00391       -0.43750        0.18750        0.43750
 BRILLOUIN|    49           0.00391       -0.43750        0.31250       -0.43750
 BRILLOUIN|    50           0.00391       -0.43750        0.31250       -0.31250
 BRILLOUIN|    51           0.00391       -0.43750        0.31250       -0.18750
 BRILLOUIN|    52           0.00391       -0.43750        0.31250       -0.06250
 BRILLOUIN|    53           0.00391       -0.43750        0.31250        0.06250
 BRILLOUIN|    54           0.00391       -0.43750        0.31250        0.18750
 BRILLOUIN|    55           0.00391       -0.43750        0.31250        0.31250
 BRILLOUIN|    56           0.00391       -0.43750        0.31250        0.43750
 BRILLOUIN|    57           0.00391       -0.43750        0.43750       -0.43750
 BRILLOUIN|    58           0.00391       -0.43750        0.43750       -0.31250
 BRILLOUIN|    59           0.00391       -0.43750        0.43750       -0.18750
 BRILLOUIN|    60           0.00391       -0.43750        0.43750       -0.06250
 BRILLOUIN|    61           0.00391       -0.43750        0.43750        0.06250
 BRILLOUIN|    62           0.00391       -0.43750        0.43750        0.18750
 BRILLOUIN|    63           0.00391       -0.43750        0.43750        0.31250
 BRILLOUIN|    64           0.00391       -0.43750        0.43750        0.43750
 BRILLOUIN|    65           0.00391       -0.31250       -0.43750       -0.43750
 BRILLOUIN|    66           0.00391       -0.31250       -0.43750       -0.31250
 BRILLOUIN|    67           0.00391       -0.31250       -0.43750       -0.18750
 BRILLOUIN|    68           0.00391       -0.31250       -0.43750       -0.06250
 BRILLOUIN|    69           0.00391       -0.31250       -0.43750        0.06250
 BRILLOUIN|    70           0.00391       -0.31250       -0.43750        0.18750
 BRILLOUIN|    71           0.00391       -0.31250       -0.43750        0.31250
 BRILLOUIN|    72           0.00391       -0.31250       -0.43750        0.43750
 BRILLOUIN|    73           0.00391       -0.31250       -0.31250       -0.43750
 BRILLOUIN|    74           0.00391       -0.31250       -0.31250       -0.31250
 BRILLOUIN|    75           0.00391       -0.31250       -0.31250       -0.18750
 BRILLOUIN|    76           0.00391       -0.31250       -0.31250       -0.06250
 BRILLOUIN|    77           0.00391       -0.31250       -0.31250        0.06250
 BRILLOUIN|    78           0.00391       -0.31250       -0.31250        0.18750
 BRILLOUIN|    79           0.00391       -0.31250       -0.31250        0.31250
 BRILLOUIN|    80           0.00391       -0.31250       -0.31250        0.43750
 BRILLOUIN|    81           0.00391       -0.31250       -0.18750       -0.43750
 BRILLOUIN|    82           0.00391       -0.31250       -0.18750       -0.31250
 BRILLOUIN|    83           0.00391       -0.31250       -0.18750       -0.18750
 BRILLOUIN|    84           0.00391       -0.31250       -0.18750       -0.06250
 BRILLOUIN|    85           0.00391       -0.31250       -0.18750        0.06250
 BRILLOUIN|    86           0.00391       -0.31250       -0.18750        0.18750
 BRILLOUIN|    87           0.00391       -0.31250       -0.18750        0.31250
 BRILLOUIN|    88           0.00391       -0.31250       -0.18750        0.43750
 BRILLOUIN|    89           0.00391       -0.31250       -0.06250       -0.43750
 BRILLOUIN|    90           0.00391       -0.31250       -0.06250       -0.31250
 BRILLOUIN|    91           0.00391       -0.31250       -0.06250       -0.18750
 BRILLOUIN|    92           0.00391       -0.31250       -0.06250       -0.06250
 BRILLOUIN|    93           0.00391       -0.31250       -0.06250        0.06250
 BRILLOUIN|    94           0.00391       -0.31250       -0.06250        0.18750
 BRILLOUIN|    95           0.00391       -0.31250       -0.06250        0.31250
 BRILLOUIN|    96           0.00391       -0.31250       -0.06250        0.43750
 BRILLOUIN|    97           0.00391       -0.31250        0.06250       -0.43750
 BRILLOUIN|    98           0.00391       -0.31250        0.06250       -0.31250
 BRILLOUIN|    99           0.00391       -0.31250        0.06250       -0.18750
 BRILLOUIN|   100           0.00391       -0.31250        0.06250       -0.06250
 BRILLOUIN|   101           0.00391       -0.31250        0.06250        0.06250
 BRILLOUIN|   102           0.00391       -0.31250        0.06250        0.18750
 BRILLOUIN|   103           0.00391       -0.31250        0.06250        0.31250
 BRILLOUIN|   104           0.00391       -0.31250        0.06250        0.43750
 BRILLOUIN|   105           0.00391       -0.31250        0.18750       -0.43750
 BRILLOUIN|   106           0.00391       -0.31250        0.18750       -0.31250
 BRILLOUIN|   107           0.00391       -0.31250        0.18750       -0.18750
 BRILLOUIN|   108           0.00391       -0.31250        0.18750       -0.06250
 BRILLOUIN|   109           0.00391       -0.31250        0.18750        0.06250
 BRILLOUIN|   110           0.00391       -0.31250        0.18750        0.18750
 BRILLOUIN|   111           0.00391       -0.31250        0.18750        0.31250
 BRILLOUIN|   112           0.00391       -0.31250        0.18750        0.43750
 BRILLOUIN|   113           0.00391       -0.31250        0.31250       -0.43750
 BRILLOUIN|   114           0.00391       -0.31250        0.31250       -0.31250
 BRILLOUIN|   115           0.00391       -0.31250        0.31250       -0.18750
 BRILLOUIN|   116           0.00391       -0.31250        0.31250       -0.06250
 BRILLOUIN|   117           0.00391       -0.31250        0.31250        0.06250
 BRILLOUIN|   118           0.00391       -0.31250        0.31250        0.18750
 BRILLOUIN|   119           0.00391       -0.31250        0.31250        0.31250
 BRILLOUIN|   120           0.00391       -0.31250        0.31250        0.43750
 BRILLOUIN|   121           0.00391       -0.31250        0.43750       -0.43750
 BRILLOUIN|   122           0.00391       -0.31250        0.43750       -0.31250
 BRILLOUIN|   123           0.00391       -0.31250        0.43750       -0.18750
 BRILLOUIN|   124           0.00391       -0.31250        0.43750       -0.06250
 BRILLOUIN|   125           0.00391       -0.31250        0.43750        0.06250
 BRILLOUIN|   126           0.00391       -0.31250        0.43750        0.18750
 BRILLOUIN|   127           0.00391       -0.31250        0.43750        0.31250
 BRILLOUIN|   128           0.00391       -0.31250        0.43750        0.43750
 BRILLOUIN|   129           0.00391       -0.18750       -0.43750       -0.43750
 BRILLOUIN|   130           0.00391       -0.18750       -0.43750       -0.31250
 BRILLOUIN|   131           0.00391       -0.18750       -0.43750       -0.18750
 BRILLOUIN|   132           0.00391       -0.18750       -0.43750       -0.06250
 BRILLOUIN|   133           0.00391       -0.18750       -0.43750        0.06250
 BRILLOUIN|   134           0.00391       -0.18750       -0.43750        0.18750
 BRILLOUIN|   135           0.00391       -0.18750       -0.43750        0.31250
 BRILLOUIN|   136           0.00391       -0.18750       -0.43750        0.43750
 BRILLOUIN|   137           0.00391       -0.18750       -0.31250       -0.43750
 BRILLOUIN|   138           0.00391       -0.18750       -0.31250       -0.31250
 BRILLOUIN|   139           0.00391       -0.18750       -0.31250       -0.18750
 BRILLOUIN|   140           0.00391       -0.18750       -0.31250       -0.06250
 BRILLOUIN|   141           0.00391       -0.18750       -0.31250        0.06250
 BRILLOUIN|   142           0.00391       -0.18750       -0.31250        0.18750
 BRILLOUIN|   143           0.00391       -0.18750       -0.31250        0.31250
 BRILLOUIN|   144           0.00391       -0.18750       -0.31250        0.43750
 BRILLOUIN|   145           0.00391       -0.18750       -0.18750       -0.43750
 BRILLOUIN|   146           0.00391       -0.18750       -0.18750       -0.31250
 BRILLOUIN|   147           0.00391       -0.18750       -0.18750       -0.18750
 BRILLOUIN|   148           0.00391       -0.18750       -0.18750       -0.06250
 BRILLOUIN|   149           0.00391       -0.18750       -0.18750        0.06250
 BRILLOUIN|   150           0.00391       -0.18750       -0.18750        0.18750
 BRILLOUIN|   151           0.00391       -0.18750       -0.18750        0.31250
 BRILLOUIN|   152           0.00391       -0.18750       -0.18750        0.43750
 BRILLOUIN|   153           0.00391       -0.18750       -0.06250       -0.43750
 BRILLOUIN|   154           0.00391       -0.18750       -0.06250       -0.31250
 BRILLOUIN|   155           0.00391       -0.18750       -0.06250       -0.18750
 BRILLOUIN|   156           0.00391       -0.18750       -0.06250       -0.06250
 BRILLOUIN|   157           0.00391       -0.18750       -0.06250        0.06250
 BRILLOUIN|   158           0.00391       -0.18750       -0.06250        0.18750
 BRILLOUIN|   159           0.00391       -0.18750       -0.06250        0.31250
 BRILLOUIN|   160           0.00391       -0.18750       -0.06250        0.43750
 BRILLOUIN|   161           0.00391       -0.18750        0.06250       -0.43750
 BRILLOUIN|   162           0.00391       -0.18750        0.06250       -0.31250
 BRILLOUIN|   163           0.00391       -0.18750        0.06250       -0.18750
 BRILLOUIN|   164           0.00391       -0.18750        0.06250       -0.06250
 BRILLOUIN|   165           0.00391       -0.18750        0.06250        0.06250
 BRILLOUIN|   166           0.00391       -0.18750        0.06250        0.18750
 BRILLOUIN|   167           0.00391       -0.18750        0.06250        0.31250
 BRILLOUIN|   168           0.00391       -0.18750        0.06250        0.43750
 BRILLOUIN|   169           0.00391       -0.18750        0.18750       -0.43750
 BRILLOUIN|   170           0.00391       -0.18750        0.18750       -0.31250
 BRILLOUIN|   171           0.00391       -0.18750        0.18750       -0.18750
 BRILLOUIN|   172           0.00391       -0.18750        0.18750       -0.06250
 BRILLOUIN|   173           0.00391       -0.18750        0.18750        0.06250
 BRILLOUIN|   174           0.00391       -0.18750        0.18750        0.18750
 BRILLOUIN|   175           0.00391       -0.18750        0.18750        0.31250
 BRILLOUIN|   176           0.00391       -0.18750        0.18750        0.43750
 BRILLOUIN|   177           0.00391       -0.18750        0.31250       -0.43750
 BRILLOUIN|   178           0.00391       -0.18750        0.31250       -0.31250
 BRILLOUIN|   179           0.00391       -0.18750        0.31250       -0.18750
 BRILLOUIN|   180           0.00391       -0.18750        0.31250       -0.06250
 BRILLOUIN|   181           0.00391       -0.18750        0.31250        0.06250
 BRILLOUIN|   182           0.00391       -0.18750        0.31250        0.18750
 BRILLOUIN|   183           0.00391       -0.18750        0.31250        0.31250
 BRILLOUIN|   184           0.00391       -0.18750        0.31250        0.43750
 BRILLOUIN|   185           0.00391       -0.18750        0.43750       -0.43750
 BRILLOUIN|   186           0.00391       -0.18750        0.43750       -0.31250
 BRILLOUIN|   187           0.00391       -0.18750        0.43750       -0.18750
 BRILLOUIN|   188           0.00391       -0.18750        0.43750       -0.06250
 BRILLOUIN|   189           0.00391       -0.18750        0.43750        0.06250
 BRILLOUIN|   190           0.00391       -0.18750        0.43750        0.18750
 BRILLOUIN|   191           0.00391       -0.18750        0.43750        0.31250
 BRILLOUIN|   192           0.00391       -0.18750        0.43750        0.43750
 BRILLOUIN|   193           0.00391       -0.06250       -0.43750       -0.43750
 BRILLOUIN|   194           0.00391       -0.06250       -0.43750       -0.31250
 BRILLOUIN|   195           0.00391       -0.06250       -0.43750       -0.18750
 BRILLOUIN|   196           0.00391       -0.06250       -0.43750       -0.06250
 BRILLOUIN|   197           0.00391       -0.06250       -0.43750        0.06250
 BRILLOUIN|   198           0.00391       -0.06250       -0.43750        0.18750
 BRILLOUIN|   199           0.00391       -0.06250       -0.43750        0.31250
 BRILLOUIN|   200           0.00391       -0.06250       -0.43750        0.43750
 BRILLOUIN|   201           0.00391       -0.06250       -0.31250       -0.43750
 BRILLOUIN|   202           0.00391       -0.06250       -0.31250       -0.31250
 BRILLOUIN|   203           0.00391       -0.06250       -0.31250       -0.18750
 BRILLOUIN|   204           0.00391       -0.06250       -0.31250       -0.06250
 BRILLOUIN|   205           0.00391       -0.06250       -0.31250        0.06250
 BRILLOUIN|   206           0.00391       -0.06250       -0.31250        0.18750
 BRILLOUIN|   207           0.00391       -0.06250       -0.31250        0.31250
 BRILLOUIN|   208           0.00391       -0.06250       -0.31250        0.43750
 BRILLOUIN|   209           0.00391       -0.06250       -0.18750       -0.43750
 BRILLOUIN|   210           0.00391       -0.06250       -0.18750       -0.31250
 BRILLOUIN|   211           0.00391       -0.06250       -0.18750       -0.18750
 BRILLOUIN|   212           0.00391       -0.06250       -0.18750       -0.06250
 BRILLOUIN|   213           0.00391       -0.06250       -0.18750        0.06250
 BRILLOUIN|   214           0.00391       -0.06250       -0.18750        0.18750
 BRILLOUIN|   215           0.00391       -0.06250       -0.18750        0.31250
 BRILLOUIN|   216           0.00391       -0.06250       -0.18750        0.43750
 BRILLOUIN|   217           0.00391       -0.06250       -0.06250       -0.43750
 BRILLOUIN|   218           0.00391       -0.06250       -0.06250       -0.31250
 BRILLOUIN|   219           0.00391       -0.06250       -0.06250       -0.18750
 BRILLOUIN|   220           0.00391       -0.06250       -0.06250       -0.06250
 BRILLOUIN|   221           0.00391       -0.06250       -0.06250        0.06250
 BRILLOUIN|   222           0.00391       -0.06250       -0.06250        0.18750
 BRILLOUIN|   223           0.00391       -0.06250       -0.06250        0.31250
 BRILLOUIN|   224           0.00391       -0.06250       -0.06250        0.43750
 BRILLOUIN|   225           0.00391       -0.06250        0.06250       -0.43750
 BRILLOUIN|   226           0.00391       -0.06250        0.06250       -0.31250
 BRILLOUIN|   227           0.00391       -0.06250        0.06250       -0.18750
 BRILLOUIN|   228           0.00391       -0.06250        0.06250       -0.06250
 BRILLOUIN|   229           0.00391       -0.06250        0.06250        0.06250
 BRILLOUIN|   230           0.00391       -0.06250        0.06250        0.18750
 BRILLOUIN|   231           0.00391       -0.06250        0.06250        0.31250
 BRILLOUIN|   232           0.00391       -0.06250        0.06250        0.43750
 BRILLOUIN|   233           0.00391       -0.06250        0.18750       -0.43750
 BRILLOUIN|   234           0.00391       -0.06250        0.18750       -0.31250
 BRILLOUIN|   235           0.00391       -0.06250        0.18750       -0.18750
 BRILLOUIN|   236           0.00391       -0.06250        0.18750       -0.06250
 BRILLOUIN|   237           0.00391       -0.06250        0.18750        0.06250
 BRILLOUIN|   238           0.00391       -0.06250        0.18750        0.18750
 BRILLOUIN|   239           0.00391       -0.06250        0.18750        0.31250
 BRILLOUIN|   240           0.00391       -0.06250        0.18750        0.43750
 BRILLOUIN|   241           0.00391       -0.06250        0.31250       -0.43750
 BRILLOUIN|   242           0.00391       -0.06250        0.31250       -0.31250
 BRILLOUIN|   243           0.00391       -0.06250        0.31250       -0.18750
 BRILLOUIN|   244           0.00391       -0.06250        0.31250       -0.06250
 BRILLOUIN|   245           0.00391       -0.06250        0.31250        0.06250
 BRILLOUIN|   246           0.00391       -0.06250        0.31250        0.18750
 BRILLOUIN|   247           0.00391       -0.06250        0.31250        0.31250
 BRILLOUIN|   248           0.00391       -0.06250        0.31250        0.43750
 BRILLOUIN|   249           0.00391       -0.06250        0.43750       -0.43750
 BRILLOUIN|   250           0.00391       -0.06250        0.43750       -0.31250
 BRILLOUIN|   251           0.00391       -0.06250        0.43750       -0.18750
 BRILLOUIN|   252           0.00391       -0.06250        0.43750       -0.06250
 BRILLOUIN|   253           0.00391       -0.06250        0.43750        0.06250
 BRILLOUIN|   254           0.00391       -0.06250        0.43750        0.18750
 BRILLOUIN|   255           0.00391       -0.06250        0.43750        0.31250
 BRILLOUIN|   256           0.00391       -0.06250        0.43750        0.43750
 *******************************************************************************

 *******************************************************************************
 *******************************************************************************
 **                                                                           **
 **     #####                         ##              ##                      **
 **    ##   ##            ##          ##              ##                      **
 **   ##     ##                       ##            ######                    **
 **   ##     ##  ##   ##  ##   #####  ##  ##   ####   ##    #####    #####    **
 **   ##     ##  ##   ##  ##  ##      ## ##   ##      ##   ##   ##  ##   ##   **
 **   ##  ## ##  ##   ##  ##  ##      ####     ###    ##   ######   ######    **
 **    ##  ###   ##   ##  ##  ##      ## ##      ##   ##   ##       ##        **
 **     #######   #####   ##   #####  ##  ##  ####    ##    #####   ##        **
 **           ##                                                    ##        **
 **                                                                           **
 **                                                ... make the atoms dance   **
 **                                                                           **
 **            Copyright (C) by CP2K developers group (2000-2025)             **
 **                      J. Chem. Phys. 152, 194103 (2020)                    **
 **                                                                           **
 *******************************************************************************

 DFT| Spin restricted Kohn-Sham (RKS) calculation                            RKS
 DFT| Multiplicity                                                             1
 DFT| Number of spin states                                                    1
 DFT| Charge                                                                   0
 DFT| Self-interaction correction (SIC)                                       NO
 DFT| Cutoffs: density                                              1.000000E-10
 DFT|          gradient                                             1.000000E-10
 DFT|          tau                                                  1.000000E-10
 DFT|          cutoff_smoothing_range                               0.000000E+00
 DFT| XC density smoothing                                                  NONE
 DFT| XC derivatives                                                          PW

 FUNCTIONAL| PBE:
 FUNCTIONAL| J.P.Perdew, K.Burke, M.Ernzerhof, Phys. Rev. Letter, vol. 77, n 18,
 FUNCTIONAL|  pp. 3865-3868, (1996) {spin unpolarized}                          


 QS| Method:                                                                 GPW
 QS| Density plane wave grid type                        NON-SPHERICAL FULLSPACE
 QS| Number of grid levels:                                                    4
 QS| Density cutoff [a.u.]:                                                500.0
 QS| Multi grid cutoff [a.u.]: 1) grid level                               500.0
 QS|                           2) grid level                               166.7
 QS|                           3) grid level                                55.6
 QS|                           4) grid level                                18.5
 QS| Grid level progression factor:                                          3.0
 QS| Relative density cutoff [a.u.]:                                        50.0
 QS| Interaction thresholds: eps_pgf_orb:                                1.0E-16
 QS|                         eps_filter_matrix:                          0.0E+00
 QS|                         eps_core_charge:                            1.0E-18
 QS|                         eps_rho_gspace:                             1.0E-16
 QS|                         eps_rho_rspace:                             1.0E-16
 QS|                         eps_gvg_rspace:                             1.0E-08
 QS|                         eps_ppl:                                    1.0E-02
 QS|                         eps_ppnl:                                   1.0E-10


 ATOMIC KIND INFORMATION

  1. Atomic kind: N                                     Number of atoms:       8

     Orbital Basis Set                                         SZV-MOLOPT-GTH-q5

       Number of orbital shell sets:                                           1
       Number of orbital shells:                                               2
       Number of primitive Cartesian functions:                                7
       Number of Cartesian basis functions:                                    4
       Number of spherical basis functions:                                    4
       Norm type:                                                              2

       Normalised Cartesian orbitals:

                        Set   Shell   Orbital            Exponent    Coefficient

                          1       1    2s                9.042730      -0.237404
                                                         3.882225      -0.265910
                                                         1.512880       0.102064
                                                         0.586631       0.295369
                                                         0.222851       0.088647
                                                         0.084583       0.003860
                                                         0.039194       0.000722

                          1       2    3px               9.042730       0.822162
                                                         3.882225       0.990771
                                                         1.512880       0.665657
                                                         0.586631       0.321705
                                                         0.222851       0.063706
                                                         0.084583       0.004155
                                                         0.039194      -0.000005
                          1       2    3py               9.042730       0.822162
                                                         3.882225       0.990771
                                                         1.512880       0.665657
                                                         0.586631       0.321705
                                                         0.222851       0.063706
                                                         0.084583       0.004155
                                                         0.039194      -0.000005
                          1       2    3pz               9.042730       0.822162
                                                         3.882225       0.990771
                                                         1.512880       0.665657
                                                         0.586631       0.321705
                                                         0.222851       0.063706
                                                         0.084583       0.004155
                                                         0.039194      -0.000005

       Atomic covalent radius [Angstrom]:                                  0.750

       Atomic van der Waals radius [Angstrom]:                             1.550

     GTH Potential information for                                    GTH-PBE-q5

       Description:                       Goedecker-Teter-Hutter pseudopotential
                                           Goedecker et al., PRB 54, 1703 (1996)
                                          Hartwigsen et al., PRB 58, 3641 (1998)
                                                      Krack, TCA 114, 145 (2005)

       Gaussian exponent of the core charge distribution:               6.208322
       Electronic configuration (s p d ...):                               2   3

       Parameters of the local part of the GTH pseudopotential:

                          rloc        C1          C2          C3          C4
                        0.283791  -12.415226    1.868096

       Parameters of the non-local part of the GTH (SOC) pseudopotential:

                   l      r(l)      h(i,j,l)
                                    k(i,j,l)
                   0    0.255405   13.630263
                   1    0.245495    0.000000
                                    0.004148


 MOLECULE KIND INFORMATION


 All atoms are their own molecule, skipping detailed information


 TOTAL NUMBERS AND MAXIMUM NUMBERS

  Total number of            - Atomic kinds:                                   1
                             - Atoms:                                          8
                             - Shell sets:                                     8
                             - Shells:                                        16
                             - Primitive Cartesian functions:                 56
                             - Cartesian basis functions:                     32
                             - Spherical basis functions:                     32

  Maximum angular momentum of- Orbital basis functions:                        1
                             - Local part of the GTH pseudopotential:          2
                             - Non-local part of the GTH pseudopotential:      1


 MODULE QUICKSTEP: ATOMIC COORDINATES IN ANGSTROM

   Atom Kind Element         X             Y             Z       Z(eff)     Mass
      1    1 N     7      0.321209      0.321209      0.321209   5.0000  14.0067
      2    1 N     7      5.868981      5.868981      5.868981   5.0000  14.0067
      3    1 N     7      2.773886      5.868981      3.416304   5.0000  14.0067
      4    1 N     7      3.416304      0.321209      2.773886   5.0000  14.0067
      5    1 N     7      5.868981      3.416304      2.773886   5.0000  14.0067
      6    1 N     7      0.321209      2.773886      3.416304   5.0000  14.0067
      7    1 N     7      3.416304      2.773886      5.868981   5.0000  14.0067
      8    1 N     7      2.773886      3.416304      0.321209   5.0000  14.0067



 SCF PARAMETERS         Density guess:                                   RESTART
                        --------------------------------------------------------
                        max_scf:                                             500
                        max_scf_history:                                       0
                        max_diis:                                              4
                        --------------------------------------------------------
                        eps_scf:                                        1.00E-09
                        eps_scf_history:                                0.00E+00
                        eps_diis:                                       1.00E-01
                        eps_eigval:                                     1.00E-05
                        --------------------------------------------------------
                        level_shift [a.u.]:                             0.000000
                        added MOs                                        12    0
                        --------------------------------------------------------
                        Mixing method:                            BROYDEN_MIXING
                                                charge density mixing in g-space
                        --------------------------------------------------------
                        No outer SCF

 PW_GRID| Information for grid number                                          1
 PW_GRID| Grid distributed over                                     8 processors
 PW_GRID| Real space group dimensions                                     8    1
 PW_GRID| the grid is blocked:                                                NO
 PW_GRID| Cutoff [a.u.]                                                    500.0
 PW_GRID| spherical cutoff:                                                   NO
 PW_GRID|   Bounds   1            -60      59                Points:         120
 PW_GRID|   Bounds   2            -60      59                Points:         120
 PW_GRID|   Bounds   3            -60      59                Points:         120
 PW_GRID| Volume element (a.u.^3)  0.9263E-03     Volume (a.u.^3)      1600.6948
 PW_GRID| Grid span                                                    FULLSPACE
 PW_GRID|   Distribution                         Average         Max         Min
 PW_GRID|   G-Vectors                           216000.0      216000      216000
 PW_GRID|   G-Rays                                1800.0        1800        1800
 PW_GRID|   Real Space Points                   216000.0      216000      216000

 PW_GRID| Information for grid number                                          2
 PW_GRID| Number of the reference grid                                         1
 PW_GRID| Grid distributed over                                     8 processors
 PW_GRID| Real space group dimensions                                     8    1
 PW_GRID| the grid is blocked:                                                NO
 PW_GRID| Cutoff [a.u.]                                                    166.7
 PW_GRID| spherical cutoff:                                                   NO
 PW_GRID|   Bounds   1            -36      35                Points:          72
 PW_GRID|   Bounds   2            -36      35                Points:          72
 PW_GRID|   Bounds   3            -36      35                Points:          72
 PW_GRID| Volume element (a.u.^3)  0.4289E-02     Volume (a.u.^3)      1600.6948
 PW_GRID| Grid span                                                    FULLSPACE
 PW_GRID|   Distribution                         Average         Max         Min
 PW_GRID|   G-Vectors                            46656.0       46872       46512
 PW_GRID|   G-Rays                                 648.0         651         646
 PW_GRID|   Real Space Points                    46656.0       46656       46656

 PW_GRID| Information for grid number                                          3
 PW_GRID| Number of the reference grid                                         1
 PW_GRID| Grid distributed over                                     8 processors
 PW_GRID| Real space group dimensions                                     8    1
 PW_GRID| the grid is blocked:                                                NO
 PW_GRID| Cutoff [a.u.]                                                     55.6
 PW_GRID| spherical cutoff:                                                   NO
 PW_GRID|   Bounds   1            -20      19                Points:          40
 PW_GRID|   Bounds   2            -20      19                Points:          40
 PW_GRID|   Bounds   3            -20      19                Points:          40
 PW_GRID| Volume element (a.u.^3)  0.2501E-01     Volume (a.u.^3)      1600.6948
 PW_GRID| Grid span                                                    FULLSPACE
 PW_GRID|   Distribution                         Average         Max         Min
 PW_GRID|   G-Vectors                             8000.0        8120        7920
 PW_GRID|   G-Rays                                 200.0         203         198
 PW_GRID|   Real Space Points                     8000.0        8000        8000

 PW_GRID| Information for grid number                                          4
 PW_GRID| Number of the reference grid                                         1
 PW_GRID| Grid distributed over                                     8 processors
 PW_GRID| Real space group dimensions                                     8    1
 PW_GRID| the grid is blocked:                                                NO
 PW_GRID| Cutoff [a.u.]                                                     18.5
 PW_GRID| spherical cutoff:                                                   NO
 PW_GRID|   Bounds   1            -12      11                Points:          24
 PW_GRID|   Bounds   2            -12      11                Points:          24
 PW_GRID|   Bounds   3            -12      11                Points:          24
 PW_GRID| Volume element (a.u.^3)  0.1158         Volume (a.u.^3)      1600.6948
 PW_GRID| Grid span                                                    FULLSPACE
 PW_GRID|   Distribution                         Average         Max         Min
 PW_GRID|   G-Vectors                             1728.0        1800        1680
 PW_GRID|   G-Rays                                  72.0          75          70
 PW_GRID|   Real Space Points                     1728.0        1728        1728

 POISSON| Solver                                                        PERIODIC
 POISSON| Periodicity                                                        XYZ

 RS_GRID| Information for grid number                                          1
 RS_GRID|   Bounds   1            -60      59                Points:         120
 RS_GRID|   Bounds   2            -60      59                Points:         120
 RS_GRID|   Bounds   3            -60      59                Points:         120
 RS_GRID| Real space fully replicated
 RS_GRID| Group size                                                           1

 RS_GRID| Information for grid number                                          2
 RS_GRID|   Bounds   1            -36      35                Points:          72
 RS_GRID|   Bounds   2            -36      35                Points:          72
 RS_GRID|   Bounds   3            -36      35                Points:          72
 RS_GRID| Real space fully replicated
 RS_GRID| Group size                                                           1

 RS_GRID| Information for grid number                                          3
 RS_GRID|   Bounds   1            -20      19                Points:          40
 RS_GRID|   Bounds   2            -20      19                Points:          40
 RS_GRID|   Bounds   3            -20      19                Points:          40
 RS_GRID| Real space fully replicated
 RS_GRID| Group size                                                           1

 RS_GRID| Information for grid number                                          4
 RS_GRID|   Bounds   1            -12      11                Points:          24
 RS_GRID|   Bounds   2            -12      11                Points:          24
 RS_GRID|   Bounds   3            -12      11                Points:          24
 RS_GRID| Real space fully replicated
 RS_GRID| Group size                                                           1

 Number of electrons:                                                         40
 Number of occupied orbitals:                                                 20
 Number of molecular orbitals:                                                32

 Number of orbital functions:                                                 32
 Number of independent orbital functions:                                     32

 Extrapolation method: initial_guess

 *** WARNING in qs_initial_guess.F:306 :: User requested to restart the    ***
 *** wavefunction from the file named: WSe2-RESTART.kp. This file does not ***
 *** exist. Please check the existence of the file or change properly the  ***
 *** value of the keyword WFN_RESTART_FILE_NAME. Calculation continues     ***
 *** using ATOMIC GUESS.                                                   ***


 Atomic guess: The first density matrix is obtained in terms of atomic orbitals
               and electronic configurations assigned to each atomic kind

 Guess for atomic kind: N

 Electronic structure
    Total number of core electrons                                          2.00
    Total number of valence electrons                                       5.00
    Total number of electrons                                               7.00
    Multiplicity                                                   not specified
    S   [  2.00] 2.00
    P      3.00


 *******************************************************************************
                  Iteration          Convergence                     Energy [au]
 *******************************************************************************
                          1         0.00000                      -9.516699812225

 Energy components [Hartree]           Total Energy ::           -9.516699812225
                                        Band Energy ::           -1.575119888772
                                     Kinetic Energy ::            7.570578894892
                                   Potential Energy ::          -17.087278707117
                                      Virial (-V/T) ::            2.257063686193
                                        Core Energy ::          -15.899031892889
                                          XC Energy ::           -2.289347639535
                                     Coulomb Energy ::            8.671679720199
                       Total Pseudopotential Energy ::          -23.501476200035
                       Local Pseudopotential Energy ::          -24.429638778414
                    Nonlocal Pseudopotential Energy ::            0.928162578379
                                        Confinement ::            0.318654122541

 Orbital energies  State     L     Occupation   Energy[a.u.]          Energy[eV]

                       1     0          2.000      -0.570074          -15.512512

                       1     1          3.000      -0.144990           -3.945389


 Total Electron Density at R=0:                                         0.000320
 Re-scaling the density matrix to get the right number of electrons
                  # Electrons              Trace(P)               Scaling factor
                           40                40.000                        1.000


 SCF WAVEFUNCTION OPTIMIZATION

  Step     Update method      Time    Convergence         Total energy    Change
  ------------------------------------------------------------------------------
     1 NoMix/Diag. 0.50E-01    2.0     0.49952014       -78.3353868072 -7.83E+01
     2 Broy./Diag. 0.50E-01    2.1     0.00335011       -82.5812595527 -4.25E+00
     3 Broy./Diag. 0.50E-01    2.1     0.09606533       -79.9941668971  2.59E+00
     4 Broy./Diag. 0.50E-01    2.1     0.00087851       -79.9389634634  5.52E-02
     5 Broy./Diag. 0.50E-01    2.2     0.02976226       -79.1068283344  8.32E-01
     6 Broy./Diag. 0.50E-01    2.2     0.00006297       -79.0839571999  2.29E-02
     7 Broy./Diag. 0.50E-01    2.2     0.00202954       -78.9338003720  1.50E-01
     8 Broy./Diag. 0.50E-01    2.2     0.00009350       -78.9328328713  9.68E-04
     9 Broy./Diag. 0.50E-01    2.2     0.00038478       -78.8896826741  4.32E-02
    10 Broy./Diag. 0.50E-01    2.2     0.00003738       -78.8897537367 -7.11E-05
    11 Broy./Diag. 0.50E-01    2.2     0.00000966       -78.8792860799  1.05E-02
    12 Broy./Diag. 0.50E-01    2.2     0.00000172       -78.8789937648  2.92E-04
    13 Broy./Diag. 0.50E-01    2.2     0.00000186       -78.8746921091  4.30E-03
    14 Broy./Diag. 0.50E-01    2.2     0.00000094       -78.8745936832  9.84E-05
    15 Broy./Diag. 0.50E-01    2.2     0.00000035       -78.8737035802  8.90E-04
    16 Broy./Diag. 0.50E-01    2.2     0.00000005       -78.8736365138  6.71E-05
    17 Broy./Diag. 0.50E-01    2.2     0.00000719       -78.8739643631 -3.28E-04
    18 Broy./Diag. 0.50E-01    2.2     0.00000373       -78.8742859681 -3.22E-04
    19 Broy./Diag. 0.50E-01    2.2     0.00000114       -78.8743213854 -3.54E-05
    20 Broy./Diag. 0.50E-01    2.2     0.00000324       -78.8743063396  1.50E-05
    21 Broy./Diag. 0.50E-01    2.2     0.00000397       -78.8743535771 -4.72E-05
    22 Broy./Diag. 0.50E-01    2.2     0.00000095       -78.8743951423 -4.16E-05
    23 Broy./Diag. 0.50E-01    2.2     0.00000019       -78.8744109823 -1.58E-05
    24 Broy./Diag. 0.50E-01    2.2     0.00000090       -78.8744065192  4.46E-06
    25 Broy./Diag. 0.50E-01    2.2     0.00000010       -78.8744037308  2.79E-06
    26 Broy./Diag. 0.50E-01    2.2     0.00000006       -78.8744001951  3.54E-06
    27 Broy./Diag. 0.50E-01    2.2     0.00000018       -78.8743889140  1.13E-05
    28 Broy./Diag. 0.50E-01    2.2     0.00000034       -78.8743604417  2.85E-05
    29 Broy./Diag. 0.50E-01    2.3     0.00000013       -78.8743594471  9.95E-07
    30 Broy./Diag. 0.50E-01    2.2     0.00000020       -78.8743616855 -2.24E-06
    31 Broy./Diag. 0.50E-01    2.2     0.00000042       -78.8743664458 -4.76E-06
    32 Broy./Diag. 0.50E-01    2.2     0.00000011       -78.8743633065  3.14E-06
    33 Broy./Diag. 0.50E-01    2.2     0.00000014       -78.8743589820  4.32E-06
    34 Broy./Diag. 0.50E-01    2.2     0.00000007       -78.8743610326 -2.05E-06
    35 Broy./Diag. 0.50E-01    2.2     0.00000003       -78.8743630073 -1.97E-06
    36 Broy./Diag. 0.50E-01    2.2     1.0288E-09       -78.8743685558 -5.55E-06
    37 Broy./Diag. 0.50E-01    2.2     3.6380E-09       -78.8743702406 -1.68E-06
    38 Broy./Diag. 0.50E-01    2.2     9.8465E-09       -78.8743738175 -3.58E-06
    39 Broy./Diag. 0.50E-01    2.2     0.00000001       -78.8743737648  5.27E-08
    40 Broy./Diag. 0.50E-01    2.2     0.00000005       -78.8743732392  5.26E-07
    41 Broy./Diag. 0.50E-01    2.2     0.00000001       -78.8743730469  1.92E-07
    42 Broy./Diag. 0.50E-01    2.2     7.1204E-09       -78.8743732768 -2.30E-07
    43 Broy./Diag. 0.50E-01    2.2     0.00000004       -78.8743744109 -1.13E-06
    44 Broy./Diag. 0.50E-01    2.2     4.8129E-09       -78.8743742973  1.14E-07
    45 Broy./Diag. 0.50E-01    2.2     8.4429E-09       -78.8743740219  2.75E-07
    46 Broy./Diag. 0.50E-01    2.2     8.5886E-10       -78.8743738331  1.89E-07

  *** SCF run converged in    46 steps ***


  Electronic density on regular grids:        -40.0000000000       -0.0000000000
  Core density on regular grids:               40.0000000000       -0.0000000000
  Total charge density on r-space grids:       -0.0000000000
  Total charge density g-space grids:          -0.0000000000

  Overlap energy of the core charge distribution:               0.00000767021668
  Self energy of the core charge distribution:               -198.80495071796318
  Core Hamiltonian energy:                                     56.22571518282490
  Hartree energy:                                              83.21282280871810
  Exchange-correlation energy:                                -19.50796877691228

  Total energy:                                               -78.87437383311577

 !-----------------------------------------------------------------------------!
                     Mulliken Population Analysis

 #  Atom  Element  Kind  Atomic population                           Net charge
       1     N        1          5.000000                             -0.000000
       2     N        1          5.000000                             -0.000000
       3     N        1          5.000000                             -0.000000
       4     N        1          5.000000                              0.000000
       5     N        1          5.000000                              0.000000
       6     N        1          5.000000                              0.000000
       7     N        1          5.000000                             -0.000000
       8     N        1          5.000000                              0.000000
 # Total charge                             40.000000                 -0.000000

 !-----------------------------------------------------------------------------!

 !-----------------------------------------------------------------------------!
                           Hirshfeld Charges

  #Atom  Element  Kind  Ref Charge     Population                    Net charge
      1       N      1       5.000          5.000                        -0.000
      2       N      1       5.000          5.000                        -0.000
      3       N      1       5.000          5.000                        -0.000
      4       N      1       5.000          5.000                        -0.000
      5       N      1       5.000          5.000                        -0.000
      6       N      1       5.000          5.000                        -0.000
      7       N      1       5.000          5.000                        -0.000
      8       N      1       5.000          5.000                        -0.000

  Total Charge                                                           -0.000
 !-----------------------------------------------------------------------------!

 KPOINTS| Band Structure Calculation
 KPOINTS| Number of k-point sets                                               1
 KPOINTS| Number of added MOs/bands                                           -1
 KPOINTS| Number of k-points in set    1                                     148
 KPOINTS| In units of b-vector [2pi/Bohr]
 KPOINTS| Special point     1 not specifi     0.000000     0.000000     0.000000
 KPOINTS| Special point     2 not specifi     0.000000     0.500000     0.000000
 KPOINTS| Special point     3 not specifi     0.500000     0.500000     0.000000
 KPOINTS| Special point     4 not specifi     0.000000     0.000000     0.000000
 KPOINTS| Time for k-point line                                            0.788

 ENERGY| Total FORCE_EVAL ( QS ) energy [hartree]            -78.874373833115769

 -------------------------------------------------------------------------------
 -                                                                             -
 -                                DBCSR STATISTICS                             -
 -                                                                             -
 -------------------------------------------------------------------------------
 COUNTER                                    TOTAL       BLAS       SMM       ACC
 flops inhomo. stacks                           0       0.0%      0.0%      0.0%
 flops total                         0.000000E+00       0.0%      0.0%      0.0%
 flops max/rank                      0.000000E+00       0.0%      0.0%      0.0%
 matmuls inhomo. stacks                         0       0.0%      0.0%      0.0%
 matmuls total                                  0       0.0%      0.0%      0.0%
 number of processed stacks                     0       0.0%      0.0%      0.0%
 average stack size                                     0.0       0.0       0.0
 marketing flops                     0.000000E+00
 -------------------------------------------------------------------------------
 -                                                                             -
 -                      DBCSR MESSAGE PASSING PERFORMANCE                      -
 -                                                                             -
 -------------------------------------------------------------------------------
 ROUTINE             CALLS      AVE VOLUME [Bytes]
 MP_Bcast                1                     12.
 MP_Allreduce           19                     21.
 MP_Alltoall       1001364                    743.
 -------------------------------------------------------------------------------

 -------------------------------------------------------------------------------
 -                                                                             -
 -                                DBM STATISTICS                               -
 -                                                                             -
 -------------------------------------------------------------------------------
    M  x    N  x    K                                          COUNT     PERCENT
 -------------------------------------------------------------------------------

 -------------------------------------------------------------------------------
 -                                                                             -
 -                                GRID STATISTICS                              -
 -                                                                             -
 -------------------------------------------------------------------------------
 LP    KERNEL             BACKEND                              COUNT     PERCENT
 2     collocate ortho    CPU                                3389640      50.54%
 2     integrate ortho    CPU                                3317520      49.46%
 0     collocate general  CPU                                     16       0.00%
 0     integrate general  CPU                                      8       0.00%
 -------------------------------------------------------------------------------

 MEMORY| Estimated peak process memory [MiB]                                 543

 -------------------------------------------------------------------------------
 ----                             MULTIGRID INFO                            ----
 -------------------------------------------------------------------------------
 count for grid        1:          19968          cutoff [a.u.]          500.00
 count for grid        2:          12516          cutoff [a.u.]          166.67
 count for grid        3:          16492          cutoff [a.u.]           55.56
 count for grid        4:          61588          cutoff [a.u.]           18.52
 total gridlevel count  :         110564

 -------------------------------------------------------------------------------
 -                                                                             -
 -                         MESSAGE PASSING PERFORMANCE                         -
 -                                                                             -
 -------------------------------------------------------------------------------

 ROUTINE             CALLS      AVE VOLUME [Bytes]
 MP_Group                6
 MP_Bcast           428678                  13467.
 MP_Allreduce        99681                     42.
 MP_Sync                 4
 MP_Alltoall           833                9598209.
 MP_SendRecv          1330                 557223.
 MP_ISendRecv         1295                 551164.
 MP_Wait            295267
 MP_comm_split           4
 MP_ISend           312524                    245.
 MP_IRecv           499328                    156.
 -------------------------------------------------------------------------------


 -------------------------------------------------------------------------------
 -                                                                             -
 -                           R E F E R E N C E S                               -
 -                                                                             -
 -------------------------------------------------------------------------------
 
 CP2K version 2025.1 (Development Version), the CP2K developers group (2025).
 CP2K is freely available from https://www.cp2k.org/ .
 
 T. D. Kuehne, M. Iannuzzi, M. Del Ben, V. V. Rybkin, P. Seewald, F. Stein, T. 
 Laino, R. Z. Khaliullin, O. Schuett, F. Schiffmann, D. Golze, J. Wilhelm, S. 
 Chulkov, M. H. Bani-Hashemian, V. Weber, U. Borstnik, M. Taillefumier, A. S. 
 Jakobovits, A. Lazzaro, H. Pabst, T. Mueller, R. Schade, M. Guidon, S. 
 Andermatt, N. Holmberg, G. K. Schenter, A. Hehn, A. Bussy, F. Belleflamme, G. 
 Tabacchi, A. Gloess, M. Lass, I. Bethune, C. J. Mundy, C. Plessl, M. Watkins, 
 J. VandeVondele, M. Krack, J. Hutter.
 J. Chem. Phys. 152, 194103 (2020).
 CP2K: An electronic structure and molecular dynamics software package - 
 Quickstep: Efficient and accurate electronic structure calculations.
 https://doi.org/10.1063/5.0007045

 O. Schuett, P. Messmer, J. Hutter, J. VandeVondele.
 Electronic Structure Calculations on Graphics Processing Units, 173-190 (2016).
 GPU-Accelerated Sparse Matrix-Matrix Multiplication for Linear Scaling Density 
 Functional Theory.
 https://doi.org/10.1002/9781118670712.ch8

 J. Hutter, M. Iannuzzi, F. Schiffmann, J. VandeVondele.
 WIREs Comput Mol Sci. 4, 15-25 (2014).
 CP2K: atomistic simulations of condensed matter systems.
 https://doi.org/10.1002/wcms.1159

 U. Borstnik, J. VandeVondele, V. Weber, J. Hutter.
 Parallel Comput. 40, 47-58 (2014).
 Sparse matrix multiplication: The distributed block-compressed sparse row 
 library.
 https://doi.org/10.1016/j.parco.2014.03.012

 J. VandeVondele, J. Hutter.
 J. Chem. Phys. 127, 114105 (2007).
 Gaussian basis sets for accurate calculations on molecular systems in gas and 
 condensed phases.
 https://doi.org/10.1063/1.2770708

 J. VandeVondele, M. Krack, F. Mohamed, M. Parrinello, T. Chassaing, J. Hutter.
 Comput. Phys. Commun. 167, 103-128 (2005).
 QUICKSTEP: Fast and accurate density functional calculations using a mixed 
 Gaussian and plane waves approach.
 https://doi.org/10.1016/j.cpc.2004.12.014

 M. Krack.
 Theor. Chem. Acc. 114, 145-152 (2005).
 Pseudopotentials for H to Kr optimized for gradient-corrected 
 exchange-correlation functionals.
 https://doi.org/10.1007/s00214-005-0655-y

 M. Frigo, S. G. Johnson.
 Proc. IEEE 93, 216-231 (2005).
 The design and implementation of FFTW3.
 https://doi.org/10.1109/JPROC.2004.840301

 C. Hartwigsen, S. Goedecker, J. Hutter.
 Phys. Rev. B 58, 3641-3662 (1998).
 Relativistic separable dual-space Gaussian pseudopotentials from H to Rn.
 https://doi.org/10.1103/PhysRevB.58.3641

 G. Lippert, J. Hutter, M. Parrinello.
 Mol. Phys. 92, 477-487 (1997).
 A hybrid Gaussian and plane wave density functional scheme.
 https://doi.org/10.1080/002689797170220

 S. Goedecker, M. Teter, J. Hutter.
 Phys. Rev. B 54, 1703-1710 (1996).
 Separable dual-space Gaussian pseudopotentials.
 https://doi.org/10.1103/PhysRevB.54.1703

 J. P. Perdew, K. Burke, M. Ernzerhof.
 Phys. Rev. Lett. 77, 3865-3868 (1996).
 Generalized gradient approximation made simple.
 https://doi.org/10.1103/PhysRevLett.77.3865


 -------------------------------------------------------------------------------
 -                                                                             -
 -                                T I M I N G                                  -
 -                                                                             -
 -------------------------------------------------------------------------------
 SUBROUTINE                       CALLS  ASD         SELF TIME        TOTAL TIME
                                MAXIMUM       AVERAGE  MAXIMUM  AVERAGE  MAXIMUM
 CP2K                                 1  1.0    0.012    0.015  104.638  104.639
 qs_energies                          1  2.0    0.005    0.017  103.196  103.203
 scf_env_do_scf                       1  3.0    0.000    0.000  101.422  101.422
 scf_env_do_scf_inner_loop           46  4.0    0.031    0.033  101.421  101.421
 do_general_diag_kp                  47  5.9    0.274    0.289   82.013   83.849
 qs_scf_new_mos_kp                   46  5.0    0.000    0.000   81.248   83.086
 rskp_transform                   23848  7.0   23.535   26.515   23.535   26.515
 dbcsr_complete_redistribute      73387  8.3    2.493    2.698   22.419   26.359
 dbcsr_desymmetrize_deep          97531  7.5    1.587    1.692   13.815   23.896
 copy_dbcsr_to_fm                 49835  6.9    0.529    0.558   23.208   23.706
 mp_alltoall_i22                 170918  8.8    8.186   22.459    8.186   22.459
 kpoint_density_transform            46  7.0    0.111    0.118   21.974   21.984
 transform_dmat                   11776  8.0   11.209   12.819   11.209   12.819
 copy_fm_to_dbcsr                 23552  8.0    0.145    0.154    8.632   12.490
 qs_ks_update_qs_env                 46  5.0    0.000    0.000    9.607   10.441
 rebuild_ks_matrix                   46  6.0    0.000    0.000    8.688    9.522
 qs_ks_build_kohn_sham_matrix        46  7.0    0.057    0.058    8.687    9.522
 sum_up_and_integrate                46  8.0    0.001    0.001    6.246    7.083
 integrate_v_rspace                  46  9.0    0.055    0.084    6.243    7.080
 qs_rho_update_rho_low               47  5.0    0.000    0.000    6.760    6.773
 calculate_rho_elec                  47  6.0    0.077    0.077    6.759    6.772
 dbcsr_finalize                  182882  8.6    0.843    0.955    5.712    6.366
 grid_integrate_task_list            46 10.0    5.349    6.179    5.349    6.179
 grid_collocate_task_list            47  7.0    4.890    5.485    4.890    5.485
 cp_fm_start_copy_general         71248  7.3    0.825    1.299    5.417    5.482
 mp_alltoall_d11v                512754  9.4    4.791    5.100    4.791    5.100
 mp_cart_sub                      99672  8.9    4.107    4.118    4.107    4.118
 dbcsr_merge_all                  73387 10.3    2.002    2.420    3.058    3.547
 hybrid_alltoall_any              97531  8.5    0.380    0.417    3.127    3.329
 mp_alltoall_i11v                317692  9.0    3.118    3.169    3.118    3.169
 density_rs2pw                       47  7.0    0.002    0.002    1.788    3.144
 transfer_rs2pw                     190  8.0    0.002    0.002    1.368    2.827
 transfer_rs2pw_500                  49  8.9    0.262    0.287    1.194    2.669
 mp_sendrecv_dv                    1330 10.0    1.039    2.473    1.039    2.473
 mp_cart_create                   49842  8.9    2.350    2.408    2.350    2.408
 fft_wrap_pw1pw2                    833 10.0    0.009    0.010    2.380    2.397
 mp_allgather_i                  142496  8.3    2.105    2.271    2.105    2.271
 fft_wrap_pw1pw2_500                554 11.3    0.196    0.201    2.218    2.241
 mp_bcast_iv                     285156  8.3    1.682    1.920    1.682    1.920
 fft3d_ps                           833 12.0    0.830    0.846    1.837    1.864
 qs_vxc_create                       46  8.0    0.001    0.001    1.776    1.780
 xc_vxc_pw_create                    46  9.0    0.076    0.076    1.775    1.779
 gspace_mixing                       45  5.0    0.069    0.069    1.756    1.756
 dbcsr_create_new                315218  8.2    1.288    1.403    1.542    1.672
 dbcsr_work_create               170918  8.8    1.070    1.103    1.510    1.559
 dbcsr_copy                       89861  7.1    0.402    0.438    1.354    1.528
 broyden_mixing                      45  6.0    1.444    1.459    1.481    1.492
 write_kpoints_restart               46  5.0    0.007    0.012    1.428    1.428
 dbcsr_iterator_start            562863  9.0    1.067    1.090    1.238    1.280
 create_qs_kind_set                   1  2.0    0.000    0.000    1.262    1.262
 read_qs_kind                         1  3.0    0.659    0.665    1.262    1.262
 dbcsr_work_destroy_all          170918  9.8    0.803    0.826    1.204    1.229
 xc_pw_derive                       276 11.0    0.001    0.001    1.114    1.119
 copy_fm_to_dbcsr_bc              23552  9.0    0.315    0.340    1.040    1.115
 copy_dbcsr_to_fm_bc              49835  7.9    0.480    0.519    1.056    1.100
 dbcsr_data_new                 1838325  9.7    0.786    1.012    0.786    1.012
 xc_rho_set_and_dset_create          46 10.0    0.047    0.047    0.982    0.986
 dbcsr_copy_into_existing         24265  9.9    0.705    0.841    0.846    0.984
 evaluate_core_matrix_traces         46  6.0    0.000    0.000    0.919    0.919
 calculate_ptrace_kp                 92  7.0    0.048    0.052    0.919    0.919
 mp_alltoall_z22v                   833 14.0    0.869    0.906    0.869    0.906
 dbcsr_dot                        65597  8.0    0.306    0.323    0.872    0.875
 dbcsr_data_release             2596250 10.2    0.853    0.868    0.853    0.868
 potential_pw2rs                     46 10.0    0.005    0.005    0.838    0.852
 dbcsr_iterator_stop             562863  9.0    0.684    0.690    0.805    0.811
 dbcsr_destroy                   249622  8.2    0.415    0.430    0.723    0.771
 tree_to_linear_d                 73387 11.3    0.734    0.769    0.734    0.769
 xc_pw_divergence                    46 10.0    0.001    0.001    0.708    0.711
 parser_read_line                143864  4.0    0.047    0.049    0.658    0.662
 mp_waitall_1                    295267  8.3    0.394    0.653    0.394    0.653
 cp_cfm_geeig                      1509  6.9    0.009    0.009    0.610    0.622
 parser_read_line_low               163  5.2    0.073    0.389    0.610    0.615
 x_to_yz                            460 13.2    0.084    0.085    0.573    0.595
 broadcast_input_information        163  6.2    0.105    0.109    0.538    0.590
 transfer_pw2rs                     185 11.0    0.001    0.001    0.586    0.587
 mp_bcast_im                     142496  8.3    0.514    0.582    0.514    0.582
 quick_finalize                   97531  9.5    0.315    0.326    0.542    0.565
 cp_dbcsr_alloc_block_from_nbl     5269  5.1    0.439    0.515    0.458    0.534
 qs_energies_init_hamiltonians        1  3.0    0.000    0.000    0.521    0.521
 self_consistency_check              46  5.0    0.046    0.050    0.501    0.516
 mp_sum_d                         66387  8.9    0.444    0.504    0.444    0.504
 cp_cfm_heevd                      1509  7.9    0.002    0.002    0.477    0.485
 cp_cfm_heevd_base                 1509  8.9    0.476    0.484    0.476    0.484
 transfer_pw2rs_500                  47 11.9    0.232    0.238    0.432    0.447
 yz_to_x                            373 12.8    0.048    0.051    0.427    0.442
 cp_fm_write_unformatted           2139  6.0    0.399    0.422    0.403    0.436
 cp_sm_mix                        32798  6.0    0.118    0.127    0.410    0.427
 mp_comm_free                    149551  8.9    0.364    0.411    0.364    0.411
 mp_bcast_i_src                     652  7.2    0.309    0.370    0.309    0.370
 build_core_hamiltonian_matrix        1  4.0    0.003    0.003    0.324    0.368
 xc_functional_eval                  46 11.0    0.000    0.001    0.336    0.338
 pbe_lda_eval                        46 12.0    0.336    0.338    0.336    0.338
 dbcsr_sort_indices              199739 10.8    0.229    0.278    0.229    0.278
 init_scf_run                         1  3.0    0.000    0.000    0.224    0.263
 scf_env_initial_rho_setup            1  4.0    0.000    0.000    0.224    0.263
 dbcsr_set                       191142  7.8    0.177    0.181    0.242    0.246
 mp_max_d                         32800  7.0    0.216    0.244    0.216    0.244
 qs_env_update_s_mstruct              1  4.0    0.000    0.000    0.156    0.224
 cp_fm_finish_copy_general        29588  7.8    0.147    0.154    0.190    0.201
 pw_scatter_p                       460 12.2    0.189    0.192    0.189    0.192
 dbcsr_iterator_seek             562863 10.0    0.171    0.190    0.171    0.190
 dbcsr_make_index_exist          315218  9.2    0.162    0.172    0.162    0.172
 kpoint_density_matrices             46  7.0    0.013    0.014    0.164    0.169
 calculate_rho_core                   1  5.0    0.002    0.002    0.070    0.167
 merge_index                      73387 11.3    0.140    0.162    0.140    0.162
 transfer_rs2pw_170                  47  9.0    0.053    0.054    0.132    0.156
 parallel_gemm_fm                  5888  8.0    0.005    0.006    0.148    0.152
 pw_poisson_solve                    46  8.0    0.001    0.001    0.149    0.150
 dbcsr_reserve_all_blocks         23552 10.0    0.039    0.043    0.140    0.149
 parallel_gemm_fm_gemm             5888  9.0    0.005    0.005    0.143    0.147
 mixing_allocate                      1  3.0    0.004    0.004    0.132    0.147
 cp_fm_gemm                        5888 10.0    0.138    0.142    0.138    0.142
 mp_irecv_iv                     284992  8.3    0.017    0.136    0.017    0.136
 transfer_pw2rs_170                  46 12.0    0.058    0.063    0.118    0.131
 mp_isendrecv_dv                   1295 13.0    0.056    0.131    0.056    0.131
 dbcsr_reserve_blocks             28821 10.1    0.090    0.095    0.118    0.125
 mp_bcast_am_src                    163  7.2    0.112    0.117    0.117    0.121
 dbcsr_switch_data_area           97531 10.5    0.087    0.089    0.114    0.116
 fft_wrap_pw1pw2_170                 93 10.5    0.009    0.010    0.109    0.112
 mp_isend_dv                      71840  8.3    0.100    0.109    0.100    0.109
 pw_integral_ab_c1d_c1d_gs           46  9.0    0.096    0.097    0.100    0.101
 qs_env_rebuild_rho                   1  5.0    0.000    0.000    0.069    0.100
 qs_rho_rebuild                       1  6.0    0.002    0.002    0.069    0.100
 mp_isend_iv                     160456  8.3    0.025    0.096    0.025    0.096
 cp_fm_cleanup_copy_general       50640  7.0    0.055    0.057    0.085    0.087
 build_overlap_matrix_low             1  5.0    0.006    0.007    0.072    0.086
 pw_gather_p                        373 11.8    0.079    0.082    0.079    0.082
 qs_init_subsys                       1  2.0    0.001    0.002    0.079    0.079
 build_kinetic_matrix_low             1  5.0    0.006    0.006    0.070    0.077
 qs_env_setup                         1  3.0    0.000    0.000    0.076    0.076
 qs_env_rebuild_pw_env                2  3.5    0.000    0.000    0.075    0.076
 pw_env_rebuild                       1  5.0    0.000    0.001    0.075    0.075
 dbcsr_distribution_new           73389  8.6    0.062    0.072    0.062    0.072
 dbcsr_get_data_size_used        170918  9.8    0.065    0.070    0.065    0.070
 mp_irecv_im2                    142496  8.3    0.009    0.070    0.009    0.070
 pw_grid_setup                        4  6.0    0.000    0.000    0.066    0.067
 pw_grid_setup_internal               4  7.0    0.002    0.002    0.066    0.067
 build_core_ppnl                      1  5.0    0.060    0.067    0.060    0.067
 cp_cfm_triangular_multiply        4527  7.9    0.064    0.066    0.064    0.066
 dbcsr_zero                      191142  8.8    0.065    0.066    0.065    0.066
 calculate_ecore_overlap              1  4.0    0.000    0.000    0.033    0.063
 topology_control                     1  2.0    0.000    0.000    0.061    0.062
 pw_copy                            690 10.5    0.059    0.062    0.059    0.062
 dbcsr_make_dbcsr_index          199739 10.8    0.058    0.062    0.058    0.062
 calculate_first_density_matrix       1  5.0    0.001    0.001    0.021    0.060
 mp_bcast_b_src                      47  6.0    0.017    0.056    0.017    0.056
 pw_derive                          414 11.3    0.052    0.055    0.052    0.055
 pw_copy_from_array                 460 12.2    0.042    0.055    0.042    0.055
 pw_grid_sort                         4  8.0    0.033    0.034    0.047    0.048
 kpoint_set_mo_occupation            46  7.0    0.008    0.008    0.037    0.046
 build_core_ppl                       1  5.0    0.030    0.045    0.030    0.045
 mp_irecv_dv                      71840  8.3    0.040    0.044    0.040    0.044
 read_cell_cif                        2  4.5    0.002    0.004    0.041    0.043
 mp_isend_im2                     80228  8.3    0.011    0.043    0.011    0.043
 dbcsr_data_copy_aa2              73387 11.3    0.037    0.039    0.037    0.039
 mp_sum_dm                           45  7.0    0.023    0.038    0.023    0.038
 mp_sum_dm3                          46  8.0    0.029    0.038    0.029    0.038
 coordinate_control                   1  3.0    0.000    0.001    0.037    0.037
 coordinate_control_READ_COORDI       1  4.0    0.000    0.000    0.036    0.037
 read_coordinate_cif                  1  5.0    0.002    0.002    0.036    0.037
 transfer_rs2pw_60                   47  9.0    0.009    0.010    0.031    0.036
 scf_post_calculation_gpw             1  3.0    0.000    0.000    0.036    0.036
 write_available_results              1  4.0    0.000    0.000    0.036    0.036
 write_mo_free_results                1  5.0    0.002    0.002    0.036    0.036
 pw_poisson_set                      47  8.9    0.001    0.001    0.033    0.034
 fft_wrap_pw1pw2_60                  93 10.5    0.002    0.002    0.031    0.032
 mixing_init                          1  5.0    0.030    0.032    0.032    0.032
 transfer_pw2rs_60                   46 12.0    0.010    0.010    0.026    0.030
 mp_sum_dv                          341  3.5    0.017    0.029    0.017    0.029
 cp_cfm_cholesky_decompose         1509  7.9    0.028    0.029    0.028    0.029
 mp_sum_iv                           24  5.3    0.008    0.028    0.008    0.028
 qs_scf_ensure_work_matrices          1  3.0    0.000    0.000    0.008    0.027
 pw_axpy                            464  9.3    0.024    0.025    0.024    0.025
 cp_cfm_triangular_invert          1509  7.9    0.024    0.025    0.024    0.025
 mp_comm_size                     66943  9.0    0.018    0.022    0.018    0.022
 qs_create_task_list                  1  5.0    0.000    0.000    0.018    0.020
 generate_qs_task_list                1  6.0    0.012    0.013    0.018    0.020
 mp_comm_rank                     66943  9.0    0.016    0.018    0.016    0.018
 pw_copy_to_array                   373 11.8    0.017    0.018    0.017    0.018
 get_fft_scratch                    834 13.0    0.004    0.016    0.004    0.016
 calculate_hirshfeld_normalizat       1  6.0    0.003    0.004    0.015    0.015
 pw_zero                            231 10.4    0.014    0.015    0.014    0.015
 hirshfeld_integration                1  6.0    0.004    0.004    0.014    0.014
 sort_shells                          4  9.0    0.014    0.014    0.014    0.014
 fft3d_s                              1  2.0    0.000    0.000    0.002    0.014
 fft_wrap_pw1pw2_20                  93 10.5    0.001    0.001    0.013    0.013
 mp_recv_dv                        6417  7.0    0.002    0.013    0.002    0.013
 mp_bcast_iv_src                    163  7.2    0.006    0.013    0.006    0.013
 restraint_control                    1  2.0    0.000    0.000    0.007    0.013
 mp_sum_i                             4  2.8    0.007    0.013    0.007    0.013
 transfer_rs2pw_20                   47  9.0    0.003    0.003    0.009    0.011
 -------------------------------------------------------------------------------

 The number of warnings for this run is : 2
 
 -------------------------------------------------------------------------------
  **** **** ******  **  PROGRAM ENDED AT                 2025-08-20 16:46:07.272
 ***** ** ***  *** **   PROGRAM RAN ON                              i01r10c05s04
 **    ****   ******    PROGRAM RAN BY                                   di38fab
 ***** **    ** ** **   PROGRAM PROCESS ID                               4178201
  **** **  *******  **  PROGRAM STOPPED IN /hppfs/scratch/04/di38fab/09_GTH/Delt
                                           a_Set/N/SZV-MOLOPT-GTH/8x8x8
