Be                                      
   1.00000000000000     
     2.262760    0.000000    0.000000
     1.131380    1.959608    0.000000
     0.000000    0.000000    3.573160
   Be
     2
Direct
  0.000000  0.000000  0.000000
  0.333333  0.333333  0.500000
 
   20   20   32
 0.86483      1.1130      1.7611      2.5767      3.3181      3.8396      4.1169      4.2078      4.1972      4.1603    
  4.1438      4.1603      4.1972      4.2078      4.1169      3.8396      3.3181      2.5767      1.7611      1.1130    
  1.1130      1.5759      2.3269      3.1172      3.7482      4.1385      4.3115      4.3431      4.3143      4.2864    
  4.2864      4.3143      4.3431      4.3114      4.1384      3.7482      3.1173      2.3270      1.5760      1.1131    
  1.7611      2.3269      3.0382      3.6838      4.1367      4.3764      4.4544      4.4454      4.4149      4.4013    
  4.4149      4.4454      4.4544      4.3764      4.1366      3.6838      3.0383      2.3270      1.7612      1.5444    
  2.5767      3.1172      3.6838      4.1329      4.4063      4.5231      4.5401      4.5174      4.4977      4.4977    
  4.5174      4.5401      4.5231      4.4063      4.1328      3.6838      3.1172      2.5766      2.2429      2.2429    
  3.3181      3.7482      4.1367      4.4063      4.5461      4.5894      4.5836      4.5680      4.5611      4.5680    
  4.5836      4.5895      4.5462      4.4064      4.1367      3.7482      3.3180      2.9750      2.8435      2.9751    
  3.8396      4.1385      4.3764      4.5231      4.5894      4.6066      4.6053      4.6017      4.6017      4.6053    
  4.6066      4.5894      4.5231      4.3765      4.1385      3.8395      3.5550      3.3796      3.3797      3.5551    
  4.1169      4.3115      4.4544      4.5401      4.5836      4.6053      4.6158      4.6191      4.6158      4.6053    
  4.5836      4.5400      4.4544      4.3115      4.1169      3.9072      3.7422      3.6793      3.7422      3.9071    
  4.2078      4.3431      4.4454      4.5174      4.5680      4.6017      4.6191      4.6191      4.6018      4.5680    
  4.5173      4.4454      4.3430      4.2078      4.0545      3.9162      3.8332      3.8331      3.9161      4.0545    
  4.1972      4.3143      4.4149      4.4977      4.5611      4.6017      4.6158      4.6018      4.5611      4.4977    
  4.4149      4.3143      4.1972      4.0700      3.9500      3.8625      3.8302      3.8625      3.9500      4.0700    
  4.1603      4.2864      4.4013      4.4977      4.5680      4.6053      4.6053      4.5680      4.4977      4.4014    
  4.2865      4.1603      4.0319      3.9132      3.8197      3.7677      3.7678      3.8198      3.9132      4.0320    
  4.1438      4.2864      4.4149      4.5174      4.5836      4.6066      4.5836      4.5173      4.4149      4.2865    
  4.1439      3.9998      3.8673      3.7598      3.6894      3.6649      3.6894      3.7598      3.8673      3.9997    
  4.1603      4.3143      4.4454      4.5401      4.5895      4.5894      4.5400      4.4454      4.3143      4.1603    
  3.9998      3.8489      3.7222      3.6312      3.5838      3.5838      3.6312      3.7222      3.8488      3.9997    
  4.1972      4.3431      4.4544      4.5231      4.5462      4.5231      4.4544      4.3430      4.1972      4.0319    
  3.8673      3.7222      3.6103      3.5403      3.5165      3.5403      3.6103      3.7222      3.8673      4.0320    
  4.2078      4.3114      4.3764      4.4063      4.4064      4.3765      4.3115      4.2078      4.0700      3.9132    
  3.7598      3.6312      3.5403      3.4935      3.4935      3.5403      3.6312      3.7598      3.9132      4.0700    
  4.1169      4.1384      4.1366      4.1328      4.1367      4.1385      4.1169      4.0545      3.9500      3.8197    
  3.6894      3.5838      3.5165      3.4935      3.5165      3.5838      3.6894      3.8198      3.9500      4.0545    
  3.8396      3.7482      3.6838      3.6838      3.7482      3.8395      3.9072      3.9162      3.8625      3.7677    
  3.6649      3.5838      3.5403      3.5403      3.5838      3.6649      3.7677      3.8625      3.9162      3.9071    
  3.3181      3.1173      3.0383      3.1172      3.3180      3.5550      3.7422      3.8332      3.8302      3.7678    
  3.6894      3.6312      3.6103      3.6312      3.6894      3.7677      3.8302      3.8331      3.7422      3.5551    
  2.5767      2.3270      2.3270      2.5766      2.9750      3.3796      3.6793      3.8331      3.8625      3.8198    
  3.7598      3.7222      3.7222      3.7598      3.8198      3.8625      3.8331      3.6793      3.3797      2.9751    
  1.7611      1.5760      1.7612      2.2429      2.8435      3.3797      3.7422      3.9161      3.9500      3.9132    
  3.8673      3.8488      3.8673      3.9132      3.9500      3.9162      3.7422      3.3797      2.8435      2.2428    
  1.1130      1.1131      1.5444      2.2429      2.9751      3.5551      3.9071      4.0545      4.0700      4.0320    
  3.9997      3.9997      4.0320      4.0700      4.0545      3.9071      3.5551      2.9751      2.2428      1.5443    
  1.1171      1.3484      1.9517      2.7097      3.3967      3.8766      4.1278      4.2053      4.1895      4.1515    
  4.1350      4.1515      4.1895      4.2053      4.1278      3.8766      3.3967      2.7097      1.9517      1.3483    
  1.3484      1.7801      2.4800      3.2151      3.7997      4.1580      4.3130      4.3366      4.3056      4.2776    
  4.2776      4.3056      4.3366      4.3130      4.1579      3.7996      3.2152      2.4802      1.7802      1.3484    
  1.9517      2.4800      3.1434      3.7440      4.1629      4.3817      4.4494      4.4369      4.4061      4.3927    
  4.4061      4.4369      4.4495      4.3816      4.1628      3.7439      3.1435      2.4801      1.9518      1.7492    
  2.7097      3.2151      3.7440      4.1616      4.4140      4.5193      4.5319      4.5086      4.4893      4.4893    
  4.5086      4.5319      4.5194      4.4139      4.1616      3.7439      3.2151      2.7097      2.3974      2.3974    
  3.3967      3.7997      4.1629      4.4140      4.5429      4.5815      4.5749      4.5598      4.5532      4.5598    
  4.5749      4.5816      4.5429      4.4140      4.1629      3.7996      3.3965      3.0749      2.9515      3.0750    
  3.8766      4.1580      4.3817      4.5193      4.5815      4.5978      4.5972      4.5942      4.5942      4.5972    
  4.5978      4.5815      4.5194      4.3817      4.1580      3.8766      3.6086      3.4433      3.4434      3.6087    
  4.1278      4.3130      4.4494      4.5319      4.5749      4.5972      4.6085      4.6120      4.6085      4.5972    
  4.5749      4.5319      4.4494      4.3130      4.1279      3.9285      3.7719      3.7122      3.7719      3.9285    
  4.2053      4.3366      4.4369      4.5086      4.5598      4.5942      4.6120      4.6120      4.5943      4.5598    
  4.5086      4.4369      4.3365      4.2053      4.0573      3.9242      3.8444      3.8444      3.9242      4.0573    
  4.1895      4.3056      4.4061      4.4893      4.5532      4.5942      4.6085      4.5943      4.5532      4.4894    
  4.4061      4.3055      4.1894      4.0642      3.9468      3.8613      3.8298      3.8613      3.9468      4.0643    
  4.1515      4.2776      4.3927      4.4893      4.5598      4.5972      4.5972      4.5598      4.4894      4.3928    
  4.2777      4.1515      4.0235      3.9055      3.8128      3.7614      3.7614      3.8129      3.9055      4.0235    
  4.1350      4.2776      4.4061      4.5086      4.5749      4.5978      4.5749      4.5086      4.4061      4.2777    
  4.1351      3.9910      3.8587      3.7513      3.6810      3.6565      3.6810      3.7513      3.8587      3.9910    
  4.1515      4.3056      4.4369      4.5319      4.5816      4.5815      4.5319      4.4369      4.3055      4.1515    
  3.9910      3.8402      3.7135      3.6225      3.5750      3.5750      3.6225      3.7135      3.8401      3.9910    
  4.1895      4.3366      4.4495      4.5194      4.5429      4.5194      4.4494      4.3365      4.1894      4.0235    
  3.8587      3.7135      3.6015      3.5315      3.5077      3.5315      3.6015      3.7134      3.8586      4.0235    
  4.2053      4.3130      4.3816      4.4139      4.4140      4.3817      4.3130      4.2053      4.0642      3.9055    
  3.7513      3.6225      3.5315      3.4848      3.4847      3.5315      3.6225      3.7513      3.9055      4.0643    
  4.1278      4.1579      4.1628      4.1616      4.1629      4.1580      4.1279      4.0573      3.9468      3.8128    
  3.6810      3.5750      3.5077      3.4847      3.5077      3.5750      3.6810      3.8129      3.9468      4.0573    
  3.8766      3.7996      3.7439      3.7439      3.7996      3.8766      3.9285      3.9242      3.8613      3.7614    
  3.6565      3.5750      3.5315      3.5315      3.5750      3.6565      3.7614      3.8613      3.9242      3.9285    
  3.3967      3.2152      3.1435      3.2151      3.3965      3.6086      3.7719      3.8444      3.8298      3.7614    
  3.6810      3.6225      3.6015      3.6225      3.6810      3.7614      3.8298      3.8444      3.7719      3.6087    
  2.7097      2.4802      2.4801      2.7097      3.0749      3.4433      3.7122      3.8444      3.8613      3.8129    
  3.7513      3.7135      3.7134      3.7513      3.8129      3.8613      3.8444      3.7122      3.4434      3.0750    
  1.9517      1.7802      1.9518      2.3974      2.9515      3.4434      3.7719      3.9242      3.9468      3.9055    
  3.8587      3.8401      3.8586      3.9055      3.9468      3.9242      3.7719      3.4434      2.9515      2.3973    
  1.3483      1.3484      1.7492      2.3974      3.0750      3.6087      3.9285      4.0573      4.0643      4.0235    
  3.9910      3.9910      4.0235      4.0643      4.0573      3.9285      3.6087      3.0750      2.3973      1.7490    
  1.7795      1.9661      2.4516      3.0580      3.6012      3.9717      4.1541      4.1964      4.1672      4.1269    
  4.1104      4.1269      4.1672      4.1965      4.1541      3.9717      3.6012      3.0580      2.4515      1.9660    
  1.9661      2.3160      2.8812      3.4705      3.9326      4.2068      4.3144      4.3173      4.2810      4.2530    
  4.2530      4.2809      4.3174      4.3144      4.2067      3.9325      3.4706      2.8813      2.3160      1.9661    
  2.4516      2.8812      3.4181      3.8997      4.2292      4.3930      4.4340      4.4127      4.3815      4.3686    
  4.3814      4.4127      4.4340      4.3929      4.2291      3.8997      3.4183      2.8813      2.4516      2.2865    
  3.0580      3.4705      3.8997      4.2346      4.4313      4.5070      4.5083      4.4840      4.4658      4.4658    
  4.4839      4.5084      4.5070      4.4313      4.2345      3.8998      3.4706      3.0579      2.8022      2.8023    
  3.6012      3.9326      4.2292      4.4313      4.5318      4.5585      4.5502      4.5367      4.5310      4.5367    
  4.5502      4.5586      4.5318      4.4313      4.2291      3.9325      3.6011      3.3358      3.2339      3.3359    
  3.9717      4.2068      4.3930      4.5070      4.5585      4.5731      4.5744      4.5731      4.5731      4.5744    
  4.5731      4.5585      4.5070      4.3930      4.2068      3.9717      3.7474      3.6089      3.6090      3.7475    
  4.1541      4.3144      4.4340      4.5083      4.5502      4.5744      4.5877      4.5921      4.5877      4.5744    
  4.5502      4.5083      4.4340      4.3145      4.1542      3.9824      3.8478      3.7966      3.8478      3.9824    
  4.1964      4.3173      4.4127      4.4840      4.5367      4.5731      4.5921      4.5921      4.5731      4.5367    
  4.4839      4.4126      4.3173      4.1964      4.0625      3.9432      3.8720      3.8720      3.9431      4.0624    
  4.1672      4.2810      4.3815      4.4658      4.5310      4.5731      4.5877      4.5731      4.5311      4.4658    
  4.3815      4.2809      4.1672      4.0471      3.9361      3.8561      3.8268      3.8561      3.9361      4.0471    
  4.1269      4.2530      4.3686      4.4658      4.5367      4.5744      4.5744      4.5367      4.4658      4.3687    
  4.2530      4.1269      3.9996      3.8834      3.7929      3.7429      3.7429      3.7929      3.8834      3.9997    
  4.1104      4.2530      4.3814      4.4839      4.5502      4.5731      4.5502      4.4839      4.3815      4.2530    
  4.1105      3.9665      3.8344      3.7273      3.6573      3.6329      3.6573      3.7273      3.8344      3.9665    
  4.1269      4.2809      4.4127      4.5084      4.5586      4.5585      4.5083      4.4126      4.2809      4.1269    
  3.9665      3.8157      3.6890      3.5979      3.5503      3.5504      3.5979      3.6890      3.8157      3.9664    
  4.1672      4.3174      4.4340      4.5070      4.5318      4.5070      4.4340      4.3173      4.1672      3.9996    
  3.8344      3.6890      3.5770      3.5068      3.4830      3.5068      3.5769      3.6890      3.8343      3.9996    
  4.1965      4.3144      4.3929      4.4313      4.4313      4.3930      4.3145      4.1964      4.0471      3.8834    
  3.7273      3.5979      3.5068      3.4601      3.4600      3.5068      3.5979      3.7273      3.8834      4.0472    
  4.1541      4.2067      4.2291      4.2345      4.2291      4.2068      4.1542      4.0625      3.9361      3.7929    
  3.6573      3.5503      3.4830      3.4600      3.4829      3.5504      3.6573      3.7929      3.9361      4.0624    
  3.9717      3.9325      3.8997      3.8998      3.9325      3.9717      3.9824      3.9432      3.8561      3.7429    
  3.6329      3.5504      3.5068      3.5068      3.5504      3.6329      3.7430      3.8561      3.9431      3.9824    
  3.6012      3.4706      3.4183      3.4706      3.6011      3.7474      3.8478      3.8720      3.8268      3.7429    
  3.6573      3.5979      3.5769      3.5979      3.6573      3.7430      3.8267      3.8719      3.8478      3.7475    
  3.0580      2.8813      2.8813      3.0579      3.3358      3.6089      3.7966      3.8720      3.8561      3.7929    
  3.7273      3.6890      3.6890      3.7273      3.7929      3.8561      3.8719      3.7965      3.6090      3.3359    
  2.4515      2.3160      2.4516      2.8022      3.2339      3.6090      3.8478      3.9431      3.9361      3.8834    
  3.8344      3.8157      3.8343      3.8834      3.9361      3.9431      3.8478      3.6090      3.2339      2.8022    
  1.9660      1.9661      2.2865      2.8023      3.3359      3.7475      3.9824      4.0624      4.0471      3.9997    
  3.9665      3.9664      3.9996      4.0472      4.0624      3.9824      3.7475      3.3359      2.8022      2.2864    
  2.6237      2.7528      3.0866      3.4981      3.8565      4.0863      4.1805      4.1784      4.1333      4.0909    
  4.0746      4.0908      4.1333      4.1785      4.1806      4.0863      3.8565      3.4981      3.0866      2.7527    
  2.7528      2.9973      3.3891      3.7910      4.0953      4.2616      4.3090      4.2866      4.2446      4.2171    
  4.2171      4.2445      4.2866      4.3091      4.2615      4.0953      3.7911      3.3892      2.9972      2.7528    
  3.0866      3.3891      3.7632      4.0917      4.3061      4.3998      4.4074      4.3763      4.3455      4.3335    
  4.3454      4.3763      4.4074      4.3997      4.3060      4.0917      3.7633      3.3892      3.0866      2.9700    
  3.4981      3.7910      4.0917      4.3199      4.4457      4.4841      4.4724      4.4477      4.4315      4.4314    
  4.4477      4.4724      4.4841      4.4456      4.3198      4.0917      3.7910      3.4980      3.3154      3.3154    
  3.8565      4.0953      4.3061      4.4457      4.5103      4.5229      4.5137      4.5029      4.4986      4.5029    
  4.5138      4.5230      4.5103      4.4456      4.3061      4.0953      3.8565      3.6639      3.5897      3.6640    
  4.0863      4.2616      4.3998      4.4841      4.5229      4.5366      4.5408      4.5420      4.5419      4.5408    
  4.5366      4.5230      4.4841      4.3998      4.2616      4.0863      3.9185      3.8148      3.8149      3.9186    
  4.1805      4.3090      4.4074      4.4724      4.5137      4.5408      4.5571      4.5626      4.5570      4.5408    
  4.5137      4.4724      4.4074      4.3091      4.1806      4.0446      3.9386      3.8984      3.9386      4.0446    
  4.1784      4.2866      4.3763      4.4477      4.5029      4.5420      4.5626      4.5626      4.5419      4.5029    
  4.4477      4.3762      4.2865      4.1784      4.0624      3.9610      3.9010      3.9010      3.9609      4.0623    
  4.1333      4.2446      4.3455      4.4315      4.4986      4.5419      4.5570      4.5419      4.4986      4.4315    
  4.3454      4.2445      4.1333      4.0194      3.9165      3.8436      3.8170      3.8435      3.9165      4.0193    
  4.0909      4.2171      4.3335      4.4314      4.5029      4.5408      4.5408      4.5029      4.4315      4.3335    
  4.2171      4.0908      3.9644      3.8502      3.7622      3.7140      3.7141      3.7623      3.8502      3.9645    
  4.0746      4.2171      4.3454      4.4477      4.5138      4.5366      4.5137      4.4477      4.3454      4.2171    
  4.0747      3.9308      3.7989      3.6921      3.6224      3.5981      3.6224      3.6921      3.7989      3.9308    
  4.0908      4.2445      4.3763      4.4724      4.5230      4.5230      4.4724      4.3762      4.2445      4.0908    
  3.9308      3.7802      3.6533      3.5620      3.5142      3.5142      3.5620      3.6533      3.7801      3.9308    
  4.1333      4.2866      4.4074      4.4841      4.5103      4.4841      4.4074      4.2865      4.1333      3.9644    
  3.7989      3.6533      3.5410      3.4706      3.4466      3.4706      3.5410      3.6533      3.7988      3.9644    
  4.1785      4.3091      4.3997      4.4456      4.4456      4.3998      4.3091      4.1784      4.0194      3.8502    
  3.6921      3.5620      3.4706      3.4237      3.4237      3.4706      3.5619      3.6921      3.8502      4.0194    
  4.1806      4.2615      4.3060      4.3198      4.3061      4.2616      4.1806      4.0624      3.9165      3.7622    
  3.6224      3.5142      3.4466      3.4237      3.4466      3.5142      3.6224      3.7623      3.9166      4.0624    
  4.0863      4.0953      4.0917      4.0917      4.0953      4.0863      4.0446      3.9610      3.8436      3.7140    
  3.5981      3.5142      3.4706      3.4706      3.5142      3.5982      3.7141      3.8435      3.9609      4.0446    
  3.8565      3.7911      3.7633      3.7910      3.8565      3.9185      3.9386      3.9010      3.8170      3.7141    
  3.6224      3.5620      3.5410      3.5619      3.6224      3.7141      3.8170      3.9009      3.9386      3.9186    
  3.4981      3.3892      3.3892      3.4980      3.6639      3.8148      3.8984      3.9010      3.8435      3.7623    
  3.6921      3.6533      3.6533      3.6921      3.7623      3.8435      3.9009      3.8983      3.8149      3.6640    
  3.0866      2.9972      3.0866      3.3154      3.5897      3.8149      3.9386      3.9609      3.9165      3.8502    
  3.7989      3.7801      3.7988      3.8502      3.9166      3.9609      3.9386      3.8149      3.5898      3.3154    
  2.7527      2.7528      2.9700      3.3154      3.6640      3.9186      4.0446      4.0623      4.0193      3.9645    
  3.9308      3.9308      3.9644      4.0194      4.0624      4.0446      3.9186      3.6640      3.3154      2.9698    
  3.4087      3.4833      3.6735      3.9002      4.0838      4.1808      4.1927      4.1503      4.0926      4.0494    
  4.0337      4.0493      4.0926      4.1504      4.1927      4.1807      4.0838      3.9002      3.6734      3.4831    
  3.4833      3.6277      3.8549      4.0791      4.2344      4.2992      4.2915      4.2475      4.2024      4.1762    
  4.1761      4.2023      4.2475      4.2916      4.2992      4.2343      4.0792      3.8550      3.6276      3.4832    
  3.6735      3.8549      4.0744      4.2578      4.3639      4.3927      4.3712      4.3336      4.3044      4.2936    
  4.3043      4.3336      4.3713      4.3927      4.3638      4.2578      4.0745      3.8550      3.6734      3.6028    
  3.9002      4.0791      4.2578      4.3854      4.4452      4.4507      4.4295      4.4063      4.3926      4.3925    
  4.4063      4.4296      4.4507      4.4451      4.3853      4.2578      4.0792      3.9002      3.7872      3.7872    
  4.0838      4.2344      4.3639      4.4452      4.4780      4.4801      4.4720      4.4647      4.4619      4.4646    
  4.4721      4.4802      4.4781      4.4452      4.3639      4.2344      4.0837      3.9607      3.9132      3.9608    
  4.1808      4.2992      4.3927      4.4507      4.4801      4.4948      4.5028      4.5067      4.5067      4.5028    
  4.4948      4.4802      4.4507      4.3927      4.2993      4.1808      4.0672      3.9969      3.9970      4.0673    
  4.1927      4.2915      4.3712      4.4295      4.4720      4.5028      4.5223      4.5291      4.5222      4.5028    
  4.4721      4.4295      4.3712      4.2916      4.1927      4.0908      4.0123      3.9827      4.0124      4.0908    
  4.1503      4.2475      4.3336      4.4063      4.4647      4.5067      4.5291      4.5290      4.5067      4.4647    
  4.4063      4.3335      4.2474      4.1504      4.0510      3.9666      3.9176      3.9176      3.9666      4.0509    
  4.0926      4.2024      4.3044      4.3926      4.4619      4.5067      4.5222      4.5067      4.4619      4.3926    
  4.3043      4.2023      4.0926      3.9837      3.8884      3.8221      3.7983      3.8221      3.8884      3.9837    
  4.0494      4.1762      4.2936      4.3925      4.4646      4.5028      4.5028      4.4647      4.3926      4.2936    
  4.1762      4.0493      3.9235      3.8110      3.7253      3.6788      3.6788      3.7253      3.8110      3.9235    
  4.0337      4.1761      4.3043      4.4063      4.4721      4.4948      4.4721      4.4063      4.3043      4.1762    
  4.0337      3.8898      3.7581      3.6516      3.5822      3.5581      3.5822      3.6516      3.7581      3.8899    
  4.0493      4.2023      4.3336      4.4296      4.4802      4.4802      4.4295      4.3335      4.2023      4.0493    
  3.8898      3.7395      3.6125      3.5208      3.4728      3.4728      3.5208      3.6125      3.7394      3.8898    
  4.0926      4.2475      4.3713      4.4507      4.4781      4.4507      4.3712      4.2474      4.0926      3.9235    
  3.7581      3.6125      3.4999      3.4290      3.4049      3.4290      3.4999      3.6125      3.7580      3.9235    
  4.1504      4.2916      4.3927      4.4451      4.4452      4.3927      4.2916      4.1504      3.9837      3.8110    
  3.6516      3.5208      3.4290      3.3819      3.3819      3.4290      3.5208      3.6516      3.8110      3.9837    
  4.1927      4.2992      4.3638      4.3853      4.3639      4.2993      4.1927      4.0510      3.8884      3.7253    
  3.5822      3.4728      3.4049      3.3819      3.4048      3.4728      3.5822      3.7253      3.8884      4.0510    
  4.1807      4.2343      4.2578      4.2578      4.2344      4.1808      4.0908      3.9666      3.8221      3.6788    
  3.5581      3.4728      3.4290      3.4290      3.4728      3.5581      3.6788      3.8221      3.9666      4.0907    
  4.0838      4.0792      4.0745      4.0792      4.0837      4.0672      4.0123      3.9176      3.7983      3.6788    
  3.5822      3.5208      3.4999      3.5208      3.5822      3.6788      3.7983      3.9175      4.0123      4.0672    
  3.9002      3.8550      3.8550      3.9002      3.9607      3.9969      3.9827      3.9176      3.8221      3.7253    
  3.6516      3.6125      3.6125      3.6516      3.7253      3.8221      3.9175      3.9827      3.9970      3.9609    
  3.6734      3.6276      3.6734      3.7872      3.9132      3.9970      4.0124      3.9666      3.8884      3.8110    
  3.7581      3.7394      3.7580      3.8110      3.8884      3.9666      4.0123      3.9970      3.9132      3.7872    
  3.4831      3.4832      3.6028      3.7872      3.9608      4.0673      4.0908      4.0509      3.9837      3.9235    
  3.8899      3.8898      3.9235      3.9837      4.0510      4.0907      4.0672      3.9609      3.7872      3.6026    
  3.9837      4.0168      4.0976      4.1841      4.2354      4.2331      4.1850      4.1155      4.0514      4.0087    
  3.9937      4.0086      4.0514      4.1156      4.1850      4.2331      4.2354      4.1841      4.0975      4.0166    
  4.0168      4.0846      4.1864      4.2756      4.3186      4.3089      4.2626      4.2063      4.1612      4.1368    
  4.1367      4.1611      4.2064      4.2627      4.3088      4.3186      4.2757      4.1865      4.0846      4.0167    
  4.0976      4.1864      4.2879      4.3616      4.3875      4.3704      4.3311      4.2920      4.2655      4.2561    
  4.2654      4.2920      4.3311      4.3704      4.3874      4.3616      4.2880      4.1865      4.0976      4.0622    
  4.1841      4.2756      4.3616      4.4143      4.4272      4.4119      4.3878      4.3677      4.3569      4.3568    
  4.3677      4.3879      4.4120      4.4271      4.4142      4.3616      4.2757      4.1841      4.1247      4.1247    
  4.2354      4.3186      4.3875      4.4272      4.4399      4.4384      4.4336      4.4301      4.4289      4.4301    
  4.4336      4.4385      4.4399      4.4271      4.3874      4.3187      4.2354      4.1661      4.1391      4.1662    
  4.2331      4.3089      4.3704      4.4119      4.4384      4.4563      4.4688      4.4755      4.4754      4.4687    
  4.4564      4.4385      4.4119      4.3704      4.3089      4.2331      4.1612      4.1170      4.1171      4.1614    
  4.1850      4.2626      4.3311      4.3878      4.4336      4.4688      4.4916      4.4996      4.4915      4.4687    
  4.4336      4.3878      4.3311      4.2627      4.1850      4.1089      4.0520      4.0308      4.0521      4.1089    
  4.1155      4.2063      4.2920      4.3677      4.4301      4.4755      4.4996      4.4996      4.4754      4.4301    
  4.3677      4.2920      4.2063      4.1155      4.0281      3.9569      3.9165      3.9165      3.9569      4.0280    
  4.0514      4.1612      4.2655      4.3569      4.4289      4.4754      4.4915      4.4754      4.4289      4.3569    
  4.2654      4.1611      4.0514      3.9456      3.8557      3.7947      3.7730      3.7947      3.8556      3.9455    
  4.0087      4.1368      4.2561      4.3568      4.4301      4.4687      4.4687      4.4301      4.3569      4.2562    
  4.1368      4.0086      3.8828      3.7718      3.6882      3.6433      3.6433      3.6882      3.7718      3.8829    
  3.9937      4.1367      4.2654      4.3677      4.4336      4.4564      4.4336      4.3677      4.2654      4.1368    
  3.9937      3.8496      3.7180      3.6120      3.5432      3.5193      3.5432      3.6120      3.7180      3.8496    
  4.0086      4.1611      4.2920      4.3879      4.4385      4.4385      4.3878      4.2920      4.1611      4.0086    
  3.8496      3.6995      3.5727      3.4809      3.4328      3.4328      3.4809      3.5727      3.6995      3.8496    
  4.0514      4.2064      4.3311      4.4120      4.4399      4.4119      4.3311      4.2063      4.0514      3.8828    
  3.7180      3.5727      3.4598      3.3886      3.3643      3.3886      3.4598      3.5726      3.7179      3.8828    
  4.1156      4.2627      4.3704      4.4271      4.4271      4.3704      4.2627      4.1155      3.9456      3.7718    
  3.6120      3.4809      3.3886      3.3412      3.3411      3.3886      3.4809      3.6120      3.7718      3.9456    
  4.1850      4.3088      4.3874      4.4142      4.3874      4.3089      4.1850      4.0281      3.8557      3.6882    
  3.5432      3.4328      3.3643      3.3411      3.3643      3.4328      3.5432      3.6883      3.8557      4.0281    
  4.2331      4.3186      4.3616      4.3616      4.3187      4.2331      4.1089      3.9569      3.7947      3.6433    
  3.5193      3.4328      3.3886      3.3886      3.4328      3.5194      3.6433      3.7947      3.9569      4.1089    
  4.2354      4.2757      4.2880      4.2757      4.2354      4.1612      4.0520      3.9165      3.7730      3.6433    
  3.5432      3.4809      3.4598      3.4809      3.5432      3.6433      3.7730      3.9164      4.0520      4.1613    
  4.1841      4.1865      4.1865      4.1841      4.1661      4.1170      4.0308      3.9165      3.7947      3.6882    
  3.6120      3.5727      3.5726      3.6120      3.6883      3.7947      3.9164      4.0307      4.1171      4.1663    
  4.0975      4.0846      4.0976      4.1247      4.1391      4.1171      4.0521      3.9569      3.8556      3.7718    
  3.7180      3.6995      3.7179      3.7718      3.8557      3.9569      4.0520      4.1171      4.1392      4.1247    
  4.0166      4.0167      4.0622      4.1247      4.1662      4.1614      4.1089      4.0280      3.9455      3.8829    
  3.8496      3.8496      3.8828      3.9456      4.0281      4.1089      4.1613      4.1663      4.1247      4.0621    
  4.3170      4.3239      4.3362      4.3354      4.3058      4.2446      4.1634      4.0819      4.0163      3.9748    
  3.9606      3.9747      4.0163      4.0820      4.1635      4.2445      4.3058      4.3354      4.3361      4.3237    
  4.3239      4.3433      4.3663      4.3717      4.3472      4.2952      4.2306      4.1713      4.1279      4.1055    
  4.1054      4.1279      4.1713      4.2307      4.2952      4.3472      4.3718      4.3663      4.3433      4.3238    
  4.3362      4.3663      4.3939      4.4009      4.3807      4.3408      4.2964      4.2596      4.2362      4.2283    