Be                                      
   1.00000000000000     
     2.262760    0.000000    0.000000
     1.131380    1.959608    0.000000
     0.000000    0.000000    3.573160
   Be
     2
Direct
  0.000000  0.000000  0.000000
  0.333333  0.333333  0.500000
 
   20   20   32
 0.86482660310E+00 0.11130415798E+01 0.17611352516E+01 0.25766675795E+01 0.33180884975E+01
 0.38395617565E+01 0.41168715829E+01 0.42078416254E+01 0.41972294081E+01 0.41603052193E+01
 0.41437944566E+01 0.41603058422E+01 0.41972277635E+01 0.42078378869E+01 0.41168712968E+01
 0.38395695726E+01 0.33181011094E+01 0.25766761431E+01 0.17611353191E+01 0.11130379660E+01
 0.11130415798E+01 0.15758826484E+01 0.23269056357E+01 0.31172090925E+01 0.37482291617E+01
 0.41384751834E+01 0.43114803460E+01 0.43430732243E+01 0.43143320499E+01 0.42863984107E+01
 0.42864002596E+01 0.43143334654E+01 0.43430632258E+01 0.43114497906E+01 0.41384334832E+01
 0.37482114945E+01 0.31172541916E+01 0.23270146215E+01 0.15760009300E+01 0.11130929320E+01
 0.17611352516E+01 0.23269056357E+01 0.30382200537E+01 0.36838364990E+01 0.41366706973E+01
 0.43763872865E+01 0.44544365282E+01 0.44454249568E+01 0.44148841831E+01 0.44013460762E+01
 0.44148901702E+01 0.44454328957E+01 0.44544321392E+01 0.43763551908E+01 0.41366202830E+01
 0.36838102095E+01 0.30382583100E+01 0.23269973199E+01 0.17612135461E+01 0.15443969158E+01
 0.25766675795E+01 0.31172090925E+01 0.36838364990E+01 0.41328773794E+01 0.44063420527E+01
 0.45230881478E+01 0.45400556302E+01 0.45173752036E+01 0.44976853529E+01 0.44976866641E+01
 0.45173845406E+01 0.45400786216E+01 0.45231143076E+01 0.44063477174E+01 0.41328479232E+01
 0.36837818436E+01 0.31171544558E+01 0.25766321268E+01 0.22428929278E+01 0.22429044726E+01
 0.33180884975E+01 0.37482291617E+01 0.41366706973E+01 0.44063420527E+01 0.45461329316E+01
 0.45894447137E+01 0.45836432083E+01 0.45679744854E+01 0.45610664175E+01 0.45679663365E+01
 0.45836435702E+01 0.45894724285E+01 0.45461875311E+01 0.44063923596E+01 0.41366704896E+01
 0.37481557441E+01 0.33179723352E+01 0.29750270912E+01 0.28435467039E+01 0.29751149520E+01
 0.38395617565E+01 0.41384751834E+01 0.43763872865E+01 0.45230881478E+01 0.45894447137E+01
 0.46065827224E+01 0.46052961215E+01 0.46017241681E+01 0.46017143231E+01 0.46052703887E+01
 0.46065570384E+01 0.45894463769E+01 0.45231331346E+01 0.43764542151E+01 0.41385144217E+01
 0.38395427797E+01 0.35550298272E+01 0.33796311485E+01 0.33796587899E+01 0.35550822827E+01
 0.41168715829E+01 0.43114803460E+01 0.44544365282E+01 0.45400556302E+01 0.45836432083E+01
 0.46052961215E+01 0.46158458484E+01 0.46190863774E+01 0.46158391846E+01 0.46052683788E+01
 0.45835927583E+01 0.45400100083E+01 0.44544326272E+01 0.43115294504E+01 0.41169492759E+01
 0.39071719363E+01 0.37422090619E+01 0.36793195185E+01 0.37421712540E+01 0.39071025949E+01
 0.42078416254E+01 0.43430732243E+01 0.44454249568E+01 0.45173752036E+01 0.45679744854E+01
 0.46017241681E+01 0.46190863774E+01 0.46191009914E+01 0.46017505078E+01 0.45679758231E+01
 0.45173299457E+01 0.44453506240E+01 0.43430180847E+01 0.42078479368E+01 0.40545281213E+01
 0.39162144435E+01 0.38331517381E+01 0.38331152890E+01 0.39161322599E+01 0.40544603986E+01
 0.41972294081E+01 0.43143320499E+01 0.44148841831E+01 0.44976853529E+01 0.45610664175E+01
 0.46017143231E+01 0.46158391846E+01 0.46017505078E+01 0.45611234483E+01 0.44977310390E+01
 0.44148838353E+01 0.43142782710E+01 0.41971559670E+01 0.40699691845E+01 0.39500395269E+01
 0.38624977824E+01 0.38302138723E+01 0.38624794760E+01 0.39500390312E+01 0.40700141585E+01
 0.41603052193E+01 0.42863984107E+01 0.44013460762E+01 0.44976866641E+01 0.45679663365E+01
 0.46052703887E+01 0.46052683788E+01 0.45679758231E+01 0.44977310390E+01 0.44014174754E+01
 0.42864542198E+01 0.41603068104E+01 0.40319096638E+01 0.39131723544E+01 0.38197145872E+01
 0.37677461839E+01 0.37677644526E+01 0.38197666461E+01 0.39132420133E+01 0.40319612297E+01
 0.41437944566E+01 0.42864002596E+01 0.44148901702E+01 0.45173845406E+01 0.45836435702E+01
 0.46065570384E+01 0.45835927583E+01 0.45173299457E+01 0.44148838353E+01 0.42864542198E+01
 0.41438724369E+01 0.39997678602E+01 0.38673096763E+01 0.37598062391E+01 0.36894037015E+01
 0.36648728369E+01 0.36894418931E+01 0.37598488097E+01 0.38673143646E+01 0.39997180713E+01
 0.41603058422E+01 0.43143334654E+01 0.44454328957E+01 0.45400786216E+01 0.45894724285E+01
 0.45894463769E+01 0.45400100083E+01 0.44453506240E+01 0.43142782710E+01 0.41603068104E+01
 0.39997678602E+01 0.38488847786E+01 0.37221981407E+01 0.36312304277E+01 0.35837972671E+01
 0.35837997505E+01 0.36312242788E+01 0.37221618807E+01 0.38488229472E+01 0.39997172036E+01
 0.41972277635E+01 0.43430632258E+01 0.44544321392E+01 0.45231143076E+01 0.45461875311E+01
 0.45231331346E+01 0.44544326272E+01 0.43430180847E+01 0.41971559670E+01 0.40319096638E+01
 0.38673096763E+01 0.37221981407E+01 0.36102949042E+01 0.35402798760E+01 0.35165124167E+01
 0.35402554883E+01 0.36102523089E+01 0.37221602483E+01 0.38673096922E+01 0.40319601274E+01
 0.42078378869E+01 0.43114497906E+01 0.43763551908E+01 0.44063477174E+01 0.44063923596E+01
 0.43764542151E+01 0.43115294504E+01 0.42078479368E+01 0.40699691845E+01 0.39131723544E+01
 0.37598062391E+01 0.36312304277E+01 0.35402798760E+01 0.34935189384E+01 0.34935093150E+01
 0.35402616661E+01 0.36312289281E+01 0.37598418405E+01 0.39132369438E+01 0.40700204871E+01
 0.41168712968E+01 0.41384334832E+01 0.41366202830E+01 0.41328479232E+01 0.41366704896E+01
 0.41385144217E+01 0.41169492759E+01 0.40545281213E+01 0.39500395269E+01 0.38197145872E+01
 0.36894037015E+01 0.35837972671E+01 0.35165124167E+01 0.34935093150E+01 0.35165168751E+01
 0.35838171747E+01 0.36894418913E+01 0.38197519527E+01 0.39500454857E+01 0.40544860291E+01
 0.38395695726E+01 0.37482114945E+01 0.36838102095E+01 0.36837818436E+01 0.37481557441E+01
 0.38395427797E+01 0.39071719363E+01 0.39162144435E+01 0.38624977824E+01 0.37677461839E+01
 0.36648728369E+01 0.35837997505E+01 0.35402554883E+01 0.35402616661E+01 0.35838171747E+01
 0.36648917821E+01 0.37677448248E+01 0.38624612879E+01 0.39161606110E+01 0.39071449488E+01
 0.33181011094E+01 0.31172541916E+01 0.30382583100E+01 0.31171544558E+01 0.33179723352E+01
 0.35550298272E+01 0.37422090619E+01 0.38331517381E+01 0.38302138723E+01 0.37677644526E+01
 0.36894418931E+01 0.36312242788E+01 0.36102523089E+01 0.36312289281E+01 0.36894418913E+01
 0.37677448248E+01 0.38301693523E+01 0.38331058763E+01 0.37422094741E+01 0.35551079784E+01
 0.25766761431E+01 0.23270146215E+01 0.23269973199E+01 0.25766321268E+01 0.29750270912E+01
 0.33796311485E+01 0.36793195185E+01 0.38331152890E+01 0.38624794760E+01 0.38197666461E+01
 0.37598488097E+01 0.37221618807E+01 0.37221602483E+01 0.37598418405E+01 0.38197519527E+01
 0.38624612879E+01 0.38331058763E+01 0.36793318713E+01 0.33796685271E+01 0.29750782507E+01
 0.17611353191E+01 0.15760009300E+01 0.17612135461E+01 0.22428929278E+01 0.28435467039E+01
 0.33796587899E+01 0.37421712540E+01 0.39161322599E+01 0.39500390312E+01 0.39132420133E+01
 0.38673143646E+01 0.38488229472E+01 0.38673096922E+01 0.39132369438E+01 0.39500454857E+01
 0.39161606110E+01 0.37422094741E+01 0.33796685271E+01 0.28434955702E+01 0.22427963147E+01
 0.11130379660E+01 0.11130929320E+01 0.15443969158E+01 0.22429044726E+01 0.29751149520E+01
 0.35550822827E+01 0.39071025949E+01 0.40544603986E+01 0.40700141585E+01 0.40319612297E+01
 0.39997180713E+01 0.39997172036E+01 0.40319601274E+01 0.40700204871E+01 0.40544860291E+01
 0.39071449488E+01 0.35551079784E+01 0.29750782507E+01 0.22427963147E+01 0.15442729022E+01
 0.11170745580E+01 0.13483511120E+01 0.19517089375E+01 0.27097149450E+01 0.33966511415E+01
 0.38766167330E+01 0.41277839380E+01 0.42052984040E+01 0.41894932094E+01 0.41515466458E+01
 0.41350030702E+01 0.41515093926E+01 0.41894916331E+01 0.42053369889E+01 0.41277962957E+01
 0.38766004037E+01 0.33966631536E+01 0.27097394479E+01 0.19516765639E+01 0.13482864675E+01
 0.13483511120E+01 0.17801272345E+01 0.24800346127E+01 0.32150904168E+01 0.37996584003E+01
 0.41579877277E+01 0.43129604968E+01 0.43365759722E+01 0.43056168241E+01 0.42776185144E+01
 0.42775924491E+01 0.43055880694E+01 0.43365896264E+01 0.43129596415E+01 0.41579300987E+01
 0.37996248287E+01 0.32151618891E+01 0.24801563584E+01 0.17802010478E+01 0.13483677936E+01
 0.19517089375E+01 0.24800346127E+01 0.31434132104E+01 0.37439638961E+01 0.41628769112E+01
 0.43816786454E+01 0.44494379554E+01 0.44369383558E+01 0.44061240544E+01 0.43927288506E+01
 0.44060928930E+01 0.44369416297E+01 0.44494611842E+01 0.43816387576E+01 0.41627891021E+01
 0.37439455468E+01 0.31435030407E+01 0.24801437352E+01 0.19517628177E+01 0.17491858964E+01
 0.27097149450E+01 0.32150904168E+01 0.37439638961E+01 0.41616235621E+01 0.44139775382E+01
 0.45193363391E+01 0.45318855395E+01 0.45086246589E+01 0.44893132177E+01 0.44892937461E+01
 0.45086146832E+01 0.45319302313E+01 0.45193751041E+01 0.44139442649E+01 0.41615608444E+01
 0.37439390147E+01 0.32150833176E+01 0.27096848160E+01 0.23973832486E+01 0.23974052843E+01
 0.33966511415E+01 0.37996584003E+01 0.41628769112E+01 0.44139775382E+01 0.45428679455E+01
 0.45814998219E+01 0.45748932686E+01 0.45597959566E+01 0.45531931718E+01 0.45597663139E+01
 0.45749030846E+01 0.45815617021E+01 0.45429196986E+01 0.44139878308E+01 0.41628631110E+01
 0.37996076555E+01 0.33965402269E+01 0.30748871301E+01 0.29515366941E+01 0.30749954413E+01
 0.38766167330E+01 0.41579877277E+01 0.43816786454E+01 0.45193363391E+01 0.45814998219E+01
 0.45978346709E+01 0.45972171499E+01 0.45942473232E+01 0.45942219575E+01 0.45971787032E+01
 0.45978340065E+01 0.45815309959E+01 0.45193759611E+01 0.43817286845E+01 0.41580282735E+01
 0.38765918518E+01 0.36085818730E+01 0.34433230740E+01 0.34433738237E+01 0.36086688752E+01
 0.41277839380E+01 0.43129604968E+01 0.44494379554E+01 0.45318855395E+01 0.45748932686E+01
 0.45972171499E+01 0.46085138191E+01 0.46120462585E+01 0.46084823631E+01 0.45971814007E+01
 0.45748610769E+01 0.45318535537E+01 0.44494354051E+01 0.43130190226E+01 0.41278709141E+01
 0.39285281984E+01 0.37718812615E+01 0.37121981125E+01 0.37718767720E+01 0.39284785036E+01
 0.42052984040E+01 0.43365759722E+01 0.44369383558E+01 0.45086246589E+01 0.45597959566E+01
 0.45942473232E+01 0.46120462585E+01 0.46120475612E+01 0.45942521868E+01 0.45597900745E+01
 0.45085784147E+01 0.44368590458E+01 0.43365268734E+01 0.42053290457E+01 0.40573414995E+01
 0.39242422881E+01 0.38444417050E+01 0.38444146075E+01 0.39241676846E+01 0.40572567618E+01
 0.41894932094E+01 0.43056168241E+01 0.44061240544E+01 0.44893132177E+01 0.45531931718E+01
 0.45942219575E+01 0.46084823631E+01 0.45942521868E+01 0.45532472798E+01 0.44893545573E+01
 0.44061069326E+01 0.43055445325E+01 0.41894227175E+01 0.40642316597E+01 0.39467755953E+01
 0.38613033593E+01 0.38298293765E+01 0.38612803910E+01 0.39467562905E+01 0.40642536202E+01
 0.41515466458E+01 0.42776185144E+01 0.43927288506E+01 0.44892937461E+01 0.45597663139E+01
 0.45971787032E+01 0.45971814007E+01 0.45597900745E+01 0.44893545573E+01 0.43928019169E+01
 0.42776556316E+01 0.41515267631E+01 0.40234717617E+01 0.39054578530E+01 0.38128337463E+01
 0.37614206416E+01 0.37614365509E+01 0.38128778954E+01 0.39055193758E+01 0.40235287263E+01
 0.41350030702E+01 0.42775924491E+01 0.44060928930E+01 0.45086146832E+01 0.45749030846E+01
 0.45978340065E+01 0.45748610769E+01 0.45085784147E+01 0.44061069326E+01 0.42776556316E+01
 0.41350745906E+01 0.39910155754E+01 0.38586559666E+01 0.37512831943E+01 0.36809966338E+01
 0.36565169627E+01 0.36810392524E+01 0.37513338101E+01 0.38586727870E+01 0.39909797217E+01
 0.41515093926E+01 0.43055880694E+01 0.44369416297E+01 0.45319302313E+01 0.45815617021E+01
 0.45815309959E+01 0.45318535537E+01 0.44368590458E+01 0.43055445325E+01 0.41515267631E+01
 0.39910155754E+01 0.38401624965E+01 0.37134760167E+01 0.36224833471E+01 0.35750282612E+01
 0.35750353549E+01 0.36224885381E+01 0.37134509020E+01 0.38401032599E+01 0.39909552561E+01
 0.41894916331E+01 0.43365896264E+01 0.44494611842E+01 0.45193751041E+01 0.45429196986E+01
 0.45193759611E+01 0.44494354051E+01 0.43365268734E+01 0.41894227175E+01 0.40234717617E+01
 0.38586559666E+01 0.37134760167E+01 0.36015421813E+01 0.35315038983E+01 0.35077268236E+01
 0.35314817230E+01 0.36015018464E+01 0.37134335709E+01 0.38586403234E+01 0.40235045595E+01
 0.42053369889E+01 0.43129596415E+01 0.43816387576E+01 0.44139442649E+01 0.44139878308E+01
 0.43817286845E+01 0.43130190226E+01 0.42053290457E+01 0.40642316597E+01 0.39054578530E+01
 0.37512831943E+01 0.36224833471E+01 0.35315038983E+01 0.34847588520E+01 0.34847446265E+01
 0.35314776079E+01 0.36224762697E+01 0.37513121303E+01 0.39055145297E+01 0.40642853513E+01
 0.41277962957E+01 0.41579300987E+01 0.41627891021E+01 0.41615608444E+01 0.41628631110E+01
 0.41580282735E+01 0.41278709141E+01 0.40573414995E+01 0.39467755953E+01 0.38128337463E+01
 0.36809966338E+01 0.35750282612E+01 0.35077268236E+01 0.34847446265E+01 0.35077182378E+01
 0.35750424525E+01 0.36810424273E+01 0.38128793896E+01 0.39467872906E+01 0.40573087014E+01
 0.38766004037E+01 0.37996248287E+01 0.37439455468E+01 0.37439390147E+01 0.37996076555E+01
 0.38765918518E+01 0.39285281984E+01 0.39242422881E+01 0.38613033593E+01 0.37614206416E+01
 0.36565169627E+01 0.35750353549E+01 0.35314817230E+01 0.35314776079E+01 0.35750424525E+01
 0.36565486590E+01 0.37614393392E+01 0.38612716630E+01 0.39241856406E+01 0.39284993720E+01
 0.33966631536E+01 0.32151618891E+01 0.31435030407E+01 0.32150833176E+01 0.33965402269E+01
 0.36085818730E+01 0.37718812615E+01 0.38444417050E+01 0.38298293765E+01 0.37614365509E+01
 0.36810392524E+01 0.36224885381E+01 0.36015018464E+01 0.36224762697E+01 0.36810424273E+01
 0.37614393392E+01 0.38297871947E+01 0.38443755389E+01 0.37718754593E+01 0.36086707547E+01
 0.27097394479E+01 0.24801563584E+01 0.24801437352E+01 0.27096848160E+01 0.30748871301E+01
 0.34433230740E+01 0.37121981125E+01 0.38444146075E+01 0.38612803910E+01 0.38128778954E+01
 0.37513338101E+01 0.37134509020E+01 0.37134335709E+01 0.37513121303E+01 0.38128793896E+01
 0.38612716630E+01 0.38443755389E+01 0.37121847788E+01 0.34433838305E+01 0.30749787314E+01
 0.19516765639E+01 0.17802010478E+01 0.19517628177E+01 0.23973832486E+01 0.29515366941E+01
 0.34433738237E+01 0.37718767720E+01 0.39241676846E+01 0.39467562905E+01 0.39055193758E+01
 0.38586727870E+01 0.38401032599E+01 0.38586403234E+01 0.39055145297E+01 0.39467872906E+01
 0.39241856406E+01 0.37718754593E+01 0.34433838305E+01 0.29515319115E+01 0.23973142885E+01
 0.13482864675E+01 0.13483677936E+01 0.17491858964E+01 0.23974052843E+01 0.30749954413E+01
 0.36086688752E+01 0.39284785036E+01 0.40572567618E+01 0.40642536202E+01 0.40235287263E+01
 0.39909797217E+01 0.39909552561E+01 0.40235045595E+01 0.40642853513E+01 0.40573087014E+01
 0.39284993720E+01 0.36086707547E+01 0.30749787314E+01 0.23973142885E+01 0.17490318028E+01
 0.17795278915E+01 0.19661000546E+01 0.24515576496E+01 0.30579535313E+01 0.36012207193E+01
 0.39717276820E+01 0.41540776560E+01 0.41963764566E+01 0.41672372125E+01 0.41269244994E+01
 0.41104052167E+01 0.41268553404E+01 0.41672358406E+01 0.41964508800E+01 0.41541004451E+01
 0.39716901308E+01 0.36012310722E+01 0.30579907655E+01 0.24514979925E+01 0.19659843253E+01
 0.19661000546E+01 0.23159720172E+01 0.28811602308E+01 0.34705394924E+01 0.39325627782E+01
 0.42067666414E+01 0.43144100071E+01 0.43173481284E+01 0.42809661385E+01 0.42530011897E+01
 0.42529511267E+01 0.42809113102E+01 0.43173825465E+01 0.43144374219E+01 0.42066999548E+01
 0.39325178120E+01 0.34706294604E+01 0.28812833458E+01 0.23159981501E+01 0.19660830888E+01
 0.24515576496E+01 0.28811602308E+01 0.34181216501E+01 0.38997477087E+01 0.42291717617E+01
 0.43929807074E+01 0.44339564040E+01 0.44126979721E+01 0.43814891432E+01 0.43685909857E+01
 0.43814254765E+01 0.44126961676E+01 0.44340036532E+01 0.43929378478E+01 0.42290573473E+01
 0.38997383821E+01 0.34182514796E+01 0.28812760156E+01 0.24515841616E+01 0.22865440867E+01
 0.30579535313E+01 0.34705394924E+01 0.38997477087E+01 0.42345673143E+01 0.44313459022E+01
 0.45069987077E+01 0.45083401580E+01 0.44839512875E+01 0.44657894846E+01 0.44657522036E+01
 0.44839239367E+01 0.45084010833E+01 0.45070458731E+01 0.44312791298E+01 0.42344786721E+01
 0.38997522428E+01 0.34705769714E+01 0.30579308751E+01 0.28022300899E+01 0.28022599917E+01
 0.36012207193E+01 0.39325627782E+01 0.42291717617E+01 0.44313459022E+01 0.45317617401E+01
 0.45584753276E+01 0.45501778796E+01 0.45367413923E+01 0.45310274832E+01 0.45366946625E+01
 0.45501959527E+01 0.45585634813E+01 0.45318057026E+01 0.44313173589E+01 0.42291461914E+01
 0.39325375680E+01 0.36011243688E+01 0.33357607205E+01 0.32338747674E+01 0.33358786978E+01
 0.39717276820E+01 0.42067666414E+01 0.43929807074E+01 0.45069987077E+01 0.45584753276E+01
 0.45731021626E+01 0.45743979554E+01 0.45731057442E+01 0.45730684660E+01 0.45743516792E+01
 0.45731251840E+01 0.45585309950E+01 0.45070294750E+01 0.43930107655E+01 0.42068054896E+01
 0.39716999887E+01 0.37473631579E+01 0.36089231651E+01 0.36089910774E+01 0.37474746729E+01
 0.41540776560E+01 0.43144100071E+01 0.44339564040E+01 0.45083401580E+01 0.45501778796E+01
 0.45743979554E+01 0.45877417743E+01 0.45920973979E+01 0.45876901358E+01 0.45743580998E+01
 0.45501656256E+01 0.45083236911E+01 0.44339555951E+01 0.43144728649E+01 0.41541663408E+01
 0.39824264204E+01 0.38478023833E+01 0.37965818161E+01 0.38478295198E+01 0.39823992195E+01
 0.41963764566E+01 0.43173481284E+01 0.44126979721E+01 0.44839512875E+01 0.45367413923E+01
 0.45731057442E+01 0.45920973979E+01 0.45920858658E+01 0.45730896401E+01 0.45367291470E+01
 0.44839083360E+01 0.44126210703E+01 0.43173089714E+01 0.41964270995E+01 0.40624646107E+01
 0.39431566653E+01 0.38719890129E+01 0.38719732460E+01 0.39430960767E+01 0.40623716129E+01
 0.41672372125E+01 0.42809661385E+01 0.43814891432E+01 0.44657894846E+01 0.45310274832E+01
 0.45730684660E+01 0.45876901358E+01 0.45730896401E+01 0.45310735703E+01 0.44658233666E+01
 0.43814581048E+01 0.42808825501E+01 0.41671750150E+01 0.40470986635E+01 0.39361098633E+01
 0.38560922186E+01 0.38267582138E+01 0.38560672826E+01 0.39360751499E+01 0.40470977376E+01
 0.41269244994E+01 0.42530011897E+01 0.43685909857E+01 0.44657522036E+01 0.45366946625E+01
 0.45743516792E+01 0.45743580998E+01 0.45367291470E+01 0.44658233666E+01 0.43686598431E+01
 0.42530175413E+01 0.41268857808E+01 0.39996278356E+01 0.38833884690E+01 0.37928924000E+01
 0.37429176932E+01 0.37429300741E+01 0.37929252729E+01 0.38834368330E+01 0.39996850196E+01
 0.41104052167E+01 0.42529511267E+01 0.43814254765E+01 0.44839239367E+01 0.45501959527E+01
 0.45731251840E+01 0.45501656256E+01 0.44839083360E+01 0.43814581048E+01 0.42530175413E+01
 0.41104640322E+01 0.39665063614E+01 0.38343623670E+01 0.37272885717E+01 0.36572726920E+01
 0.36329041180E+01 0.36573156838E+01 0.37273415900E+01 0.38343880777E+01 0.39664864631E+01
 0.41268553404E+01 0.42809113102E+01 0.44126961676E+01 0.45084010833E+01 0.45585634813E+01
 0.45585309950E+01 0.45083236911E+01 0.44126210703E+01 0.42808825501E+01 0.41268857808E+01
 0.39665063614E+01 0.38157368392E+01 0.36890121503E+01 0.35978981306E+01 0.35503429314E+01
 0.35503540881E+01 0.35979136753E+01 0.36889987880E+01 0.38156843162E+01 0.39664425796E+01
 0.41672358406E+01 0.43173825465E+01 0.44340036532E+01 0.45070458731E+01 0.45318057026E+01
 0.45070294750E+01 0.44339555951E+01 0.43173089714E+01 0.41671750150E+01 0.39996278356E+01
 0.38343623670E+01 0.36890121503E+01 0.35769512078E+01 0.35067929106E+01 0.34829650093E+01
 0.35067759331E+01 0.35769170450E+01 0.36889686249E+01 0.38343333807E+01 0.39996421523E+01
 0.41964508800E+01 0.43144374219E+01 0.43929378478E+01 0.44312791298E+01 0.44313173589E+01
 0.43930107655E+01 0.43144728649E+01 0.41964270995E+01 0.40470986635E+01 0.38833884690E+01
 0.37272885717E+01 0.35978981306E+01 0.35067929106E+01 0.34600522924E+01 0.34600358256E+01
 0.35067625929E+01 0.35978865953E+01 0.37273084357E+01 0.38834331497E+01 0.40471503306E+01
 0.41541004451E+01 0.42066999548E+01 0.42290573473E+01 0.42344786721E+01 0.42291461914E+01
 0.42068054896E+01 0.41541663408E+01 0.40624646107E+01 0.39361098633E+01 0.37928924000E+01
 0.36572726920E+01 0.35503429314E+01 0.34829650093E+01 0.34600358256E+01 0.34829455977E+01
 0.35503505698E+01 0.36573209943E+01 0.37929416315E+01 0.39361260401E+01 0.40624427516E+01
 0.39716901308E+01 0.39325178120E+01 0.38997383821E+01 0.38997522428E+01 0.39325375680E+01
 0.39716999887E+01 0.39824264204E+01 0.39431566653E+01 0.38560922186E+01 0.37429176932E+01
 0.36329041180E+01 0.35503540881E+01 0.35067759331E+01 0.35067625929E+01 0.35503505698E+01
 0.36329440815E+01 0.37429530796E+01 0.38560681856E+01 0.39431023614E+01 0.39823974318E+01
 0.36012310722E+01 0.34706294604E+01 0.34182514796E+01 0.34705769714E+01 0.36011243688E+01
 0.37473631579E+01 0.38478023833E+01 0.38719890129E+01 0.38267582138E+01 0.37429300741E+01
 0.36573156838E+01 0.35979136753E+01 0.35769170450E+01 0.35978865953E+01 0.36573209943E+01
 0.37429530796E+01 0.38267224367E+01 0.38719106965E+01 0.38477914703E+01 0.37474537468E+01
 0.30579907655E+01 0.28812833458E+01 0.28812760156E+01 0.30579308751E+01 0.33357607205E+01
 0.36089231651E+01 0.37965818161E+01 0.38719732460E+01 0.38560672826E+01 0.37929252729E+01
 0.37273415900E+01 0.36889987880E+01 0.36889686249E+01 0.37273084357E+01 0.37929416315E+01
 0.38560681856E+01 0.38719106965E+01 0.37965465320E+01 0.36090005637E+01 0.33358818607E+01
 0.24514979925E+01 0.23159981501E+01 0.24515841616E+01 0.28022300899E+01 0.32338747674E+01
 0.36089910774E+01 0.38478295198E+01 0.39430960767E+01 0.39360751499E+01 0.38834368330E+01
 0.38343880777E+01 0.38156843162E+01 0.38343333807E+01 0.38834331497E+01 0.39361260401E+01
 0.39431023614E+01 0.38477914703E+01 0.36090005637E+01 0.32339135010E+01 0.28021928205E+01
 0.19659843253E+01 0.19660830888E+01 0.22865440867E+01 0.28022599917E+01 0.33358786978E+01
 0.37474746729E+01 0.39823992195E+01 0.40623716129E+01 0.40470977376E+01 0.39996850196E+01
 0.39664864631E+01 0.39664425796E+01 0.39996421523E+01 0.40471503306E+01 0.40624427516E+01
 0.39823974318E+01 0.37474537468E+01 0.33358818607E+01 0.28021928205E+01 0.22863754127E+01
 0.26237421612E+01 0.27528074156E+01 0.30866450995E+01 0.34980577012E+01 0.38565296368E+01
 0.40863244528E+01 0.41805347417E+01 0.41783749597E+01 0.41333226674E+01 0.40908998205E+01
 0.40746305052E+01 0.40908091930E+01 0.41333216086E+01 0.41784737196E+01 0.41805643127E+01
 0.40862716673E+01 0.38565376567E+01 0.34981027834E+01 0.30865671160E+01 0.27526576224E+01
 0.27528074156E+01 0.29972591025E+01 0.33890649296E+01 0.37909562700E+01 0.40953228752E+01
 0.42615610385E+01 0.43090338458E+01 0.42865656660E+01 0.42445941987E+01 0.42171452565E+01
 0.42170783651E+01 0.42445207416E+01 0.42866145249E+01 0.43090833573E+01 0.42614926787E+01
 0.40952724836E+01 0.37910550165E+01 0.33891790335E+01 0.29972419792E+01 0.27527628797E+01
 0.30866450995E+01 0.33890649296E+01 0.37631844389E+01 0.40916836944E+01 0.43061102173E+01
 0.43997572940E+01 0.44073784794E+01 0.43762952963E+01 0.43454729240E+01 0.43334614671E+01
 0.43453858320E+01 0.43762885990E+01 0.44074425163E+01 0.43997160585E+01 0.43059830687E+01
 0.40916832341E+01 0.37633378380E+01 0.33891765017E+01 0.30866455557E+01 0.29699652780E+01
 0.34980577012E+01 0.37909562700E+01 0.40916836944E+01 0.43199222456E+01 0.44456509537E+01
 0.44840694062E+01 0.44723763593E+01 0.44477079391E+01 0.44314514172E+01 0.44314017712E+01
 0.44476678067E+01 0.44724464621E+01 0.44841202275E+01 0.44455608656E+01 0.43198183229E+01
 0.40917128591E+01 0.37910287297E+01 0.34980430388E+01 0.33153785785E+01 0.33154129332E+01
 0.38565296368E+01 0.40953228752E+01 0.43061102173E+01 0.44456509537E+01 0.45102801946E+01
 0.45229366204E+01 0.45137309446E+01 0.45029428361E+01 0.44985611973E+01 0.45028856331E+01
 0.45137553072E+01 0.45230405245E+01 0.45103134006E+01 0.44455904116E+01 0.43060760953E+01
 0.40953218333E+01 0.38564539887E+01 0.36638621685E+01 0.35897257305E+01 0.36639787138E+01
 0.40863244528E+01 0.42615610385E+01 0.43997572940E+01 0.44840694062E+01 0.45229366204E+01
 0.45365736497E+01 0.45408418763E+01 0.45419764793E+01 0.45419321340E+01 0.45407931008E+01
 0.45366156704E+01 0.45230086723E+01 0.44840892075E+01 0.43997671646E+01 0.42615956845E+01
 0.40862974236E+01 0.39185177457E+01 0.38148436193E+01 0.38149207091E+01 0.39186408405E+01
 0.41805347417E+01 0.43090338458E+01 0.44073784794E+01 0.44723763593E+01 0.45137309446E+01
 0.45408418763E+01 0.45570827500E+01 0.45625890161E+01 0.45570175751E+01 0.45408016440E+01
 0.45137370390E+01 0.44723744903E+01 0.44073790385E+01 0.43090957385E+01 0.41806184793E+01
 0.40445890941E+01 0.39385711916E+01 0.38983505268E+01 0.39386236556E+01 0.40445832344E+01
 0.41783749597E+01 0.42865656660E+01 0.43762952963E+01 0.44477079391E+01 0.45029428361E+01
 0.45419764793E+01 0.45625890161E+01 0.45625667332E+01 0.45419426657E+01 0.45029260397E+01
 0.44476717975E+01 0.43762269451E+01 0.42865384491E+01 0.41784391267E+01 0.40624035058E+01
 0.39609527462E+01 0.39010209434E+01 0.39010168567E+01 0.39609101409E+01 0.40623110786E+01
 0.41333226674E+01 0.42445941987E+01 0.43454729240E+01 0.44314514172E+01 0.44985611973E+01
 0.45419321340E+01 0.45570175751E+01 0.45419426657E+01 0.44985961675E+01 0.44314767913E+01
 0.43454328972E+01 0.42445074513E+01 0.41332725661E+01 0.40193640194E+01 0.39165485697E+01
 0.38435536215E+01 0.38169944854E+01 0.38435301915E+01 0.39165042160E+01 0.40193434599E+01
 0.40908998205E+01 0.42171452565E+01 0.43334614671E+01 0.44314017712E+01 0.45028856331E+01
 0.45407931008E+01 0.45408016440E+01 0.45029260397E+01 0.44314767913E+01 0.43335218554E+01
 0.42171418396E+01 0.40908471990E+01 0.39644444936E+01 0.38501772963E+01 0.37622358262E+01
 0.37140452424E+01 0.37140540376E+01 0.37622567450E+01 0.38502099449E+01 0.39644969915E+01
 0.40746305052E+01 0.42170783651E+01 0.43453858320E+01 0.44476678067E+01 0.45137553072E+01
 0.45366156704E+01 0.45137370390E+01 0.44476717975E+01 0.43454328972E+01 0.42171418396E+01
 0.40746721651E+01 0.39308117345E+01 0.37988667199E+01 0.36920953398E+01 0.36223698177E+01
 0.35981215739E+01 0.36224098066E+01 0.36921451962E+01 0.37988966195E+01 0.39308073856E+01
 0.40908091930E+01 0.42445207416E+01 0.43762885990E+01 0.44724464621E+01 0.45230405245E+01
 0.45230086723E+01 0.44723744903E+01 0.43762269451E+01 0.42445074513E+01 0.40908471990E+01
 0.39308117345E+01 0.37801887125E+01 0.36533448996E+01 0.35619607663E+01 0.35141938811E+01
 0.35142080850E+01 0.35619840348E+01 0.36533413542E+01 0.37801452114E+01 0.39307510814E+01
 0.41333216086E+01 0.42866145249E+01 0.44074425163E+01 0.44841202275E+01 0.45103134006E+01
 0.44840892075E+01 0.44073790385E+01 0.42865384491E+01 0.41332725661E+01 0.39644444936E+01
 0.37988667199E+01 0.36533448996E+01 0.35410244647E+01 0.34705816074E+01 0.34466308227E+01
 0.34705719417E+01 0.35409987909E+01 0.36533029977E+01 0.37988284351E+01 0.39644426994E+01
 0.41784737196E+01 0.43090833573E+01 0.43997160585E+01 0.44455608656E+01 0.44455904116E+01
 0.43997671646E+01 0.43090957385E+01 0.41784391267E+01 0.40193640194E+01 0.38501772963E+01
 0.36920953398E+01 0.35619607663E+01 0.34705816074E+01 0.34237453993E+01 0.34237295808E+01
 0.34705521063E+01 0.35619464225E+01 0.36921051522E+01 0.38502083134E+01 0.40194099770E+01
 0.41805643127E+01 0.42614926787E+01 0.43059830687E+01 0.43198183229E+01 0.43060760953E+01
 0.42615956845E+01 0.41806184793E+01 0.40624035058E+01 0.39165485697E+01 0.37622358262E+01
 0.36223698177E+01 0.35141938811E+01 0.34466308227E+01 0.34237295808E+01 0.34466050542E+01
 0.35141957070E+01 0.36224155457E+01 0.37622839711E+01 0.39165678424E+01 0.40623923810E+01
 0.40862716673E+01 0.40952724836E+01 0.40916832341E+01 0.40917128591E+01 0.40953218333E+01
 0.40862974236E+01 0.40445890941E+01 0.39609527462E+01 0.38435536215E+01 0.37140452424E+01
 0.35981215739E+01 0.35142080850E+01 0.34705719417E+01 0.34705521063E+01 0.35141957070E+01
 0.35981642013E+01 0.37140913593E+01 0.38435390062E+01 0.39609056570E+01 0.40445615353E+01
 0.38565376567E+01 0.37910550165E+01 0.37633378380E+01 0.37910287297E+01 0.38564539887E+01
 0.39185177457E+01 0.39385711916E+01 0.39010209434E+01 0.38169944854E+01 0.37140540376E+01
 0.36224098066E+01 0.35619840348E+01 0.35409987909E+01 0.35619464225E+01 0.36224155457E+01
 0.37140913593E+01 0.38169675549E+01 0.39009401392E+01 0.39385572361E+01 0.39186015233E+01
 0.34981027834E+01 0.33891790335E+01 0.33891765017E+01 0.34980430388E+01 0.36638621685E+01
 0.38148436193E+01 0.38983505268E+01 0.39010168567E+01 0.38435301915E+01 0.37622567450E+01
 0.36921451962E+01 0.36533413542E+01 0.36533029977E+01 0.36921051522E+01 0.37622839711E+01
 0.38435390062E+01 0.39009401392E+01 0.38983001813E+01 0.38149287348E+01 0.36639982238E+01
 0.30865671160E+01 0.29972419792E+01 0.30866455557E+01 0.33153785785E+01 0.35897257305E+01
 0.38149207091E+01 0.39386236556E+01 0.39609101409E+01 0.39165042160E+01 0.38502099449E+01
 0.37988966195E+01 0.37801452114E+01 0.37988284351E+01 0.38502083134E+01 0.39165678424E+01
 0.39609056570E+01 0.39385572361E+01 0.38149287348E+01 0.35897982154E+01 0.33153717359E+01
 0.27526576224E+01 0.27527628797E+01 0.29699652780E+01 0.33154129332E+01 0.36639787138E+01
 0.39186408405E+01 0.40445832344E+01 0.40623110786E+01 0.40193434599E+01 0.39644969915E+01
 0.39308073856E+01 0.39307510814E+01 0.39644426994E+01 0.40194099770E+01 0.40623923810E+01
 0.40445615353E+01 0.39186015233E+01 0.36639982238E+01 0.33153717359E+01 0.29697984926E+01
 0.34087222660E+01 0.34832814114E+01 0.36734578255E+01 0.39001848680E+01 0.40837719166E+01
 0.41807928121E+01 0.41926525040E+01 0.41502804698E+01 0.40925880156E+01 0.40493845563E+01
 0.40336778432E+01 0.40492846361E+01 0.40925872834E+01 0.41503901277E+01 0.41926850454E+01
 0.41807325914E+01 0.40837774576E+01 0.39002323051E+01 0.36733719641E+01 0.34831174244E+01
 0.34832814114E+01 0.36276512552E+01 0.38549307551E+01 0.40790775572E+01 0.42343552053E+01
 0.42992486495E+01 0.42914980195E+01 0.42474584406E+01 0.42024106616E+01 0.41761793353E+01