   2   2   0   0
  0.7921913E+01  0.2262760E-09  0.2262760E-09  0.3573160E-09  0.5000000E-15
  1.000000000000000E-004
  CAR 
 Be                                      
    123.03917047    -10.39634821  301      7.32091501      1.00000000
    -10.396  0.0000E+00  0.0000E+00
     -9.952  0.0000E+00  0.0000E+00
     -9.507  0.0000E+00  0.0000E+00
     -9.062  0.0000E+00  0.0000E+00
     -8.617  0.0000E+00  0.0000E+00
     -8.172  0.0000E+00  0.0000E+00
     -7.728  0.0000E+00  0.0000E+00
     -7.283  0.0000E+00  0.0000E+00
     -6.838  0.0000E+00  0.0000E+00
     -6.393  0.0000E+00  0.0000E+00
     -5.948  0.0000E+00  0.0000E+00
     -5.504  0.0000E+00  0.0000E+00
     -5.059  0.0000E+00  0.0000E+00
     -4.614  0.1589E-17  0.7067E-18
     -4.169  0.1013E-01  0.4504E-02
     -3.725  0.8338E-01  0.4757E-01
     -3.280  0.1629E+00  0.1231E+00
     -2.835  0.1796E+00  0.2084E+00
     -2.390  0.2301E+00  0.3169E+00
     -1.945  0.1981E+00  0.4203E+00
     -1.501  0.2393E+00  0.5453E+00
     -1.056  0.2668E+00  0.6827E+00
     -0.611  0.2391E+00  0.8043E+00
     -0.166  0.3477E+00  0.9777E+00
      0.278  0.3162E+00  0.1133E+01
      0.723  0.3352E+00  0.1294E+01
      1.168  0.3823E+00  0.1465E+01
      1.613  0.4251E+00  0.1683E+01
      2.058  0.5016E+00  0.1929E+01
      2.502  0.4477E+00  0.2140E+01
      2.947  0.3744E+00  0.2329E+01
      3.392  0.5889E+00  0.2627E+01
      3.837  0.4097E+00  0.2818E+01
      4.282  0.3851E+00  0.3044E+01
      4.726  0.7262E+00  0.3379E+01
      5.171  0.1751E+00  0.3467E+01
      5.616  0.3394E+00  0.3635E+01
      6.061  0.5042E+00  0.3859E+01
      6.505  0.1769E+00  0.3961E+01
      6.950  0.4684E-01  0.3991E+01
      7.395  0.4016E-01  0.4009E+01
      7.840  0.1019E+00  0.4055E+01
      8.285  0.3680E+00  0.4256E+01
      8.729  0.4589E+00  0.4467E+01
      9.174  0.9386E+00  0.4936E+01
      9.619  0.5000E+00  0.5178E+01
     10.064  0.4753E+00  0.5400E+01
     10.509  0.3876E+00  0.5630E+01
     10.953  0.3609E+00  0.5819E+01
     11.398  0.4064E+00  0.6019E+01
     11.843  0.3912E+00  0.6248E+01
     12.288  0.5208E+00  0.6504E+01
     12.732  0.2798E+00  0.6629E+01
     13.177  0.3918E+00  0.6818E+01
     13.622  0.8730E+00  0.7245E+01
     14.067  0.6922E+00  0.7602E+01
     14.512  0.4930E+00  0.7866E+01
     14.956  0.5635E+00  0.8133E+01
     15.401  0.6344E+00  0.8442E+01
     15.846  0.5151E+00  0.8725E+01
     16.291  0.4478E+00  0.8924E+01
     16.736  0.5218E+00  0.9189E+01
     17.180  0.8086E+00  0.9609E+01
     17.625  0.5477E+00  0.9878E+01
     18.070  0.3714E+00  0.1008E+02
     18.515  0.4607E+00  0.1031E+02
     18.959  0.5619E+00  0.1062E+02
     19.404  0.7801E+00  0.1098E+02
     19.849  0.2358E+00  0.1109E+02
     20.294  0.5796E+00  0.1139E+02
     20.739  0.8762E+00  0.1183E+02
     21.183  0.9623E+00  0.1231E+02
     21.628  0.8115E+00  0.1271E+02
     22.073  0.1076E+01  0.1327E+02
     22.518  0.1132E+01  0.1378E+02
     22.963  0.1016E+01  0.1429E+02
     23.407  0.1076E+01  0.1482E+02
     23.852  0.5517E+00  0.1511E+02
     24.297  0.6371E+00  0.1540E+02
     24.742  0.4499E+00  0.1565E+02
     25.186  0.4082E+00  0.1583E+02
     25.631  0.4002E+00  0.1602E+02
     26.076  0.3301E+00  0.1622E+02
     26.521  0.3250E+00  0.1638E+02
     26.966  0.2574E+00  0.1651E+02
     27.410  0.3165E+00  0.1668E+02
     27.855  0.6053E+00  0.1698E+02
     28.300  0.4426E+00  0.1718E+02
     28.745  0.4255E+00  0.1738E+02
     29.190  0.6462E+00  0.1769E+02
     29.634  0.2649E+00  0.1783E+02
     30.079  0.7020E+00  0.1815E+02
     30.524  0.6057E+00  0.1848E+02
     30.969  0.9981E+00  0.1893E+02
     31.413  0.7971E+00  0.1937E+02
     31.858  0.5010E+00  0.1967E+02
     32.303  0.3380E+00  0.1982E+02
     32.748  0.2927E+00  0.1998E+02
     33.193  0.2689E+00  0.2013E+02
     33.637  0.5794E+00  0.2041E+02
     34.082  0.6242E+00  0.2070E+02
     34.527  0.3402E+00  0.2087E+02
     34.972  0.8307E+00  0.2127E+02
     35.417  0.6423E+00  0.2158E+02
     35.861  0.8693E+00  0.2199E+02
     36.306  0.9647E+00  0.2244E+02
     36.751  0.5585E+00  0.2269E+02
     37.196  0.7832E+00  0.2309E+02
     37.640  0.5729E+00  0.2337E+02
     38.085  0.4298E+00  0.2358E+02
     38.530  0.6460E+00  0.2390E+02
     38.975  0.8577E+00  0.2430E+02
     39.420  0.9790E+00  0.2476E+02
     39.864  0.6333E+00  0.2507E+02
     40.309  0.6159E+00  0.2540E+02
     40.754  0.7757E+00  0.2578E+02
     41.199  0.4211E+00  0.2597E+02
     41.644  0.5612E+00  0.2623E+02
     42.088  0.8880E+00  0.2663E+02
     42.533  0.7681E+00  0.2703E+02
     42.978  0.7087E+00  0.2737E+02
     43.423  0.8177E+00  0.2779E+02
     43.867  0.7786E+00  0.2817E+02
     44.312  0.7841E+00  0.2857E+02
     44.757  0.7793E+00  0.2894E+02
     45.202  0.9731E+00  0.2943E+02
     45.647  0.9181E+00  0.2987E+02
     46.091  0.9255E+00  0.3034E+02
     46.536  0.8391E+00  0.3074E+02
     46.981  0.7270E+00  0.3108E+02
     47.426  0.5210E+00  0.3134E+02
     47.870  0.4943E+00  0.3158E+02
     48.315  0.4875E+00  0.3183E+02
     48.760  0.8550E+00  0.3223E+02
     49.205  0.6639E+00  0.3260E+02
     49.650  0.7285E+00  0.3297E+02
     50.094  0.7416E+00  0.3331E+02
     50.539  0.8122E+00  0.3372E+02
     50.984  0.6555E+00  0.3404E+02
     51.429  0.1024E+01  0.3455E+02
     51.874  0.7648E+00  0.3493E+02
     52.318  0.7021E+00  0.3527E+02
     52.763  0.9124E+00  0.3569E+02
     53.208  0.7499E+00  0.3607E+02
     53.653  0.6112E+00  0.3638E+02
     54.097  0.1359E+01  0.3701E+02
     54.542  0.8891E+00  0.3745E+02
     54.987  0.9992E+00  0.3794E+02
     55.432  0.1081E+01  0.3847E+02
     55.877  0.7135E+00  0.3881E+02
     56.321  0.7202E+00  0.3918E+02
     56.766  0.6660E+00  0.3951E+02
     57.211  0.1216E+01  0.4007E+02
     57.656  0.9093E+00  0.4057E+02
     58.101  0.4586E+00  0.4085E+02
     58.545  0.7947E+00  0.4123E+02
     58.990  0.1042E+01  0.4177E+02
     59.435  0.8406E+00  0.4219E+02
     59.880  0.8393E+00  0.4266E+02
     60.324  0.7105E+00  0.4300E+02
     60.769  0.8737E+00  0.4341E+02
     61.214  0.3511E+00  0.4363E+02
     61.659  0.7629E+00  0.4398E+02
     62.104  0.6656E+00  0.4436E+02
     62.548  0.8603E+00  0.4477E+02
     62.993  0.7863E+00  0.4518E+02
     63.438  0.5285E+00  0.4545E+02
     63.883  0.6707E+00  0.4580E+02
     64.328  0.1235E+01  0.4640E+02
     64.772  0.5597E+00  0.4669E+02
     65.217  0.1060E+01  0.4721E+02
     65.662  0.8807E+00  0.4764E+02
     66.107  0.8926E+00  0.4808E+02
     66.551  0.4890E+00  0.4835E+02
     66.996  0.9237E+00  0.4883E+02
     67.441  0.1049E+01  0.4935E+02
     67.886  0.9920E+00  0.4981E+02
     68.331  0.1101E+01  0.5032E+02
     68.775  0.7856E+00  0.5068E+02
     69.220  0.9237E+00  0.5116E+02
     69.665  0.8568E+00  0.5156E+02
     70.110  0.7691E+00  0.5195E+02
     70.555  0.6675E+00  0.5227E+02
     70.999  0.1090E+01  0.5278E+02
     71.444  0.9545E+00  0.5330E+02
     71.889  0.7144E+00  0.5366E+02
     72.334  0.8836E+00  0.5409E+02
     72.778  0.6235E+00  0.5441E+02
     73.223  0.9292E+00  0.5484E+02
     73.668  0.1086E+01  0.5534E+02
     74.113  0.7730E+00  0.5577E+02
     74.558  0.8100E+00  0.5615E+02
     75.002  0.7469E+00  0.5650E+02
     75.447  0.7558E+00  0.5690E+02
     75.892  0.1051E+01  0.5743E+02
     76.337  0.1328E+01  0.5803E+02
     76.782  0.8308E+00  0.5844E+02
     77.226  0.8426E+00  0.5884E+02
     77.671  0.8223E+00  0.5925E+02
     78.116  0.8896E+00  0.5968E+02
     78.561  0.8298E+00  0.6012E+02
     79.005  0.1091E+01  0.6066E+02
     79.450  0.7344E+00  0.6102E+02
     79.895  0.1218E+01  0.6156E+02
     80.340  0.1056E+01  0.6206E+02
     80.785  0.1123E+01  0.6260E+02
     81.229  0.8228E+00  0.6303E+02
     81.674  0.9444E+00  0.6347E+02
     82.119  0.9675E+00  0.6390E+02
     82.564  0.9491E+00  0.6438E+02
     83.009  0.1025E+01  0.6488E+02
     83.453  0.1126E+01  0.6543E+02
     83.898  0.9550E+00  0.6591E+02
     84.343  0.8875E+00  0.6634E+02
     84.788  0.1021E+01  0.6680E+02
     85.232  0.8422E+00  0.6723E+02
     85.677  0.7393E+00  0.6762E+02
     86.122  0.1162E+01  0.6818E+02
     86.567  0.7482E+00  0.6854E+02
     87.012  0.8136E+00  0.6896E+02
     87.456  0.1163E+01  0.6952E+02
     87.901  0.1239E+01  0.7009E+02
     88.346  0.1092E+01  0.7060E+02
     88.791  0.8071E+00  0.7104E+02
     89.236  0.1150E+01  0.7159E+02
     89.680  0.7477E+00  0.7197E+02
     90.125  0.9781E+00  0.7246E+02
     90.570  0.1164E+01  0.7300E+02
     91.015  0.1136E+01  0.7353E+02
     91.459  0.7890E+00  0.7391E+02
     91.904  0.1004E+01  0.7446E+02
     92.349  0.7907E+00  0.7485E+02
     92.794  0.1063E+01  0.7539E+02
     93.239  0.9417E+00  0.7588E+02
     93.683  0.9782E+00  0.7634E+02
     94.128  0.8005E+00  0.7674E+02
     94.573  0.1320E+01  0.7740E+02
     95.018  0.9325E+00  0.7786E+02
     95.462  0.1024E+01  0.7837E+02
     95.907  0.1153E+01  0.7893E+02
     96.352  0.1067E+01  0.7943E+02
     96.797  0.1118E+01  0.8001E+02
     97.242  0.6437E+00  0.8034E+02
     97.686  0.1166E+01  0.8088E+02
     98.131  0.1093E+01  0.8142E+02
     98.576  0.1022E+01  0.8195E+02
     99.021  0.1085E+01  0.8247E+02
     99.466  0.1043E+01  0.8299E+02
     99.910  0.8516E+00  0.8348E+02
    100.355  0.1608E+01  0.8428E+02
    100.800  0.7414E+00  0.8466E+02
    101.245  0.1026E+01  0.8518E+02
    101.689  0.6737E+00  0.8555E+02
    102.134  0.9391E+00  0.8600E+02
    102.579  0.1127E+01  0.8652E+02
    103.024  0.8803E+00  0.8698E+02
    103.469  0.1341E+01  0.8763E+02
    103.913  0.8241E+00  0.8805E+02
    104.358  0.1400E+01  0.8870E+02
    104.803  0.1014E+01  0.8924E+02
    105.248  0.8952E+00  0.8967E+02
    105.693  0.1047E+01  0.9016E+02
    106.137  0.1080E+01  0.9065E+02
    106.582  0.6754E+00  0.9105E+02
    107.027  0.1115E+01  0.9155E+02
    107.472  0.6016E+00  0.9186E+02
    107.916  0.9671E+00  0.9235E+02
    108.361  0.8048E+00  0.9274E+02
    108.806  0.1020E+01  0.9321E+02
    109.251  0.6895E+00  0.9358E+02
    109.696  0.6090E+00  0.9389E+02
    110.140  0.3967E+00  0.9408E+02
    110.585  0.6813E+00  0.9438E+02
    111.030  0.5587E+00  0.9465E+02
    111.475  0.3343E+00  0.9483E+02
    111.920  0.3773E+00  0.9503E+02
    112.364  0.2953E+00  0.9519E+02
    112.809  0.3014E+00  0.9532E+02
    113.254  0.2972E+00  0.9548E+02
    113.699  0.3418E+00  0.9563E+02
    114.143  0.1517E+00  0.9574E+02
    114.588  0.2077E+00  0.9583E+02
    115.033  0.1089E+00  0.9591E+02
    115.478  0.1086E-01  0.9592E+02
    115.923  0.5631E-01  0.9594E+02
    116.367  0.5554E-01  0.9597E+02
    116.812  0.3368E-02  0.9598E+02
    117.257  0.4679E-01  0.9600E+02
    117.702  0.0000E+00  0.9600E+02
    118.147  0.0000E+00  0.9600E+02
    118.591  0.0000E+00  0.9600E+02
    119.036  0.0000E+00  0.9600E+02
    119.481  0.0000E+00  0.9600E+02
    119.926  0.0000E+00  0.9600E+02
    120.370  0.0000E+00  0.9600E+02
    120.815  0.0000E+00  0.9600E+02
    121.260  0.0000E+00  0.9600E+02
    121.705  0.0000E+00  0.9600E+02
    122.150  0.0000E+00  0.9600E+02
    122.594  0.0000E+00  0.9600E+02
    123.039  0.0000E+00  0.9600E+02
