    2    2    1    1
  0.7921913E+01  0.2262760E-09  0.2262760E-09  0.3573160E-09  0.5000000E-15
  1.000000000000000E-004
  CAR 
 Be                                      
      4    133     48
 
  0.0000000E+00  0.0000000E+00  0.0000000E+00  0.5787037E-03
      1         -4.331097   1.000000
      2          2.550298   1.000000
      3          8.066824   0.000000
      4         23.039673   0.000000
      5         23.039679   0.000000
      6         25.867344   0.000000
      7         25.867349   0.000000
      8         27.842722   0.000000
      9         34.124212   0.000000
     10         35.419964   0.000000
     11         35.419966   0.000000
     12         36.866442   0.000000
     13         39.956474   0.000000
     14         39.956475   0.000000
     15         40.195944   0.000000
     16         42.027060   0.000000
     17         42.027073   0.000000
     18         42.670422   0.000000
     19         42.989813   0.000000
     20         44.330761   0.000000
     21         44.330769   0.000000
     22         50.079713   0.000000
     23         61.012732   0.000000
     24         62.977453   0.000000
     25         71.193073   0.000000
     26         71.193108   0.000000
     27         74.206932   0.000000
     28         74.206998   0.000000
     29         76.243128   0.000000
     30         76.402757   0.000000
     31         76.402776   0.000000
     32         77.678484   0.000000
     33         77.678515   0.000000
     34         85.048837   0.000000
     35         89.296146   0.000000
     36         94.941524   0.000000
     37         97.221647   0.000000
     38         99.320947   0.000000
     39         99.321282   0.000000
     40        105.409143   0.000000
     41        105.409177   0.000000
     42        106.698798   0.000000
     43        106.699429   0.000000
     44        107.821442   0.000000
     45        113.343556   0.000000
     46        115.621495   0.000000
     47        115.621953   0.000000
     48        116.045508   0.000000
 
  0.8333333E-01  0.6088770E-17  0.0000000E+00  0.3472222E-02
      1         -4.131071   1.000000
      2          2.812142   1.000000
      3          8.126693   0.000000
      4         21.484257   0.000000
      5         21.949385   0.000000
      6         25.856385   0.000000
      7         26.348203   0.000000
      8         27.465103   0.000000
      9         31.623207   0.000000
     10         35.529670   0.000000
     11         35.772663   0.000000
     12         37.629763   0.000000
     13         37.985163   0.000000
     14         40.005595   0.000000
     15         40.573095   0.000000
     16         41.249388   0.000000
     17         41.492325   0.000000
     18         42.482127   0.000000
     19         45.804815   0.000000
     20         46.887288   0.000000
     21         49.592937   0.000000
     22         50.912514   0.000000
     23         60.444823   0.000000
     24         61.805766   0.000000
     25         69.985776   0.000000
     26         70.228562   0.000000
     27         71.651338   0.000000
     28         72.542651   0.000000
     29         76.066554   0.000000
     30         77.396872   0.000000
     31         78.104726   0.000000
     32         79.899653   0.000000
     33         82.669433   0.000000
     34         85.244382   0.000000
     35         88.200188   0.000000
     36         95.294061   0.000000
     37         95.306826   0.000000
     38         96.688679   0.000000
     39         96.938634   0.000000
     40        102.617920   0.000000
     41        102.921577   0.000000
     42        105.298879   0.000000
     43        108.979581   0.000000
     44        110.913294   0.000000
     45        111.235352   0.000000
     46        112.191700   0.000000
     47        114.081279   0.000000
     48        114.963620   0.000000
 
  0.1666667E+00 -0.1494854E-16  0.0000000E+00  0.3472222E-02
      1         -3.530458   1.000000
      2          3.595677   1.000000
      3          8.269877   0.000000
      4         18.277070   0.000000
      5         20.180121   0.000000
      6         25.481413   0.000000
      7         25.941697   0.000000
      8         26.283912   0.000000
      9         28.407291   0.000000
     10         33.678921   0.000000
     11         35.366886   0.000000
     12         37.664882   0.000000
     13         37.679829   0.000000
     14         39.251220   0.000000
     15         40.144240   0.000000
     16         44.259292   0.000000
     17         44.659498   0.000000
     18         46.484107   0.000000
     19         49.337211   0.000000
     20         50.825454   0.000000
     21         53.873757   0.000000
     22         55.866122   0.000000
     23         58.920952   0.000000
     24         59.623216   0.000000
     25         68.062364   0.000000
     26         68.222951   0.000000
     27         68.945067   0.000000
     28         70.335877   0.000000
     29         77.573693   0.000000
     30         78.950047   0.000000
     31         81.357990   0.000000
     32         83.748332   0.000000
     33         84.721003   0.000000
     34         86.020010   0.000000
     35         87.386086   0.000000
     36         89.086719   0.000000
     37         95.227155   0.000000
     38         95.570491   0.000000
     39         96.475895   0.000000
     40         96.944217   0.000000
     41        102.160723   0.000000
     42        102.982093   0.000000
     43        103.254110   0.000000
     44        105.367554   0.000000
     45        109.672035   0.000000
     46        110.474444   0.000000
     47        112.137524   0.000000
     48        116.973920   0.000000
 
  0.2500000E+00  0.5018020E-17  0.0000000E+00  0.3472222E-02
      1         -2.529374   1.000000
      2          4.893998   1.000000
      3          8.286225   0.000000
      4         15.130418   0.000000
      5         18.606506   0.000000
      6         22.901593   0.000000
      7         23.476589   0.000000
      8         25.529051   0.000000
      9         26.882140   0.000000
     10         31.504096   0.000000
     11         35.800239   0.000000
     12         36.071535   0.000000
     13         39.035845   0.000000
     14         41.202611   0.000000
     15         42.231670   0.000000
     16         46.207468   0.000000
     17         48.148083   0.000000
     18         52.267848   0.000000
     19         52.425165   0.000000
     20         55.324480   0.000000
     21         55.977187   0.000000
     22         57.334772   0.000000
     23         58.573443   0.000000
     24         64.211239   0.000000
     25         66.372249   0.000000
     26         66.441308   0.000000
     27         67.570221   0.000000
     28         68.574625   0.000000
     29         75.725184   0.000000
     30         78.852991   0.000000
     31         81.302790   0.000000
     32         82.721796   0.000000
     33         85.283198   0.000000
     34         85.690987   0.000000
     35         88.262651   0.000000
     36         88.608816   0.000000
     37         93.585817   0.000000
     38         94.861848   0.000000
     39         95.293409   0.000000
     40         96.708479   0.000000
     41         99.438933   0.000000
     42         99.491554   0.000000
     43        103.799096   0.000000
     44        105.485625   0.000000
     45        108.112409   0.000000
     46        108.503027   0.000000
     47        110.638810   0.000000
     48        110.926818   0.000000
 
  0.3333333E+00 -0.2770998E-17  0.0000000E+00  0.3472222E-02
      1         -1.136360   1.000000
      2          6.687108   1.000000
      3          7.477682   0.000005
      4         13.307895   0.000000
      5         17.424448   0.000000
      6         19.201241   0.000000
      7         20.611284   0.000000
      8         24.713213   0.000000
      9         26.671713   0.000000
     10         30.397764   0.000000
     11         34.459489   0.000000
     12         36.973351   0.000000
     13         39.879862   0.000000
     14         44.557453   0.000000
     15         45.757929   0.000000
     16         47.187178   0.000000
     17         50.267738   0.000000
     18         52.472070   0.000000
     19         55.235102   0.000000
     20         58.581216   0.000000
     21         59.505684   0.000000
     22         60.212944   0.000000
     23         62.476232   0.000000
     24         64.841342   0.000000
     25         65.365211   0.000000
     26         67.467955   0.000000
     27         67.516187   0.000000
     28         71.405875   0.000000
     29         72.269754   0.000000
     30         72.805896   0.000000
     31         80.201792   0.000000
     32         80.432390   0.000000
     33         84.816690   0.000000
     34         85.415415   0.000000
     35         87.018845   0.000000
     36         87.648285   0.000000
     37         90.929584   0.000000
     38         93.353540   0.000000
     39         98.237627   0.000000
     40         98.568043   0.000000
     41         99.052417   0.000000
     42        103.053394   0.000000
     43        103.476348   0.000000
     44        104.739584   0.000000
     45        106.985360   0.000000
     46        107.299784   0.000000
     47        107.544274   0.000000
     48        111.105349   0.000000
 
  0.4166667E+00  0.9417060E-17  0.0000000E+00  0.3472222E-02
      1          0.596740   1.000000
      2          5.514265   1.000000
      3          8.895091   0.000000
      4         13.290958   0.000000
      5         15.682140   0.000000
      6         16.698991   0.000000
      7         18.212264   0.000000
      8         24.149016   0.000000
      9         26.664673   0.000000
     10         29.800436   0.000000
     11         33.649997   0.000000
     12         37.669107   0.000000
     13         41.583416   0.000000
     14         46.395750   0.000000
     15         47.045821   0.000000
     16         48.232149   0.000000
     17         50.982979   0.000000
     18         55.530053   0.000000
     19         56.476842   0.000000
     20         58.716574   0.000000
     21         60.758068   0.000000
     22         64.112914   0.000000
     23         64.327872   0.000000
     24         65.714116   0.000000
     25         67.050031   0.000000
     26         68.047763   0.000000
     27         68.163748   0.000000
     28         68.818740   0.000000
     29         71.987120   0.000000
     30         73.831222   0.000000
     31         78.706060   0.000000
     32         79.768505   0.000000
     33         80.605838   0.000000
     34         81.249161   0.000000
     35         85.230163   0.000000
     36         89.198946   0.000000
     37         91.750633   0.000000
     38         95.597987   0.000000
     39         96.616345   0.000000
     40         97.247991   0.000000
     41         98.966423   0.000000
     42        102.400799   0.000000
     43        103.798498   0.000000
     44        104.910001   0.000000
     45        105.059483   0.000000
     46        107.092784   0.000000
     47        108.093264   0.000000
     48        111.783535   0.000000
 
  0.5000000E+00  0.1003604E-16  0.0000000E+00  0.1736111E-02
      1          2.019021   1.000000
      2          3.888988   1.000000
      3         10.635786   0.000000
      4         13.485576   0.000000
      5         13.717895   0.000000
      6         16.454568   0.000000
      7         17.086623   0.000000
      8         23.951387   0.000000
      9         26.673744   0.000000
     10         29.603997   0.000000
     11         33.380773   0.000000
     12         37.926748   0.000000
     13         43.533564   0.000000
     14         44.563221   0.000000
     15         46.773942   0.000000
     16         49.281829   0.000000
     17         55.747786   0.000000
     18         55.941610   0.000000
     19         56.944147   0.000000
     20         57.217221   0.000000
     21         60.511514   0.000000
     22         61.039366   0.000000
     23         65.068454   0.000000
     24         66.617517   0.000000
     25         67.157486   0.000000
     26         69.915654   0.000000
     27         71.573779   0.000000
     28         71.838654   0.000000
     29         72.804747   0.000000
     30         72.852899   0.000000
     31         73.525297   0.000000
     32         77.155024   0.000000
     33         79.239365   0.000000
     34         82.407850   0.000000
     35         88.637509   0.000000
     36         88.857470   0.000000
     37         90.902130   0.000000
     38         91.662522   0.000000
     39         96.904579   0.000000
     40         97.172057   0.000000
     41         98.679169   0.000000
     42        103.661072   0.000000
     43        104.584875   0.000000
     44        105.691442   0.000000
     45        106.404787   0.000000
     46        106.992600   0.000000
     47        107.107497   0.000000
     48        107.819549   0.000000
 
  0.1666667E+00  0.8333333E-01  0.0000000E+00  0.3472222E-02
      1         -3.730608   1.000000
      2          3.334870   1.000000
      3          8.234092   0.000000
      4         19.613410   0.000000
      5         20.032005   0.000000
      6         25.804471   0.000000
      7         26.235437   0.000000
      8         26.559708   0.000000
      9         30.388223   0.000000
     10         33.013305   0.000000
     11         34.557212   0.000000
     12         36.742166   0.000000
     13         38.868814   0.000000
     14         39.663590   0.000000
     15         42.276594   0.000000
     16         42.975102   0.000000
     17         43.996253   0.000000
     18         44.530777   0.000000
     19         45.587748   0.000000
     20         52.513991   0.000000
     21         52.834885   0.000000
     22         53.370393   0.000000
     23         59.351164   0.000000
     24         60.143370   0.000000
     25         67.695124   0.000000
     26         68.696568   0.000000
     27         69.208911   0.000000
     28         73.752790   0.000000
     29         75.745064   0.000000
     30         77.760414   0.000000
     31         80.327279   0.000000
     32         83.554739   0.000000
     33         85.076496   0.000000
     34         85.861631   0.000000
     35         87.118678   0.000000
     36         91.854847   0.000000
     37         93.776433   0.000000
     38         96.061259   0.000000
     39         96.468265   0.000000
     40        100.696639   0.000000
     41        101.012926   0.000000
     42        101.463721   0.000000
     43        102.386306   0.000000
     44        111.989084   0.000000
     45        112.291057   0.000000
     46        112.295785   0.000000
     47        113.088986   0.000000
     48        113.300674   0.000000
 
  0.2500000E+00  0.8333333E-01  0.0000000E+00  0.6944444E-02
      1         -2.928709   1.000000
      2          4.376151   1.000000
      3          8.372448   0.000000
      4         16.425486   0.000000
      5         18.298741   0.000000
      6         24.405296   0.000000
      7         24.733538   0.000000
      8         25.428909   0.000000
      9         28.839856   0.000000
     10         30.991661   0.000000
     11         33.781721   0.000000
     12         35.997010   0.000000
     13         40.572259   0.000000
     14         41.863675   0.000000
     15         41.980859   0.000000
     16         45.507702   0.000000
     17         46.475462   0.000000
     18         47.762988   0.000000
     19         50.398067   0.000000
     20         55.383530   0.000000
     21         56.769820   0.000000
     22         57.637149   0.000000
     23         57.675812   0.000000
     24         61.399261   0.000000
     25         64.400869   0.000000
     26         66.982974   0.000000
     27         68.325951   0.000000
     28         72.683577   0.000000
     29         76.377602   0.000000
     30         78.618591   0.000000
     31         80.779513   0.000000
     32         82.023906   0.000000
     33         84.402369   0.000000
     34         87.874268   0.000000
     35         88.341944   0.000000
     36         93.092917   0.000000
     37         93.535497   0.000000
     38         93.765100   0.000000
     39         94.238138   0.000000
     40         97.973476   0.000000
     41         97.979431   0.000000
     42        100.547272   0.000000
     43        101.061752   0.000000
     44        103.543447   0.000000
     45        109.871440   0.000000
     46        112.797768   0.000000
     47        113.199207   0.000000
     48        113.352387   0.000000
 
  0.3333333E+00  0.8333333E-01  0.0000000E+00  0.6944444E-02
      1         -1.727104   1.000000
      2          5.924300   1.000000
      3          8.163420   0.000000
      4         13.688997   0.000000
      5         16.851001   0.000000
      6         21.101226   0.000000
      7         22.445686   0.000000
      8         24.597556   0.000000
      9         28.064574   0.000000
     10         28.793466   0.000000
     11         35.917174   0.000000
     12         36.012986   0.000000
     13         41.083291   0.000000
     14         41.954363   0.000000
     15         45.230229   0.000000
     16         47.313468   0.000000
     17         50.672028   0.000000
     18         50.913315   0.000000
     19         53.949877   0.000000
     20         54.497911   0.000000
     21         57.880901   0.000000
     22         61.278812   0.000000
     23         61.599134   0.000000
     24         62.587503   0.000000
     25         65.062502   0.000000
     26         67.573754   0.000000
     27         68.623386   0.000000
     28         71.633846   0.000000
     29         72.952359   0.000000
     30         76.136898   0.000000
     31         79.606818   0.000000
     32         82.789438   0.000000
     33         84.424391   0.000000
     34         85.630401   0.000000
     35         85.728975   0.000000
     36         90.048621   0.000000
     37         92.249740   0.000000
     38         95.495133   0.000000
     39         97.328918   0.000000
     40         98.171593   0.000000
     41         99.913639   0.000000
     42        101.275903   0.000000
     43        101.794120   0.000000
     44        102.225483   0.000000
     45        105.037517   0.000000
     46        106.390931   0.000000
     47        111.545892   0.000000
     48        113.016871   0.000000
 
  0.4166667E+00  0.8333333E-01  0.0000000E+00  0.6944444E-02
      1         -0.144938   1.000000
      2          6.761069   1.000000
      3          7.942256   0.000000
      4         12.730232   0.000000
      5         15.602344   0.000000
      6         17.504442   0.000000
      7         20.299569   0.000000
      8         23.931703   0.000000
      9         27.586805   0.000000
     10         27.832383   0.000000
     11         36.058586   0.000000
     12         37.728420   0.000000
     13         41.554467   0.000000
     14         43.927748   0.000000
     15         47.393863   0.000000
     16         48.713094   0.000000
     17         50.511997   0.000000
     18         53.270194   0.000000
     19         55.911013   0.000000
     20         57.074345   0.000000
     21         59.396076   0.000000
     22         61.651351   0.000000
     23         64.740123   0.000000
     24         64.872199   0.000000
     25         66.403952   0.000000
     26         68.399037   0.000000
     27         69.142210   0.000000
     28         71.237038   0.000000
     29         71.950475   0.000000
     30         77.110722   0.000000
     31         78.147014   0.000000
     32         78.628022   0.000000
     33         80.597499   0.000000
     34         84.293864   0.000000
     35         87.342992   0.000000
     36         88.345377   0.000000
     37         93.235703   0.000000
     38         93.919051   0.000000
     39         96.747682   0.000000
     40         99.077047   0.000000
     41         99.296151   0.000000
     42         99.819602   0.000000
     43        103.048975   0.000000
     44        103.440392   0.000000
     45        104.978234   0.000000
     46        107.871484   0.000000
     47        108.340345   0.000000
     48        110.730989   0.000000
 
  0.5000000E+00  0.8333333E-01  0.0000000E+00  0.6944444E-02
      1          1.672463   1.000000
      2          4.626284   1.000000
      3         10.208119   0.000000
      4         13.294496   0.000000
      5         14.367097   0.000000
      6         14.419655   0.000000
      7         19.051079   0.000000
      8         23.574073   0.000000
      9         27.030013   0.000000
     10         27.769849   0.000000
     11         35.988576   0.000000
     12         38.642610   0.000000
     13         43.225196   0.000000
     14         45.752396   0.000000
     15         45.861455   0.000000
     16         48.130663   0.000000
     17         53.805603   0.000000
     18         54.773015   0.000000
     19         56.987698   0.000000
     20         58.174701   0.000000
     21         58.467221   0.000000
     22         62.948408   0.000000
     23         64.770576   0.000000
     24         65.219188   0.000000
     25         67.875196   0.000000
     26         68.021442   0.000000
     27         71.163815   0.000000
     28         71.279611   0.000000
     29         74.170166   0.000000
     30         74.916609   0.000000
     31         75.508550   0.000000
     32         80.340134   0.000000
     33         80.980444   0.000000
     34         84.632026   0.000000
     35         85.445132   0.000000
     36         87.131224   0.000000
     37         92.562030   0.000000
     38         92.804952   0.000000
     39         94.514204   0.000000
     40         98.331102   0.000000
     41         99.415245   0.000000
     42        101.127201   0.000000
     43        101.691465   0.000000
     44        103.094647   0.000000
     45        104.168278   0.000000
     46        106.155832   0.000000
     47        107.434230   0.000000
     48        108.503751   0.000000
 
  0.3333333E+00  0.1666667E+00  0.0000000E+00  0.3472222E-02
      1         -1.923164   1.000000
      2          5.668725   1.000000
      3          8.468137   0.000000
      4         13.921588   0.000000
      5         16.242463   0.000000
      6         22.247619   0.000000
      7         23.575598   0.000000
      8         24.000711   0.000000
      9         27.393860   0.000000
     10         30.642107   0.000000
     11         33.281455   0.000000
     12         36.339441   0.000000
     13         42.620098   0.000000
     14         43.477069   0.000000
     15         44.919536   0.000000
     16         46.952305   0.000000
     17         48.250786   0.000000
     18         49.913044   0.000000
     19         53.683034   0.000000
     20         53.790981   0.000000
     21         57.360048   0.000000
     22         60.677149   0.000000
     23         60.810972   0.000000
     24         64.161109   0.000000
     25         64.650743   0.000000
     26         66.080273   0.000000
     27         68.246129   0.000000
     28         73.925705   0.000000
     29         76.004694   0.000000
     30         76.367268   0.000000
     31         78.186498   0.000000
     32         80.504378   0.000000
     33         84.960877   0.000000
     34         85.370863   0.000000
     35         88.395614   0.000000
     36         92.411574   0.000000
     37         92.961047   0.000000
     38         94.396811   0.000000
     39         94.729342   0.000000
     40         98.601500   0.000000
     41        100.319832   0.000000
     42        100.563400   0.000000
     43        100.619688   0.000000
     44        104.761200   0.000000
     45        104.988628   0.000000
     46        106.811932   0.000000
     47        109.579908   0.000000
     48        111.050752   0.000000
 
  0.4166667E+00  0.1666667E+00  0.0000000E+00  0.6944444E-02
      1         -0.517163   1.000000
      2          7.452655   0.000097
      3          8.051811   0.000000
      4         11.563988   0.000000
      5         14.945072   0.000000
      6         19.363389   0.000000
      7         21.842249   0.000000
      8         23.178182   0.000000
      9         24.941205   0.000000
     10         30.925051   0.000000
     11         35.712575   0.000000
     12         37.412490   0.000000
     13         43.366236   0.000000
     14         44.538541   0.000000
     15         45.651486   0.000000
     16         49.496948   0.000000
     17         51.229029   0.000000
     18         51.717583   0.000000
     19         52.575239   0.000000
     20         55.365261   0.000000
     21         58.354713   0.000000
     22         59.688992   0.000000
     23         63.216223   0.000000
     24         63.726370   0.000000
     25         68.046955   0.000000
     26         69.412177   0.000000
     27         71.670945   0.000000
     28         72.825828   0.000000
     29         75.044384   0.000000
     30         76.514966   0.000000
     31         77.679032   0.000000
     32         79.570556   0.000000
     33         82.263973   0.000000
     34         83.226125   0.000000
     35         85.709260   0.000000
     36         92.004310   0.000000
     37         93.145388   0.000000
     38         95.675722   0.000000
     39         95.924220   0.000000
     40         97.389309   0.000000
     41        100.061701   0.000000
     42        100.468346   0.000000
     43        102.815792   0.000000
     44        104.562601   0.000000
     45        104.697084   0.000000
     46        106.721327   0.000000
     47        106.964599   0.000000
     48        107.601576   0.000000
 
  0.5000000E+00  0.1666667E+00  0.0000000E+00  0.6944444E-02
      1          1.250934   1.000000
      2          6.201686   1.000000
      3          9.650363   0.000000
      4         10.920002   0.000000
      5         14.085442   0.000000
      6         16.168705   0.000000
      7         20.486285   0.000000
      8         22.720991   0.000000
      9         23.732951   0.000000
     10         30.779389   0.000000
     11         38.553687   0.000000
     12         38.973350   0.000000
     13         43.788276   0.000000
     14         44.275642   0.000000
     15         47.296571   0.000000
     16         47.998812   0.000000
     17         50.720246   0.000000
     18         54.583618   0.000000
     19         55.078627   0.000000
     20         56.534116   0.000000
     21         58.797239   0.000000
     22         58.929656   0.000000
     23         61.565329   0.000000
     24         67.071035   0.000000
     25         69.367997   0.000000
     26         70.307954   0.000000
     27         71.903946   0.000000
     28         72.525235   0.000000
     29         75.736173   0.000000
     30         77.741029   0.000000
     31         79.873106   0.000000
     32         81.062714   0.000000
     33         81.609851   0.000000
     34         83.613357   0.000000
     35         87.839313   0.000000
     36         89.835971   0.000000
     37         89.844355   0.000000
     38         92.636402   0.000000
     39         94.452956   0.000000
     40         95.797349   0.000000
     41         97.684769   0.000000
     42         99.365854   0.000000
     43        100.037329   0.000000
     44        103.879081   0.000000
     45        104.002965   0.000000
     46        105.304885   0.000000
     47        107.581739   0.000000
     48        108.140978   0.000000
 
 -0.4166667E+00  0.1666667E+00  0.0000000E+00  0.3472222E-02
      1          2.765954   1.000000
      2          4.462320   1.000000
      3         10.973437   0.000000
      4         11.408915   0.000000
      5         13.739786   0.000000
      6         14.027401   0.000000
      7         19.987135   0.000000
      8         22.568176   0.000000
      9         23.372339   0.000000
     10         30.722005   0.000000
     11         39.063190   0.000000
     12         40.720759   0.000000
     13         44.409642   0.000000
     14         44.558168   0.000000
     15         46.351775   0.000000
     16         46.693762   0.000000
     17         52.164339   0.000000
     18         53.765257   0.000000
     19         55.379516   0.000000
     20         57.639231   0.000000
     21         59.591579   0.000000
     22         59.608827   0.000000
     23         63.522917   0.000000
     24         64.236888   0.000000
     25         67.503172   0.000000
     26         70.257196   0.000000
     27         72.957983   0.000000
     28         73.275028   0.000000
     29         77.388691   0.000000
     30         78.925672   0.000000
     31         81.464237   0.000000
     32         82.687971   0.000000
     33         83.545312   0.000000
     34         83.672600   0.000000
     35         87.416564   0.000000
     36         87.539369   0.000000
     37         89.275581   0.000000
     38         90.722182   0.000000
     39         95.051189   0.000000
     40         95.331985   0.000000
     41         95.806744   0.000000
     42         96.575678   0.000000
     43        100.221264   0.000000
     44        101.005993   0.000000
     45        101.946713   0.000000
     46        104.705024   0.000000
     47        104.809888   0.000000
     48        108.959185   0.000000
 
  0.5000000E+00  0.2500000E+00  0.0000000E+00  0.3472222E-02
      1          1.096229   1.000000
      2          7.816750   0.000000
      3          8.924971   0.000000
      4          9.439247   0.000000
      5         14.087568   0.000000
      6         17.438715   0.000000
      7         21.225238   0.000000
      8         21.957179   0.000000