Mg                                      
   1.00000000000000     
     3.194050    0.000000    0.000000
     1.597025    2.766128    0.000000
     0.000000    0.000000    5.171980
   Mg
     2
Direct
  0.000000  0.000000  0.000000
  0.333333  0.333333  0.500000
 
   28   28   40
 0.94955     0.98032      1.0854      1.2940      1.6305      2.0927      2.6423      3.2117      3.7246      4.1208    
  4.3742      4.5001      4.5404      4.5414      4.5376      4.5414      4.5404      4.5001      4.3742      4.1208    
  3.7246      3.2117      2.6423      2.0927      1.6305      1.2940      1.0854     0.98032     0.98032      1.0480    
  1.2072      1.4881      1.9028      2.4283      3.0069      3.5620      4.0232      4.3480      4.5331      4.6104    
  4.6260      4.6218      4.6218      4.6260      4.6104      4.5331      4.3480      4.0232      3.5620      3.0069    
  2.4283      1.9028      1.4881      1.2072      1.0479     0.98031      1.0854      1.2072      1.4410      1.8061    
  2.2929      2.8561      3.4251      3.9259      4.3052      4.5440      4.6608      4.6967      4.6961      4.6920    
  4.6961      4.6967      4.6608      4.5440      4.3052      3.9259      3.4250      2.8561      2.2929      1.8061    
  1.4410      1.2072      1.0854      1.0488      1.2940      1.4881      1.8061      2.2467      2.7765      3.3341    
  3.8483      4.2603      4.5401      4.6930      4.7516      4.7585      4.7513      4.7513      4.7585      4.7516    
  4.6930      4.5401      4.2603      3.8483      3.3341      2.7765      2.2467      1.8061      1.4881      1.2940    
  1.2055      1.2055      1.6305      1.9028      2.2929      2.7765      3.3023      3.8055      4.2270      4.5306    
  4.7110      4.7910      4.8079      4.7997      4.7937      4.7997      4.8079      4.7910      4.7110      4.5306    
  4.2270      3.8055      3.3023      2.7764      2.2929      1.9028      1.6305      1.4755      1.4260      1.4755    
  2.0927      2.4283      2.8561      3.3341      3.8055      4.2147      4.5235      4.7193      4.8160      4.8437    
  4.8372      4.8258      4.8258      4.8372      4.8437      4.8160      4.7193      4.5235      4.2147      3.8055    
  3.3341      2.8561      2.4283      2.0927      1.8692      1.7594      1.7594      1.8692      2.6423      3.0069    
  3.4251      3.8483      4.2270      4.5235      4.7216      4.8281      4.8654      4.8631      4.8489      4.8419    
  4.8489      4.8631      4.8654      4.8281      4.7216      4.5235      4.2270      3.8483      3.4250      3.0069    
  2.6423      2.3667      2.1980      2.1416      2.1980      2.3667      3.2117      3.5620      3.9259      4.2603    
  4.5306      4.7193      4.8281      4.8727      4.8764      4.8631      4.8514      4.8514      4.8631      4.8764    
  4.8727      4.8281      4.7193      4.5306      4.2603      3.9259      3.5620      3.2117      2.9162      2.7055    
  2.5968      2.5968      2.7055      2.9162      3.7246      4.0232      4.3052      4.5401      4.7110      4.8160    
  4.8654      4.8764      4.8679      4.8558      4.8506      4.8558      4.8679      4.8764      4.8654      4.8160    
  4.7110      4.5401      4.3052      4.0232      3.7247      3.4461      3.2220      3.0777      3.0280      3.0777    
  3.2220      3.4461      4.1208      4.3480      4.5440      4.6930      4.7910      4.8437      4.8631      4.8631    
  4.8558      4.8500      4.8500      4.8558      4.8631      4.8631      4.8437      4.7910      4.6930      4.5440    
  4.3480      4.1208      3.8881      3.6800      3.5244      3.4414      3.4414      3.5244      3.6800      3.8880    
  4.3742      4.5331      4.6608      4.7516      4.8079      4.8372      4.8489      4.8514      4.8506      4.8500    
  4.8506      4.8514      4.8489      4.8372      4.8079      4.7516      4.6608      4.5331      4.3742      4.1984    
  4.0265      3.8822      3.7862      3.7526      3.7862      3.8822      4.0265      4.1984      4.5001      4.6104    
  4.6967      4.7585      4.7997      4.8258      4.8419      4.8514      4.8558      4.8558      4.8514      4.8419    
  4.8258      4.7997      4.7585      4.6967      4.6104      4.5001      4.3725      4.2400      4.1191      4.0267    
  3.9767      3.9767      4.0267      4.1191      4.2400      4.3725      4.5404      4.6260      4.6961      4.7513    
  4.7937      4.8258      4.8489      4.8631      4.8679      4.8631      4.8489      4.8258      4.7937      4.7513    
  4.6961      4.6260      4.5404      4.4422      4.3383      4.2392      4.1567      4.1021      4.0829      4.1021    
  4.1567      4.2392      4.3383      4.4422      4.5414      4.6218      4.6920      4.7513      4.7997      4.8372    
  4.8631      4.8764      4.8764      4.8631      4.8372      4.7997      4.7513      4.6920      4.6218      4.5414    
  4.4533      4.3622      4.2751      4.1999      4.1445      4.1151      4.1151      4.1445      4.1999      4.2751    
  4.3622      4.4533      4.5376      4.6218      4.6961      4.7585      4.8079      4.8437      4.8654      4.8727    
  4.8654      4.8437      4.8079      4.7585      4.6961      4.6218      4.5376      4.4470      4.3553      4.2684    
  4.1928      4.1344      4.0975      4.0848      4.0975      4.1344      4.1928      4.2684      4.3553      4.4470    
  4.5414      4.6260      4.6967      4.7516      4.7910      4.8160      4.8281      4.8281      4.8160      4.7910    
  4.7516      4.6967      4.6260      4.5414      4.4470      4.3491      4.2549      4.1716      4.1050      4.0588    
  4.0353      4.0353      4.0588      4.1050      4.1716      4.2550      4.3491      4.4470      4.5404      4.6104    
  4.6608      4.6930      4.7110      4.7193      4.7216      4.7193      4.7110      4.6930      4.6608      4.6104    
  4.5404      4.4533      4.3553      4.2549      4.1616      4.0830      4.0245      3.9887      3.9767      3.9887    
  4.0245      4.0830      4.1616      4.2550      4.3553      4.4533      4.5001      4.5331      4.5440      4.5401    
  4.5306      4.5235      4.5235      4.5306      4.5401      4.5440      4.5331      4.5001      4.4422      4.3622    
  4.2684      4.1716      4.0830      4.0111      3.9612      3.9359      3.9359      3.9612      4.0111      4.0830    
  4.1716      4.2684      4.3622      4.4422      4.3742      4.3480      4.3052      4.2603      4.2270      4.2147    
  4.2270      4.2603      4.3052      4.3480      4.3742      4.3725      4.3383      4.2751      4.1928      4.1050    
  4.0245      3.9612      3.9214      3.9078      3.9214      3.9612      4.0245      4.1050      4.1928      4.2751    
  4.3383      4.3725      4.1208      4.0232      3.9259      3.8483      3.8055      3.8055      3.8483      3.9259    
  4.0232      4.1208      4.1984      4.2400      4.2392      4.1999      4.1344      4.0588      3.9887      3.9359    
  3.9078      3.9078      3.9359      3.9887      4.0588      4.1344      4.1999      4.2392      4.2400      4.1984    
  3.7246      3.5620      3.4250      3.3341      3.3023      3.3341      3.4250      3.5620      3.7247      3.8881    
  4.0265      4.1191      4.1567      4.1445      4.0975      4.0353      3.9767      3.9359      3.9214      3.9359    
  3.9767      4.0353      4.0975      4.1445      4.1567      4.1191      4.0265      3.8880      3.2117      3.0069    
  2.8561      2.7765      2.7764      2.8561      3.0069      3.2117      3.4461      3.6800      3.8822      4.0267    
  4.1021      4.1151      4.0848      4.0353      3.9887      3.9612      3.9612      3.9887      4.0353      4.0848    
  4.1151      4.1021      4.0267      3.8822      3.6800      3.4461      2.6423      2.4283      2.2929      2.2467    
  2.2929      2.4283      2.6423      2.9162      3.2220      3.5244      3.7862      3.9767      4.0829      4.1151    
  4.0975      4.0588      4.0245      4.0111      4.0245      4.0588      4.0975      4.1151      4.0829      3.9767    
  3.7862      3.5244      3.2220      2.9162      2.0927      1.9028      1.8061      1.8061      1.9028      2.0927    
  2.3667      2.7055      3.0777      3.4414      3.7526      3.9767      4.1021      4.1445      4.1344      4.1050    
  4.0830      4.0830      4.1050      4.1344      4.1445      4.1021      3.9767      3.7526      3.4414      3.0777    
  2.7055      2.3667      1.6305      1.4881      1.4410      1.4881      1.6305      1.8692      2.1980      2.5968    
  3.0280      3.4414      3.7862      4.0267      4.1567      4.1999      4.1928      4.1716      4.1616      4.1716    
  4.1928      4.1999      4.1567      4.0267      3.7862      3.4414      3.0280      2.5968      2.1980      1.8692    
  1.2940      1.2072      1.2072      1.2940      1.4755      1.7594      2.1416      2.5968      3.0777      3.5244    
  3.8822      4.1191      4.2392      4.2751      4.2684      4.2550      4.2550      4.2684      4.2751      4.2392    
  4.1191      3.8822      3.5244      3.0777      2.5968      2.1416      1.7594      1.4755      1.0854      1.0479    
  1.0854      1.2055      1.4260      1.7594      2.1980      2.7055      3.2220      3.6800      4.0265      4.2400    
  4.3383      4.3622      4.3553      4.3491      4.3553      4.3622      4.3383      4.2400      4.0265      3.6800    
  3.2220      2.7055      2.1980      1.7594      1.4260      1.2055     0.98032     0.98031      1.0488      1.2055    
  1.4755      1.8692      2.3667      2.9162      3.4461      3.8880      4.1984      4.3725      4.4422      4.4533    
  4.4470      4.4470      4.4533      4.4422      4.3725      4.1984      3.8880      3.4461      2.9162      2.3667    
  1.8692      1.4755      1.2055      1.0488     0.99117      1.0244      1.1357      1.3515      1.6926      2.1543    
  2.6971      3.2544      3.7522      4.1334      4.3746      4.4921      4.5276      4.5264      4.5220      4.5264    
  4.5276      4.4921      4.3746      4.1335      3.7522      3.2543      2.6971      2.1543      1.6926      1.3515    
  1.1357      1.0244      1.0244      1.0966      1.2629      1.5498      1.9662      2.4874      3.0558      3.5967    
  4.0427      4.3539      4.5288      4.5998      4.6122      4.6067      4.6068      4.6122      4.5998      4.5288    
  4.3539      4.0427      3.5967      3.0558      2.4875      1.9662      1.5498      1.2628      1.0966      1.0244    
  1.1357      1.2629      1.5024      1.8702      2.3545      2.9092      3.4652      3.9510      4.3161      4.5435    
  4.6527      4.6844      4.6820      4.6773      4.6820      4.6844      4.6527      4.5435      4.3161      3.9510    
  3.4652      2.9092      2.3545      1.8702      1.5024      1.2628      1.1357      1.0970      1.3515      1.5498    
  1.8702      2.3090      2.8316      3.3775      3.8774      4.2751      4.5429      4.6874      4.7410      4.7454    
  4.7373      4.7373      4.7454      4.7410      4.6874      4.5429      4.2751      3.8774      3.3775      2.8316    
  2.3090      1.8702      1.5498      1.3515      1.2599      1.2599      1.6926      1.9662      2.3545      2.8316    
  3.3468      3.8366      4.2444      4.5359      4.7074      4.7819      4.7959      4.7866      4.7803      4.7866    
  4.7959      4.7819      4.7074      4.5359      4.2444      3.8366      3.3468      2.8316      2.3545      1.9662    
  1.6927      1.5355      1.4849      1.5355      2.1543      2.4874      2.9092      3.3775      3.8366      4.2330    
  4.5301      4.7170      4.8080      4.8327      4.8250      4.8133      4.8133      4.8250      4.8327      4.8080    
  4.7171      4.5301      4.2330      3.8366      3.3775      2.9092      2.4874      2.1543      1.9308      1.8206    
  1.8206      1.9308      2.6971      3.0558      3.4652      3.8774      4.2444      4.5301      4.7198      4.8207    
  4.8550      4.8516      4.8371      4.8302      4.8371      4.8516      4.8550      4.8207      4.7198      4.5301    
  4.2444      3.8774      3.4652      3.0558      2.6971      2.4245      2.2569      2.2007      2.2569      2.4245    
  3.2544      3.5967      3.9510      4.2751      4.5359      4.7170      4.8207      4.8625      4.8653      4.8519    
  4.8404      4.8404      4.8519      4.8653      4.8625      4.8207      4.7170      4.5359      4.2751      3.9510    
  3.5968      3.2544      2.9642      2.7568      2.6494      2.6494      2.7568      2.9643      3.7522      4.0427    
  4.3161      4.5429      4.7074      4.8080      4.8550      4.8653      4.8569      4.8453      4.8403      4.8453    
  4.8569      4.8653      4.8550      4.8080      4.7074      4.5429      4.3161      4.0427      3.7522      3.4804    
  3.2610      3.1195      3.0708      3.1195      3.2610      3.4804      4.1334      4.3539      4.5435      4.6874    
  4.7819      4.8327      4.8516      4.8519      4.8453      4.8399      4.8399      4.8453      4.8519      4.8516    
  4.8327      4.7819      4.6874      4.5435      4.3538      4.1334      3.9071      3.7044      3.5525      3.4714    
  3.4714      3.5525      3.7044      3.9071      4.3746      4.5288      4.6527      4.7410      4.7959      4.8250    
  4.8371      4.8404      4.8403      4.8399      4.8403      4.8404      4.8371      4.8250      4.7959      4.7410    
  4.6527      4.5288      4.3746      4.2037      4.0365      3.8960      3.8024      3.7696      3.8024      3.8959    
  4.0365      4.2037      4.4921      4.5998      4.6844      4.7454      4.7866      4.8133      4.8302      4.8404    
  4.8453      4.8453      4.8404      4.8301      4.8133      4.7866      4.7455      4.6844      4.5998      4.4921    
  4.3676      4.2384      4.1204      4.0304      3.9816      3.9816      4.0304      4.1205      4.2384      4.3676    
  4.5276      4.6122      4.6820      4.7373      4.7803      4.8133      4.8371      4.8519      4.8569      4.8519    
  4.8371      4.8133      4.7803      4.7373      4.6820      4.6122      4.5276      4.4309      4.3289      4.2317    
  4.1510      4.0974      4.0787      4.0974      4.1510      4.2317      4.3289      4.4309      4.5264      4.6067    
  4.6773      4.7373      4.7866      4.8250      4.8516      4.8653      4.8653      4.8516      4.8250      4.7866    
  4.7373      4.6773      4.6067      4.5264      4.4388      4.3485      4.2624      4.1882      4.1336      4.1046    
  4.1046      4.1336      4.1882      4.2624      4.3485      4.4388      4.5220      4.6068      4.6820      4.7454    
  4.7959      4.8327      4.8550      4.8625      4.8550      4.8327      4.7959      4.7455      4.6820      4.6067    
  4.5220      4.4312      4.3396      4.2531      4.1780      4.1200      4.0834      4.0709      4.0834      4.1200    
  4.1780      4.2531      4.3396      4.4312      4.5264      4.6122      4.6844      4.7410      4.7819      4.8080    
  4.8207      4.8207      4.8080      4.7819      4.7410      4.6844      4.6122      4.5264      4.4312      4.3329    
  4.2387      4.1555      4.0891      4.0431      4.0197      4.0197      4.0431      4.0891      4.1555      4.2387    
  4.3329      4.4312      4.5276      4.5998      4.6527      4.6874      4.7074      4.7171      4.7198      4.7170    
  4.7074      4.6874      4.6527      4.5998      4.5276      4.4388      4.3396      4.2387      4.1451      4.0666    
  4.0082      3.9725      3.9606      3.9725      4.0082      4.0666      4.1451      4.2387      4.3396      4.4388    
  4.4921      4.5288      4.5435      4.5429      4.5359      4.5301      4.5301      4.5359      4.5429      4.5435    
  4.5288      4.4921      4.4309      4.3485      4.2531      4.1555      4.0666      3.9947      3.9450      3.9197    
  3.9197      3.9450      3.9947      4.0666      4.1555      4.2531      4.3485      4.4309      4.3746      4.3539    
  4.3161      4.2751      4.2444      4.2330      4.2444      4.2751      4.3161      4.3538      4.3746      4.3676    
  4.3289      4.2624      4.1780      4.0891      4.0082      3.9450      3.9052      3.8917      3.9052      3.9450    
  4.0082      4.0891      4.1780      4.2624      4.3289      4.3676      4.1335      4.0427      3.9510      3.8774    
  3.8366      3.8366      3.8774      3.9510      4.0427      4.1334      4.2037      4.2384      4.2317      4.1882    
  4.1200      4.0431      3.9725      3.9197      3.8917      3.8917      3.9197      3.9725      4.0431      4.1200    
  4.1882      4.2317      4.2384      4.2037      3.7522      3.5967      3.4652      3.3775      3.3468      3.3775    
  3.4652      3.5968      3.7522      3.9071      4.0365      4.1204      4.1510      4.1336      4.0834      4.0197    
  3.9606      3.9197      3.9052      3.9197      3.9606      4.0197      4.0834      4.1336      4.1510      4.1205    
  4.0365      3.9071      3.2543      3.0558      2.9092      2.8316      2.8316      2.9092      3.0558      3.2544    
  3.4804      3.7044      3.8960      4.0304      4.0974      4.1046      4.0709      4.0197      3.9725      3.9450    
  3.9450      3.9725      4.0197      4.0709      4.1046      4.0974      4.0304      3.8960      3.7044      3.4804    
  2.6971      2.4875      2.3545      2.3090      2.3545      2.4874      2.6971      2.9642      3.2610      3.5525    
  3.8024      3.9816      4.0787      4.1046      4.0834      4.0431      4.0082      3.9947      4.0082      4.0431    
  4.0834      4.1046      4.0787      3.9816      3.8024      3.5525      3.2610      2.9642      2.1543      1.9662    
  1.8702      1.8702      1.9662      2.1543      2.4245      2.7568      3.1195      3.4714      3.7696      3.9816    
  4.0974      4.1336      4.1200      4.0891      4.0666      4.0666      4.0891      4.1200      4.1336      4.0974    
  3.9816      3.7696      3.4714      3.1195      2.7568      2.4245      1.6926      1.5498      1.5024      1.5498    
  1.6927      1.9308      2.2569      2.6494      3.0708      3.4714      3.8024      4.0304      4.1510      4.1882    
  4.1780      4.1555      4.1451      4.1555      4.1780      4.1882      4.1510      4.0304      3.8024      3.4714    
  3.0708      2.6494      2.2569      1.9308      1.3515      1.2628      1.2628      1.3515      1.5355      1.8206    
  2.2007      2.6494      3.1195      3.5525      3.8959      4.1205      4.2317      4.2624      4.2531      4.2387    
  4.2387      4.2531      4.2624      4.2317      4.1205      3.8960      3.5525      3.1195      2.6494      2.2007    
  1.8206      1.5355      1.1357      1.0966      1.1357      1.2599      1.4849      1.8206      2.2569      2.7568    
  3.2610      3.7044      4.0365      4.2384      4.3289      4.3485      4.3396      4.3329      4.3396      4.3485    
  4.3289      4.2384      4.0365      3.7044      3.2610      2.7568      2.2569      1.8206      1.4849      1.2600    
  1.0244      1.0244      1.0970      1.2599      1.5355      1.9308      2.4245      2.9643      3.4804      3.9071    
  4.2037      4.3676      4.4309      4.4388      4.4312      4.4312      4.4388      4.4309      4.3676      4.2037    
  3.9071      3.4804      2.9642      2.4245      1.9308      1.5355      1.2600      1.0970      1.1341      1.1733    
  1.2997      1.5320      1.8818      2.3373      2.8567      3.3765      3.8298      4.1678      4.3740      4.4683    
  4.4907      4.4835      4.4775      4.4836      4.4907      4.4683      4.3740      4.1678      3.8298      3.3765    
  2.8567      2.3373      1.8818      1.5320      1.2997      1.1734      1.1733      1.2568      1.4395      1.7392    
  2.1561      2.6610      3.1971      3.6955      4.0968      4.3688      4.5154      4.5691      4.5727      4.5638    
  4.5638      4.5727      4.5691      4.5154      4.3688      4.0968      3.6954      3.1971      2.6610      2.1561    
  1.7392      1.4395      1.2568      1.1734      1.2997      1.4395      1.6916      2.0630      2.5358      3.0632    
  3.5798      4.0215      4.3454      4.5407      4.6289      4.6490      4.6415      4.6354      4.6415      4.6490    
  4.6289      4.5407      4.3454      4.0215      3.5798      3.0632      2.5359      2.0630      1.6915      1.4395    
  1.2997      1.2558      1.5320      1.7392      2.0630      2.4929      2.9920      3.5019      3.9596      4.3160    
  4.5496      4.6703      4.7100      4.7079      4.6973      4.6973      4.7079      4.7100      4.6703      4.5496    
  4.3160      3.9596      3.5019      2.9920      2.4929      2.0630      1.7392      1.5320      1.4334      1.4334    
  1.8818      2.1561      2.5358      2.9920      3.4745      3.9249      4.2926      4.5496      4.6960      4.7550    
  4.7614      4.7490      4.7420      4.7490      4.7614      4.7550      4.6960      4.5496      4.2926      3.9249    
  3.4745      2.9920      2.5358      2.1561      1.8818      1.7204      1.6677      1.7204      2.3373      2.6610    
  3.0632      3.5019      3.9249      4.2838      4.5476      4.7094      4.7843      4.8007      4.7897      4.7772    
  4.7772      4.7897      4.8007      4.7843      4.7094      4.5476      4.2838      3.9249      3.5019      3.0632    
  2.6610      2.3373      2.1162      2.0055      2.0055      2.1162      2.8567      3.1971      3.5798      3.9596    
  4.2926      4.5476      4.7135      4.7987      4.8248      4.8182      4.8032      4.7963      4.8032      4.8182    
  4.8247      4.7987      4.7135      4.5476      4.2927      3.9596      3.5798      3.1971      2.8567      2.5944    
  2.4312      2.3762      2.4312      2.5944      3.3765      3.6955      4.0215      4.3160      4.5496      4.7094    
  4.7987      4.8329      4.8329      4.8195      4.8085      4.8085      4.8195      4.8329      4.8329      4.7987    
  4.7094      4.5496      4.3160      4.0215      3.6955      3.3765      3.1032      2.9058      2.8030      2.8030    
  2.9058      3.1032      3.8298      4.0968      4.3454      4.5496      4.6960      4.7843      4.8248      4.8329    
  4.8251      4.8147      4.8102      4.8147      4.8251      4.8329      4.8248      4.7843      4.6960      4.5496    
  4.3454      4.0968      3.8299      3.5777      3.3726      3.2394      3.1934      3.2394      3.3726      3.5777    
  4.1678      4.3688      4.5407      4.6703      4.7550      4.8007      4.8182      4.8195      4.8147      4.8106    
  4.8106      4.8147      4.8195      4.8182      4.8007      4.7550      4.6703      4.5407      4.3688      4.1678    
  3.9600      3.7726      3.6315      3.5559      3.5559      3.6315      3.7726      3.9600      4.3740      4.5154    
  4.6289      4.7100      4.7614      4.7897      4.8032      4.8085      4.8102      4.8106      4.8102      4.8085    
  4.8032      4.7897      4.7614      4.7100      4.6289      4.5154      4.3740      4.2171      4.0632      3.9333    
  3.8467      3.8163      3.8467      3.9333      4.0632      4.2171      4.4683      4.5691      4.6490      4.7079    
  4.7490      4.7772      4.7963      4.8085      4.8147      4.8147      4.8085      4.7963      4.7772      4.7490    
  4.7079      4.6490      4.5691      4.4683      4.3523      4.2321      4.1225      4.0388      3.9934      3.9934    
  4.0387      4.1225      4.2321      4.3523      4.4907      4.5727      4.6415      4.6973      4.7420      4.7772    
  4.8032      4.8195      4.8251      4.8195      4.8032      4.7772      4.7420      4.6973      4.6415      4.5727    
  4.4907      4.3981      4.3011      4.2091      4.1329      4.0825      4.0648      4.0825      4.1329      4.2091    
  4.3011      4.3981      4.4835      4.5638      4.6354      4.6973      4.7490      4.7897      4.8182      4.8329    
  4.8329      4.8182      4.7897      4.7490      4.6973      4.6354      4.5638      4.4835      4.3971      4.3089    
  4.2253      4.1537      4.1012      4.0734      4.0734      4.1012      4.1537      4.2253      4.3089      4.3971    
  4.4775      4.5638      4.6415      4.7079      4.7614      4.8007      4.8247      4.8329      4.8248      4.8007    
  4.7614      4.7079      4.6415      4.5638      4.4775      4.3861      4.2946      4.2090      4.1350      4.0781    
  4.0423      4.0301      4.0423      4.0781      4.1350      4.2090      4.2946      4.3861      4.4836      4.5727    
  4.6490      4.7100      4.7550      4.7843      4.7987      4.7987      4.7843      4.7550      4.7100      4.6490    
  4.5727      4.4835      4.3861      4.2865      4.1920      4.1090      4.0430      3.9975      3.9743      3.9743    
  3.9975      4.0430      4.1090      4.1920      4.2866      4.3861      4.4907      4.5691      4.6289      4.6703    
  4.6960      4.7094      4.7135      4.7094      4.6960      4.6703      4.6289      4.5691      4.4907      4.3971    
  4.2946      4.1920      4.0978      4.0192      3.9611      3.9257      3.9138      3.9257      3.9611      4.0192    
  4.0978      4.1920      4.2946      4.3971      4.4683      4.5154      4.5407      4.5496      4.5496      4.5476    
  4.5476      4.5496      4.5496      4.5407      4.5154      4.4683      4.3981      4.3089      4.2090      4.1090    
  4.0192      3.9473      3.8978      3.8728      3.8728      3.8978      3.9473      4.0192      4.1090      4.2090    
  4.3089      4.3981      4.3740      4.3688      4.3454      4.3160      4.2926      4.2838      4.2927      4.3160    
  4.3454      4.3688      4.3740      4.3523      4.3011      4.2253      4.1350      4.0430      3.9611      3.8978    
  3.8584      3.8450      3.8584      3.8978      3.9611      4.0430      4.1350      4.2253      4.3011      4.3523    
  4.1678      4.0968      4.0215      3.9596      3.9249      3.9249      3.9596      4.0215      4.0968      4.1678    
  4.2171      4.2321      4.2091      4.1537      4.0781      3.9975      3.9257      3.8728      3.8450      3.8450    
  3.8728      3.9257      3.9975      4.0781      4.1537      4.2091      4.2321      4.2171      3.8298      3.6954    
  3.5798      3.5019      3.4745      3.5019      3.5798      3.6955      3.8299      3.9600      4.0632      4.1225    
  4.1329      4.1012      4.0423      3.9743      3.9138      3.8728      3.8584      3.8728      3.9138      3.9743    
  4.0423      4.1012      4.1329      4.1225      4.0632      3.9600      3.3765      3.1971      3.0632      2.9920    
  2.9920      3.0632      3.1971      3.3765      3.5777      3.7726      3.9333      4.0388      4.0825      4.0734    
  4.0301      3.9743      3.9257      3.8978      3.8978      3.9257      3.9743      4.0301      4.0734      4.0825    
  4.0388      3.9333      3.7726      3.5777      2.8567      2.6610      2.5359      2.4929      2.5358      2.6610    
  2.8567      3.1032      3.3726      3.6315      3.8467      3.9934      4.0648      4.0734      4.0423      3.9975    
  3.9611      3.9473      3.9611      3.9975      4.0423      4.0734      4.0648      3.9934      3.8467      3.6315    
  3.3726      3.1032      2.3373      2.1561      2.0630      2.0630      2.1561      2.3373      2.5944      2.9058    
  3.2394      3.5559      3.8163      3.9934      4.0825      4.1012      4.0781      4.0430      4.0192      4.0192    
  4.0430      4.0781      4.1012      4.0825      3.9934      3.8163      3.5559      3.2394      2.9058      2.5944    
  1.8818      1.7392      1.6915      1.7392      1.8818      2.1162      2.4312      2.8030      3.1934      3.5559    
  3.8467      4.0387      4.1329      4.1537      4.1350      4.1090      4.0978      4.1090      4.1350      4.1537    
  4.1329      4.0388      3.8467      3.5559      3.1934      2.8030      2.4312      2.1162      1.5320      1.4395    
  1.4395      1.5320      1.7204      2.0055      2.3762      2.8030      3.2394      3.6315      3.9333      4.1225    
  4.2091      4.2253      4.2090      4.1920      4.1920      4.2090      4.2253      4.2091      4.1225      3.9333    
  3.6315      3.2394      2.8030      2.3762      2.0055      1.7204      1.2997      1.2568      1.2997      1.4334    
  1.6677      2.0055      2.4312      2.9058      3.3726      3.7726      4.0632      4.2321      4.3011      4.3089    
  4.2946      4.2866      4.2946      4.3089      4.3011      4.2321      4.0632      3.7726      3.3726      2.9058    
  2.4312      2.0055      1.6677      1.4334      1.1734      1.1734      1.2558      1.4334      1.7204      2.1162    
  2.5944      3.1032      3.5777      3.9600      4.2171      4.3523      4.3981      4.3971      4.3861      4.3861    
  4.3971      4.3981      4.3523      4.2171      3.9600      3.5777      3.1032      2.5944      2.1162      1.7204    
  1.4334      1.2558      1.4166      1.4621      1.6033      1.8489      2.1985      2.6318      3.1051      3.5606    
  3.9424      4.2138      4.3684      4.4293      4.4335      4.4184      4.4102      4.4184      4.4335      4.4292    
  4.3684      4.2138      3.9424      3.5606      3.1051      2.6318      2.1985      1.8489      1.6034      1.4621    
  1.4621      1.5569      1.7547      2.0612      2.4658      2.9344      3.4129      3.8415      4.1730      4.3861    
  4.4913      4.5206      4.5122      4.4989      4.4989      4.5122      4.5206      4.4913      4.3861      4.1730    
  3.8415      3.4129      2.9344      2.4658      2.0612      1.7547      1.5569      1.4621      1.6033      1.7547    
  2.0148      2.3795      2.8239      3.3006      3.7514      4.1232      4.3842      4.5321      4.5901      4.5943    
  4.5799      4.5722      4.5800      4.5943      4.5901      4.5321      4.3843      4.1232      3.7513      3.3006    
  2.8239      2.3795      2.0148      1.7547      1.6033      1.5542      1.8489      2.0612      2.3795      2.7856    
  3.2402      3.6895      4.0796      4.3723      4.5549      4.6412      4.6614      4.6504      4.6368      4.6368    