Mg                                      
   1.00000000000000     
     3.194050    0.000000    0.000000
     1.597025    2.766128    0.000000
     0.000000    0.000000    5.171980
   Mg
     2
Direct
  0.000000  0.000000  0.000000
  0.333333  0.333333  0.500000
 
   28   28   40
 0.94954830930E+00 0.98031594715E+00 0.10853688088E+01 0.12939892790E+01 0.16304948322E+01
 0.20927355154E+01 0.26423469381E+01 0.32117451352E+01 0.37246422353E+01 0.41207929287E+01
 0.43742235671E+01 0.45001254523E+01 0.45403960886E+01 0.45414118195E+01 0.45375790575E+01
 0.45414117817E+01 0.45403960087E+01 0.45001254068E+01 0.43742236408E+01 0.41207930320E+01
 0.37246421866E+01 0.32117450323E+01 0.26423472510E+01 0.20927365552E+01 0.16304961883E+01
 0.12939900913E+01 0.10853687112E+01 0.98031550569E+00 0.98031594715E+00 0.10479672529E+01
 0.12071693302E+01 0.14880899347E+01 0.19027652263E+01 0.24283243277E+01 0.30069002850E+01
 0.35619945967E+01 0.40232136692E+01 0.43480386886E+01 0.45331122044E+01 0.46103618088E+01
 0.46260008158E+01 0.46217820519E+01 0.46217821597E+01 0.46260009545E+01 0.46103618756E+01
 0.45331125155E+01 0.43480392953E+01 0.40232140733E+01 0.35619950918E+01 0.30069026930E+01
 0.24283293096E+01 0.19027686185E+01 0.14880844495E+01 0.12071525794E+01 0.10479475249E+01
 0.98030708891E+00 0.10853688088E+01 0.12071693302E+01 0.14410217344E+01 0.18061053304E+01
 0.22929246869E+01 0.28561421990E+01 0.34250500240E+01 0.39259112709E+01 0.43051951958E+01
 0.45439897623E+01 0.46607902918E+01 0.46966675358E+01 0.46961198057E+01 0.46919641960E+01
 0.46961198699E+01 0.46966674738E+01 0.46607902838E+01 0.45439900639E+01 0.43051953152E+01
 0.39259106594E+01 0.34250499145E+01 0.28561450357E+01 0.22929300852E+01 0.18061077088E+01
 0.14410148963E+01 0.12071545333E+01 0.10853562714E+01 0.10488004943E+01 0.12939892790E+01
 0.14880899347E+01 0.18061053304E+01 0.22466745213E+01 0.27764514908E+01 0.33341053296E+01
 0.38483249026E+01 0.42602838401E+01 0.45400844023E+01 0.46930230025E+01 0.47516178170E+01
 0.47585209208E+01 0.47512595070E+01 0.47512594005E+01 0.47585206670E+01 0.47516176026E+01
 0.46930229603E+01 0.45400842552E+01 0.42602828796E+01 0.38483227386E+01 0.33341028446E+01
 0.27764507842E+01 0.22466774829E+01 0.18061120107E+01 0.14880982024E+01 0.12939959798E+01
 0.12054816844E+01 0.12054791298E+01 0.16304948322E+01 0.19027652263E+01 0.22929246869E+01
 0.27764514908E+01 0.33022807501E+01 0.38054668996E+01 0.42269751982E+01 0.45305573014E+01
 0.47109715065E+01 0.47909907724E+01 0.48079139264E+01 0.47997181256E+01 0.47937107313E+01
 0.47997180216E+01 0.48079138474E+01 0.47909907240E+01 0.47109714914E+01 0.45305574648E+01
 0.42269750975E+01 0.38054648190E+01 0.33022753570E+01 0.27764453007E+01 0.22929245430E+01
 0.19027765474E+01 0.16305142362E+01 0.14755064818E+01 0.14259531442E+01 0.14754911590E+01
 0.20927355154E+01 0.24283243277E+01 0.28561421990E+01 0.33341053296E+01 0.38054668996E+01
 0.42147468982E+01 0.45234706448E+01 0.47192953357E+01 0.48160117045E+01 0.48436955430E+01
 0.48372267422E+01 0.48258258071E+01 0.48258259000E+01 0.48372269870E+01 0.48436957143E+01
 0.48160116410E+01 0.47192957389E+01 0.45234726917E+01 0.42147499264E+01 0.38054672513E+01
 0.33340996902E+01 0.28561327592E+01 0.24283185896E+01 0.20927388051E+01 0.18691614583E+01
 0.17594098373E+01 0.17594052279E+01 0.18691527371E+01 0.26423469381E+01 0.30069002850E+01
 0.34250500240E+01 0.38483249026E+01 0.42269751982E+01 0.45234706448E+01 0.47216188203E+01
 0.48280815264E+01 0.48654061633E+01 0.48631230678E+01 0.48489146629E+01 0.48419195503E+01
 0.48489147886E+01 0.48631232968E+01 0.48654061189E+01 0.48280810120E+01 0.47216189325E+01
 0.45234733406E+01 0.42269807400E+01 0.38483300592E+01 0.34250499712E+01 0.30068928425E+01
 0.26423346705E+01 0.23666843724E+01 0.21979839512E+01 0.21415776770E+01 0.21979909066E+01
 0.23666962067E+01 0.32117451352E+01 0.35619945967E+01 0.39259112709E+01 0.42602838401E+01
 0.45305573014E+01 0.47192953357E+01 0.48280815264E+01 0.48726898969E+01 0.48764296030E+01
 0.48630983103E+01 0.48513783091E+01 0.48513781906E+01 0.48630981846E+01 0.48764296384E+01
 0.48726894688E+01 0.48280797346E+01 0.47192927768E+01 0.45305569529E+01 0.42602889128E+01
 0.39259211055E+01 0.35620030345E+01 0.32117446347E+01 0.29161553313E+01 0.27054816632E+01
 0.25967769938E+01 0.25967835606E+01 0.27054960656E+01 0.29161664541E+01 0.37246422353E+01
 0.40232136692E+01 0.43051951958E+01 0.45400844023E+01 0.47109715065E+01 0.48160117045E+01
 0.48654061633E+01 0.48764296030E+01 0.48679154341E+01 0.48558418259E+01 0.48506222719E+01
 0.48558415870E+01 0.48679153827E+01 0.48764300293E+01 0.48654061964E+01 0.48160092953E+01
 0.47109658239E+01 0.45400786243E+01 0.43051952284E+01 0.40232222469E+01 0.37246547144E+01
 0.34461383922E+01 0.32219521294E+01 0.30776747136E+01 0.30280326387E+01 0.30776779681E+01
 0.32219520810E+01 0.34461303653E+01 0.41207929287E+01 0.43480386886E+01 0.45439897623E+01
 0.46930230025E+01 0.47909907724E+01 0.48436955430E+01 0.48631230678E+01 0.48630983103E+01
 0.48558418259E+01 0.48500180134E+01 0.48500179805E+01 0.48558417483E+01 0.48630986941E+01
 0.48631248171E+01 0.48436980995E+01 0.47909909307E+01 0.46930175335E+01 0.45439799185E+01
 0.43480307722E+01 0.41207930591E+01 0.38880513480E+01 0.36800264168E+01 0.35244212810E+01
 0.34414348963E+01 0.34414316455E+01 0.35244122247E+01 0.36800146589E+01 0.38880428009E+01
 0.43742235671E+01 0.45331122044E+01 0.46607902918E+01 0.47516178170E+01 0.48079139264E+01
 0.48372267422E+01 0.48489146629E+01 0.48513783091E+01 0.48506222719E+01 0.48500179805E+01
 0.48506223146E+01 0.48513779854E+01 0.48489147090E+01 0.48372291865E+01 0.48079194693E+01
 0.47516233454E+01 0.46607903863E+01 0.45331042016E+01 0.43742111241E+01 0.41983829923E+01
 0.40265223748E+01 0.38821641968E+01 0.37861879608E+01 0.37525684651E+01 0.37861812224E+01
 0.38821572840E+01 0.40265226345E+01 0.41983920789E+01 0.45001254523E+01 0.46103618088E+01
 0.46966675358E+01 0.47585209208E+01 0.47997181256E+01 0.48258258071E+01 0.48419195503E+01
 0.48513781906E+01 0.48558415870E+01 0.48558417483E+01 0.48513779854E+01 0.48419179074E+01
 0.48258233544E+01 0.47997179868E+01 0.47585262932E+01 0.46966775021E+01 0.46103701687E+01
 0.45001254377E+01 0.43724957313E+01 0.42400018991E+01 0.41190884517E+01 0.40267164048E+01
 0.39766830242E+01 0.39766823659E+01 0.40267172708E+01 0.41190952168E+01 0.42400134483E+01
 0.43725047825E+01 0.45403960886E+01 0.46260008158E+01 0.46961198057E+01 0.47512595070E+01
 0.47937107313E+01 0.48258259000E+01 0.48489147886E+01 0.48630981846E+01 0.48679153827E+01
 0.48630986941E+01 0.48489147090E+01 0.48258233544E+01 0.47937051164E+01 0.47512539288E+01
 0.46961198555E+01 0.46260091326E+01 0.45404084717E+01 0.44421905900E+01 0.43383122994E+01
 0.42391703169E+01 0.41567387340E+01 0.41020733313E+01 0.40829256573E+01 0.41020770275E+01
 0.41567453921E+01 0.42391763856E+01 0.43383122590E+01 0.44421821228E+01 0.45414118195E+01
 0.46217820519E+01 0.46919641960E+01 0.47512594005E+01 0.47997180216E+01 0.48372269870E+01
 0.48631232968E+01 0.48764296384E+01 0.48764300293E+01 0.48631248171E+01 0.48372291865E+01
 0.47997179868E+01 0.47512539288E+01 0.46919542942E+01 0.46217738820E+01 0.45414117357E+01
 0.44533126008E+01 0.43622375895E+01 0.42750706694E+01 0.41998727965E+01 0.41444857317E+01
 0.41150945765E+01 0.41150962887E+01 0.41444886489E+01 0.41998721207E+01 0.42750634279E+01
 0.43622262248E+01 0.44533040456E+01 0.45375790575E+01 0.46217821597E+01 0.46961198699E+01
 0.47585206670E+01 0.48079138474E+01 0.48436957143E+01 0.48654061189E+01 0.48726894688E+01
 0.48654061964E+01 0.48436980995E+01 0.48079194693E+01 0.47585262932E+01 0.46961198555E+01
 0.46217738820E+01 0.45375665377E+01 0.44470375414E+01 0.43552584572E+01 0.42683847066E+01
 0.41928291045E+01 0.41343671232E+01 0.40974515511E+01 0.40848381118E+01 0.40974516445E+01
 0.41343642340E+01 0.41928221064E+01 0.42683778639E+01 0.43552583267E+01 0.44470462777E+01
 0.45414117817E+01 0.46260009545E+01 0.46966674738E+01 0.47516176026E+01 0.47909907240E+01
 0.48160116410E+01 0.48280810120E+01 0.48280797346E+01 0.48160092953E+01 0.47909909307E+01
 0.47516233454E+01 0.46966775021E+01 0.46260091326E+01 0.45414117357E+01 0.44470375414E+01
 0.43491101302E+01 0.42549467462E+01 0.41716468390E+01 0.41049701138E+01 0.40588050464E+01
 0.40352885463E+01 0.40352879584E+01 0.40588030394E+01 0.41049675389E+01 0.41716471872E+01
 0.42549533539E+01 0.43491212975E+01 0.44470462686E+01 0.45403960087E+01 0.46103618756E+01
 0.46607902838E+01 0.46930229603E+01 0.47109714914E+01 0.47192957389E+01 0.47216189325E+01
 0.47192927768E+01 0.47109658239E+01 0.46930175335E+01 0.46607903863E+01 0.46103701687E+01
 0.45404084717E+01 0.44533126008E+01 0.43552584572E+01 0.42549467462E+01 0.41615958025E+01
 0.40830081929E+01 0.40244587637E+01 0.39886865030E+01 0.39766949943E+01 0.39886855112E+01
 0.40244587736E+01 0.40830117107E+01 0.41616029657E+01 0.42549534108E+01 0.43552585726E+01
 0.44533039982E+01 0.45001254068E+01 0.45331125155E+01 0.45439900639E+01 0.45400842552E+01
 0.45305574648E+01 0.45234726917E+01 0.45234733406E+01 0.45305569529E+01 0.45400786243E+01
 0.45439799185E+01 0.45331042016E+01 0.45001254377E+01 0.44421905900E+01 0.43622375895E+01
 0.42683847066E+01 0.41716468390E+01 0.40830081929E+01 0.40110924472E+01 0.39612266130E+01
 0.39358965211E+01 0.39358961980E+01 0.39612267755E+01 0.40110946883E+01 0.40830113872E+01
 0.41716468212E+01 0.42683781638E+01 0.43622264878E+01 0.44421819049E+01 0.43742236408E+01
 0.43480392953E+01 0.43051953152E+01 0.42602828796E+01 0.42269750975E+01 0.42147499264E+01
 0.42269807400E+01 0.42602889128E+01 0.43051952284E+01 0.43480307722E+01 0.43742111241E+01
 0.43724957313E+01 0.43383122994E+01 0.42750706694E+01 0.41928291045E+01 0.41049701138E+01
 0.40244587637E+01 0.39612266130E+01 0.39213738794E+01 0.39078197742E+01 0.39213738808E+01
 0.39612271144E+01 0.40244587089E+01 0.41049668863E+01 0.41928220702E+01 0.42750639413E+01
 0.43383121088E+01 0.43725042785E+01 0.41207930320E+01 0.40232140733E+01 0.39259106594E+01
 0.38483227386E+01 0.38054648190E+01 0.38054672513E+01 0.38483300592E+01 0.39259211055E+01
 0.40232222469E+01 0.41207930591E+01 0.41983829923E+01 0.42400018991E+01 0.42391703169E+01
 0.41998727965E+01 0.41343671232E+01 0.40588050464E+01 0.39886865030E+01 0.39358965211E+01
 0.39078197742E+01 0.39078199035E+01 0.39358967202E+01 0.39886859301E+01 0.40588026877E+01
 0.41343639321E+01 0.41998726324E+01 0.42391766390E+01 0.42400128948E+01 0.41983915658E+01
 0.37246421866E+01 0.35619950918E+01 0.34250499145E+01 0.33341028446E+01 0.33022753570E+01
 0.33340996902E+01 0.34250499712E+01 0.35620030345E+01 0.37246547144E+01 0.38880513480E+01
 0.40265223748E+01 0.41190884517E+01 0.41567387340E+01 0.41444857317E+01 0.40974515511E+01
 0.40352885463E+01 0.39766949943E+01 0.39358961980E+01 0.39213738808E+01 0.39358967202E+01
 0.39766951313E+01 0.40352878640E+01 0.40974514759E+01 0.41444888595E+01 0.41567456380E+01
 0.41190951488E+01 0.40265225550E+01 0.38880426154E+01 0.32117450323E+01 0.30069026930E+01
 0.28561450357E+01 0.27764507842E+01 0.27764453007E+01 0.28561327592E+01 0.30068928425E+01
 0.32117446347E+01 0.34461383922E+01 0.36800264168E+01 0.38821641968E+01 0.40267164048E+01
 0.41020733313E+01 0.41150945765E+01 0.40848381118E+01 0.40352879584E+01 0.39886855112E+01
 0.39612267755E+01 0.39612271144E+01 0.39886859301E+01 0.40352878640E+01 0.40848384858E+01
 0.41150968945E+01 0.41020766293E+01 0.40267166544E+01 0.38821579864E+01 0.36800154974E+01
 0.34461297445E+01 0.26423472510E+01 0.24283293096E+01 0.22929300852E+01 0.22466774829E+01
 0.22929245430E+01 0.24283185896E+01 0.26423346705E+01 0.29161553313E+01 0.32219521294E+01
 0.35244212810E+01 0.37861879608E+01 0.39766830242E+01 0.40829256573E+01 0.41150962887E+01
 0.40974516445E+01 0.40588030394E+01 0.40244587736E+01 0.40110946883E+01 0.40244587089E+01
 0.40588026877E+01 0.40974514759E+01 0.41150968945E+01 0.40829258183E+01 0.39766799723E+01
 0.37861810704E+01 0.35244147346E+01 0.32219520126E+01 0.29161636353E+01 0.20927365552E+01
 0.19027686185E+01 0.18061077088E+01 0.18061120107E+01 0.19027765474E+01 0.20927388051E+01
 0.23666843724E+01 0.27054816632E+01 0.30776747136E+01 0.34414348963E+01 0.37525684651E+01
 0.39766823659E+01 0.41020770275E+01 0.41444886489E+01 0.41343642340E+01 0.41049675389E+01
 0.40830117107E+01 0.40830113872E+01 0.41049668863E+01 0.41343639321E+01 0.41444888595E+01
 0.41020766293E+01 0.39766799723E+01 0.37525650799E+01 0.34414346841E+01 0.30776811128E+01
 0.27054922035E+01 0.23666912515E+01 0.16304961883E+01 0.14880844495E+01 0.14410148963E+01
 0.14880982024E+01 0.16305142362E+01 0.18691614583E+01 0.21979839512E+01 0.25967769938E+01
 0.30280326387E+01 0.34414316455E+01 0.37861812224E+01 0.40267172708E+01 0.41567453921E+01
 0.41998721207E+01 0.41928221064E+01 0.41716471872E+01 0.41616029657E+01 0.41716468212E+01
 0.41928220702E+01 0.41998726324E+01 0.41567456380E+01 0.40267166544E+01 0.37861810704E+01
 0.34414346841E+01 0.30280396722E+01 0.25967840192E+01 0.21979838422E+01 0.18691501982E+01
 0.12939900913E+01 0.12071525794E+01 0.12071545333E+01 0.12939959798E+01 0.14755064818E+01
 0.17594098373E+01 0.21415776770E+01 0.25967835606E+01 0.30776779681E+01 0.35244122247E+01
 0.38821572840E+01 0.41190952168E+01 0.42391763856E+01 0.42750634279E+01 0.42683778639E+01
 0.42549533539E+01 0.42549534108E+01 0.42683781638E+01 0.42750639413E+01 0.42391766390E+01
 0.41190951488E+01 0.38821579864E+01 0.35244147346E+01 0.30776811128E+01 0.25967840192E+01
 0.21415730238E+01 0.17594012092E+01 0.14754976427E+01 0.10853687112E+01 0.10479475249E+01
 0.10853562714E+01 0.12054816844E+01 0.14259531442E+01 0.17594052279E+01 0.21979909066E+01
 0.27054960656E+01 0.32219520810E+01 0.36800146589E+01 0.40265226345E+01 0.42400134483E+01
 0.43383122590E+01 0.43622262248E+01 0.43552583267E+01 0.43491212975E+01 0.43552585726E+01
 0.43622264878E+01 0.43383121088E+01 0.42400128948E+01 0.40265225550E+01 0.36800154974E+01
 0.32219520126E+01 0.27054922035E+01 0.21979838422E+01 0.17594012092E+01 0.14259589046E+01
 0.12054960297E+01 0.98031550569E+00 0.98030708891E+00 0.10488004943E+01 0.12054791298E+01
 0.14754911590E+01 0.18691527371E+01 0.23666962067E+01 0.29161664541E+01 0.34461303653E+01
 0.38880428009E+01 0.41983920789E+01 0.43725047825E+01 0.44421821228E+01 0.44533040456E+01
 0.44470462777E+01 0.44470462686E+01 0.44533039982E+01 0.44421819049E+01 0.43725042785E+01
 0.41983915658E+01 0.38880426154E+01 0.34461297445E+01 0.29161636353E+01 0.23666912515E+01
 0.18691501982E+01 0.14754976427E+01 0.12054960297E+01 0.10488195489E+01 0.99117431970E+00
 0.10243913877E+01 0.11356955614E+01 0.13514905260E+01 0.16926413122E+01 0.21543033793E+01
 0.26970961475E+01 0.32543561341E+01 0.37522267979E+01 0.41334439584E+01 0.43745613717E+01
 0.44921195950E+01 0.45276258766E+01 0.45264245006E+01 0.45219806706E+01 0.45264312857E+01
 0.45276257976E+01 0.44921127385E+01 0.43745615103E+01 0.41334510262E+01 0.37522267665E+01
 0.32543485708E+01 0.26970948039E+01 0.21543093296E+01 0.16926425602E+01 0.13514879113E+01
 0.11357014035E+01 0.10244025051E+01 0.10243913877E+01 0.10966404614E+01 0.12628510295E+01
 0.15497627671E+01 0.19661876171E+01 0.24874464509E+01 0.30558272567E+01 0.35967483981E+01
 0.40426852332E+01 0.43538533816E+01 0.45288301488E+01 0.45998278587E+01 0.46122339368E+01
 0.46067469552E+01 0.46067515521E+01 0.46122384896E+01 0.45998232472E+01 0.45288258613E+01
 0.43538586582E+01 0.40426904735E+01 0.35967444626E+01 0.30558245345E+01 0.24874546971E+01
 0.19661946206E+01 0.15497535921E+01 0.12628327016E+01 0.10966287626E+01 0.10243886276E+01
 0.11356955614E+01 0.12628510295E+01 0.15023961488E+01 0.18702137956E+01 0.23544607118E+01
 0.29092462942E+01 0.34651671235E+01 0.39510251192E+01 0.43160530559E+01 0.45434854325E+01
 0.46527480609E+01 0.46844172054E+01 0.46819649281E+01 0.46772967618E+01 0.46819705508E+01
 0.46844170359E+01 0.46527423057E+01 0.45434856540E+01 0.43160588885E+01 0.39510248994E+01
 0.34651621082E+01 0.29092499837E+01 0.23544722074E+01 0.18702155004E+01 0.15023814098E+01
 0.12628330037E+01 0.11356862324E+01 0.10969691502E+01 0.13514905260E+01 0.15497627671E+01
 0.18702137956E+01 0.23089746706E+01 0.28316204965E+01 0.33775183171E+01 0.38774373803E+01
 0.42751414047E+01 0.45429303069E+01 0.46874081317E+01 0.47409892878E+01 0.47454435800E+01
 0.47372825780E+01 0.47372857299E+01 0.47454466285E+01 0.47409858995E+01 0.46874047920E+01
 0.45429331394E+01 0.42751433997E+01 0.38774321697E+01 0.33775138031E+01 0.28316251029E+01
 0.23089823135E+01 0.18702158676E+01 0.15497629575E+01 0.13514946501E+01 0.12599496491E+01
 0.12599464840E+01 0.16926413122E+01 0.19661876171E+01 0.23544607118E+01 0.28316204965E+01
 0.33468034065E+01 0.38366463255E+01 0.42443888616E+01 0.45358959388E+01 0.47073837064E+01
 0.47818568549E+01 0.47959426188E+01 0.47866105904E+01 0.47803329220E+01 0.47866140138E+01
 0.47959427351E+01 0.47818535689E+01 0.47073836508E+01 0.45358990524E+01 0.42443879355E+01
 0.38366402296E+01 0.33467984805E+01 0.28316194511E+01 0.23544624761E+01 0.19661960211E+01
 0.16926594473E+01 0.15354715092E+01 0.14849096381E+01 0.15354543006E+01 0.21543033793E+01
 0.24874464509E+01 0.29092462942E+01 0.33775183171E+01 0.38366463255E+01 0.42330384715E+01
 0.45301348912E+01 0.47170491648E+01 0.48080208943E+01 0.48326772667E+01 0.48249879998E+01
 0.48132564938E+01 0.48132582436E+01 0.48249899393E+01 0.48326759298E+01 0.48080194372E+01
 0.47170514216E+01 0.45301383482E+01 0.42330388165E+01 0.38366433665E+01 0.33775129669E+01
 0.29092387355E+01 0.24874416061E+01 0.21543092308E+01 0.19308482475E+01 0.18205628194E+01
 0.18205549371E+01 0.19308339117E+01 0.26970961475E+01 0.30558272567E+01 0.34651671235E+01
 0.38774373803E+01 0.42443888616E+01 0.45301348912E+01 0.47198414837E+01 0.48207090393E+01
 0.48550303799E+01 0.48515784555E+01 0.48371371268E+01 0.48301512913E+01 0.48371385824E+01
 0.48515785081E+01 0.48550288530E+01 0.48207088929E+01 0.47198438238E+01 0.45301382559E+01
 0.42443925933E+01 0.38774405734E+01 0.34651656990E+01 0.30558182710E+01 0.26970840618E+01
 0.24244519525E+01 0.22568728597E+01 0.22006945192E+01 0.22568746740E+01 0.24244595281E+01
 0.32543561341E+01 0.35967483981E+01 0.39510251192E+01 0.42751414047E+01 0.45358959388E+01
 0.47170491648E+01 0.48207090393E+01 0.48625405888E+01 0.48652688781E+01 0.48518905745E+01
 0.48403602566E+01 0.48403606781E+01 0.48518908365E+01 0.48652679551E+01 0.48625392780E+01
 0.48207080833E+01 0.47170483141E+01 0.45358967054E+01 0.42751470687E+01 0.39510349088E+01
 0.35967548158E+01 0.32543519785E+01 0.29642428820E+01 0.27567548240E+01 0.26494294600E+01
 0.26494351443E+01 0.27567686459E+01 0.29642562586E+01 0.37522267979E+01 0.40426852332E+01
 0.43160530559E+01 0.45429303069E+01 0.47073837064E+01 0.48080208943E+01 0.48550303799E+01
 0.48652688781E+01 0.48569143623E+01 0.48452701991E+01 0.48402545281E+01 0.48452705400E+01
 0.48569142668E+01 0.48652684174E+01 0.48550297081E+01 0.48080184309E+01 0.47073784316E+01
 0.45429259014E+01 0.43160557916E+01 0.40426960956E+01 0.37522385603E+01 0.34804200060E+01
 0.32610102443E+01 0.31195019623E+01 0.30707552425E+01 0.31195074252E+01 0.32610142401E+01
 0.34804156988E+01 0.41334439584E+01 0.43538533816E+01 0.45434854325E+01 0.46874081317E+01
 0.47818568549E+01 0.48326772667E+01 0.48515784555E+01 0.48518905745E+01 0.48452701991E+01
 0.48399017312E+01 0.48399021044E+01 0.48452707515E+01 0.48518910411E+01 0.48515798078E+01
 0.48326790644E+01 0.47818555686E+01 0.46874011244E+01 0.45434759002E+01 0.43538485029E+01
 0.41334478087E+01 0.39071422768E+01 0.37044206904E+01 0.35525123583E+01 0.34714028780E+01
 0.34714006791E+01 0.35525056221E+01 0.37044103314E+01 0.39071322702E+01 0.43745613717E+01
 0.45288301488E+01 0.46527480609E+01 0.47409892878E+01 0.47959426188E+01 0.48249879998E+01
 0.48371371268E+01 0.48403602566E+01 0.48402545281E+01 0.48399021044E+01 0.48402550662E+01
 0.48403604071E+01 0.48371376123E+01 0.48249910224E+01 0.47959480286E+01 0.47409928328E+01
 0.46527450600E+01 0.45288204384E+01 0.43745500854E+01 0.42036945967E+01 0.40365334951E+01
 0.38959551188E+01 0.38024053439E+01 0.37696193701E+01 0.38023979063E+01 0.38959465316E+01
 0.40365309701E+01 0.42037007197E+01 0.44921195950E+01 0.45998278587E+01 0.46844172054E+01
 0.47454435800E+01 0.47866105904E+01 0.48132564938E+01 0.48301512913E+01 0.48403606781E+01
 0.48452705400E+01 0.48452707515E+01 0.48403604071E+01 0.48301495528E+01 0.48132547841E+01
 0.47866122815E+01 0.47454503692E+01 0.46844263820E+01 0.45998333112E+01 0.44921164027E+01
 0.43675794067E+01 0.42383585328E+01 0.41204457949E+01 0.40303647170E+01 0.39815697343E+01
 0.39815678721E+01 0.40303628925E+01 0.41204502597E+01 0.42383695676E+01 0.43675901270E+01
 0.45276258766E+01 0.46122339368E+01 0.46819649281E+01 0.47372825780E+01 0.47803329220E+01
 0.48132582436E+01 0.48371385824E+01 0.48518908365E+01 0.48569142668E+01 0.48518910411E+01
 0.48371376123E+01 0.48132547841E+01 0.47803277081E+01 0.47372792132E+01 0.46819678066E+01
 0.46122438327E+01 0.45276375048E+01 0.44309449530E+01 0.43289311002E+01 0.42317155251E+01
 0.41509600517E+01 0.40974343216E+01 0.40786897418E+01 0.40974367377E+01 0.41509661516E+01
 0.42317232590E+01 0.43289342783E+01 0.44309392691E+01 0.45264245006E+01 0.46067469552E+01
 0.46772967618E+01 0.47372857299E+01 0.47866140138E+01 0.48249899393E+01 0.48515785081E+01
 0.48652679551E+01 0.48652684174E+01 0.48515798078E+01 0.48249910224E+01 0.47866122815E+01
 0.47372792132E+01 0.46772876213E+01 0.46067414580E+01 0.45264277258E+01 0.44387970755E+01
 0.43485309617E+01 0.42623630072E+01 0.41881623741E+01 0.41335754729E+01 0.41046286252E+01
 0.41046304153E+01 0.41335792213E+01 0.41881638675E+01 0.42623582106E+01 0.43485202790E+01
 0.44387866039E+01 0.45219806706E+01 0.46067515521E+01 0.46819705508E+01 0.47454466285E+01
 0.47959427351E+01 0.48326759298E+01 0.48550288530E+01 0.48625392780E+01 0.48550297081E+01
 0.48326790644E+01 0.47959480286E+01 0.47454503692E+01 0.46819678066E+01 0.46067414580E+01
 0.45219687957E+01 0.44312365820E+01 0.43395860108E+01 0.42530794960E+01 0.41780018428E+01
 0.41199959281E+01 0.40834030046E+01 0.40709058315E+01 0.40834039820E+01 0.41199943341E+01
 0.41779953488E+01 0.42530711634E+01 0.43395826751E+01 0.44312423975E+01 0.45264312857E+01
 0.46122384896E+01 0.46844170359E+01 0.47409858995E+01 0.47818535689E+01 0.48080194372E+01
 0.48207088929E+01 0.48207080833E+01 0.48080184309E+01 0.47818555686E+01 0.47409928328E+01
 0.46844263820E+01 0.46122438327E+01 0.45264277258E+01 0.44312365820E+01 0.43329022100E+01
 0.42386667064E+01 0.41555074052E+01 0.40890559629E+01 0.40430968236E+01 0.40196993520E+01
 0.40196989949E+01 0.40430950438E+01 0.40890526415E+01 0.41555056417E+01 0.42386708920E+01
 0.43329126029E+01 0.44312472184E+01 0.45276257976E+01 0.45998232472E+01 0.46527423057E+01
 0.46874047920E+01 0.47073836508E+01 0.47170514216E+01 0.47198438238E+01 0.47170483141E+01
 0.47073784316E+01 0.46874011244E+01 0.46527450600E+01 0.45998333112E+01 0.45276375048E+01
 0.44387970755E+01 0.43395860108E+01 0.42386667064E+01 0.41451227420E+01 0.40665859915E+01
 0.40081778378E+01 0.39725293151E+01 0.39605850170E+01 0.39725280213E+01 0.40081770254E+01
 0.40665883371E+01 0.41451293896E+01 0.42386747073E+01 0.43395892264E+01 0.44387914586E+01
 0.44921127385E+01 0.45288258613E+01 0.45434856540E+01 0.45429331394E+01 0.45358990524E+01
 0.45301383482E+01 0.45301382559E+01 0.45358967054E+01 0.45429259014E+01 0.45434759002E+01
 0.45288204384E+01 0.44921164027E+01 0.44309449530E+01 0.43485309617E+01 0.42530794960E+01
 0.41555074052E+01 0.40665859915E+01 0.39946972115E+01 0.39449630755E+01 0.39197318075E+01
 0.39197312097E+01 0.39449627219E+01 0.39946993685E+01 0.40665901116E+01 0.41555093945E+01
 0.42530751855E+01 0.43485206322E+01 0.44309343994E+01 0.43745615103E+01 0.43538586582E+01
 0.43160588885E+01 0.42751433997E+01 0.42443879355E+01 0.42330388165E+01 0.42443925933E+01
 0.42751470687E+01 0.43160557916E+01 0.43538485029E+01 0.43745500854E+01 0.43675794067E+01
 0.43289311002E+01 0.42623630072E+01 0.41780018428E+01 0.40890559629E+01 0.40081778378E+01
 0.39449630755E+01 0.39052362658E+01 0.38917433313E+01 0.39052359520E+01 0.39449637450E+01
 0.40081788554E+01 0.40890540623E+01 0.41779951891E+01 0.42623548803E+01 0.43289279399E+01
 0.43675849130E+01 0.41334510262E+01 0.40426904735E+01 0.39510248994E+01 0.38774321697E+01
 0.38366402296E+01 0.38366433665E+01 0.38774405734E+01 0.39510349088E+01 0.40426960956E+01
 0.41334478087E+01 0.42036945967E+01 0.42383585328E+01 0.42317155251E+01 0.41881623741E+01
 0.41199959281E+01 0.40430968236E+01 0.39725293151E+01 0.39197318075E+01 0.38917433313E+01
 0.38917433842E+01 0.39197320446E+01 0.39725291489E+01 0.40430947299E+01 0.41199919215E+01
 0.41881601292E+01 0.42317196569E+01 0.42383689464E+01 0.42037049937E+01 0.37522267665E+01
 0.35967444626E+01 0.34651621082E+01 0.33775138031E+01 0.33467984805E+01 0.33775129669E+01
 0.34651656990E+01 0.35967548158E+01 0.37522385603E+01 0.39071422768E+01 0.40365334951E+01
 0.41204457949E+01 0.41509600517E+01 0.41335754729E+01 0.40834030046E+01 0.40196993520E+01
 0.39605850170E+01 0.39197312097E+01 0.39052359520E+01 0.39197320446E+01 0.39605852116E+01
 0.40196981580E+01 0.40834019936E+01 0.41335775267E+01 0.41509664488E+01 0.41204537568E+01
 0.40365369678E+01 0.39071368969E+01 0.32543485708E+01 0.30558245345E+01 0.29092499837E+01
 0.28316251029E+01 0.28316194511E+01 0.29092387355E+01 0.30558182710E+01 0.32543519785E+01
 0.34804200060E+01 0.37044206904E+01 0.38959551188E+01 0.40303647170E+01 0.40974343216E+01
 0.41046286252E+01 0.40709058315E+01 0.40196989949E+01 0.39725280213E+01 0.39449627219E+01
 0.39449637450E+01 0.39725291489E+01 0.40196981580E+01 0.40709051694E+01 0.41046312842E+01
 0.40974389215E+01 0.40303663310E+01 0.38959506173E+01 0.37044112688E+01 0.34804104049E+01
 0.26970948039E+01 0.24874546971E+01 0.23544722074E+01 0.23089823135E+01 0.23544624761E+01
 0.24874416061E+01 0.26970840618E+01 0.29642428820E+01 0.32610102443E+01 0.35525123583E+01
 0.38024053439E+01 0.39815697343E+01 0.40786897418E+01 0.41046304153E+01 0.40834039820E+01
 0.40430950438E+01 0.40081770254E+01 0.39946993685E+01 0.40081788554E+01 0.40430947299E+01
 0.40834019936E+01 0.41046312842E+01 0.40786925973E+01 0.39815678881E+01 0.38023970077E+01
 0.35525042467E+01 0.32610088390E+01 0.29642486195E+01 0.21543093296E+01 0.19661946206E+01
 0.18702155004E+01 0.18702158676E+01 0.19661960211E+01 0.21543092308E+01 0.24244519525E+01
 0.27567548240E+01 0.31195019623E+01 0.34714028780E+01 0.37696193701E+01 0.39815678721E+01
 0.40974367377E+01 0.41335792213E+01 0.41199943341E+01 0.40890526415E+01 0.40665883371E+01
 0.40665901116E+01 0.40890540623E+01 0.41199919215E+01 0.41335775267E+01 0.40974389215E+01
 0.39815678881E+01 0.37696131253E+01 0.34713983528E+01 0.31195078329E+01 0.27567664770E+01
 0.24244587830E+01 0.16926425602E+01 0.15497535921E+01 0.15023814098E+01 0.15497629575E+01
 0.16926594473E+01 0.19308482475E+01 0.22568728597E+01 0.26494294600E+01 0.30707552425E+01
 0.34714006791E+01 0.38023979063E+01 0.40303628925E+01 0.41509661516E+01 0.41881638675E+01
 0.41779953488E+01 0.41555056417E+01 0.41451293896E+01 0.41555093945E+01 0.41779951891E+01
 0.41881601292E+01 0.41509664488E+01 0.40303663310E+01 0.38023970077E+01 0.34713983528E+01
 0.30707617205E+01 0.26494417275E+01 0.22568751433E+01 0.19308351219E+01 0.13514879113E+01
 0.12628327016E+01 0.12628330037E+01 0.13514946501E+01 0.15354715092E+01 0.18205628194E+01
 0.22006945192E+01 0.26494351443E+01 0.31195074252E+01 0.35525056221E+01 0.38959465316E+01
 0.41204502597E+01 0.42317232590E+01 0.42623582106E+01 0.42530711634E+01 0.42386708920E+01
 0.42386747073E+01 0.42530751855E+01 0.42623548803E+01 0.42317196569E+01 0.41204537568E+01
 0.38959506173E+01 0.35525042467E+01 0.31195078329E+01 0.26494417275E+01 0.22006958094E+01
 0.18205501002E+01 0.15354553394E+01 0.11357014035E+01 0.10966287626E+01 0.11356862324E+01
 0.12599496491E+01 0.14849096381E+01 0.18205549371E+01 0.22568746740E+01 0.27567686459E+01
 0.32610142401E+01 0.37044103314E+01 0.40365309701E+01 0.42383695676E+01 0.43289342783E+01
 0.43485202790E+01 0.43395826751E+01 0.43329126029E+01 0.43395892264E+01 0.43485206322E+01
 0.43289279399E+01 0.42383689464E+01 0.40365369678E+01 0.37044112688E+01 0.32610088390E+01
 0.27567664770E+01 0.22568751433E+01 0.18205501002E+01 0.14849055913E+01 0.12599590959E+01
 0.10244025051E+01 0.10243886276E+01 0.10969691502E+01 0.12599464840E+01 0.15354543006E+01
 0.19308339117E+01 0.24244595281E+01 0.29642562586E+01 0.34804156988E+01 0.39071322702E+01
 0.42037007197E+01 0.43675901270E+01 0.44309392691E+01 0.44387866039E+01 0.44312423975E+01
 0.44312472184E+01 0.44387914586E+01 0.44309343994E+01 0.43675849130E+01 0.42037049937E+01
 0.39071368969E+01 0.34804104049E+01 0.29642486195E+01 0.24244587830E+01 0.19308351219E+01
 0.15354553394E+01 0.12599590959E+01 0.10969942530E+01 0.11341108813E+01 0.11733482608E+01
 0.12997340030E+01 0.15319790700E+01 0.18817798809E+01 0.23372659926E+01 0.28567196326E+01
 0.33765058278E+01 0.38298469280E+01 0.41678300099E+01 0.43740212554E+01 0.44682923764E+01
 0.44907189432E+01 0.44835415724E+01 0.44774662996E+01 0.44835536423E+01 0.44907188720E+01
 0.44682802596E+01 0.43740214540E+01 0.41678424713E+01 0.38298469342E+01 0.33764925671E+01
 0.28567170805E+01 0.23372756883E+01 0.18817808426E+01 0.15319736217E+01 0.12997444354E+01
 0.11733684136E+01 0.11733482608E+01 0.12567951002E+01 0.14395393742E+01 0.17391990608E+01
 0.21560914079E+01 0.26609847690E+01 0.31970643479E+01 0.36954557674E+01 0.40967778765E+01
 0.43688293737E+01 0.45154105716E+01 0.45690902189E+01 0.45727024368E+01 0.45638242087E+01
 0.45638322704E+01 0.45727103758E+01 0.45690819415E+01 0.45154026917E+01 0.43688382807E+01
 0.40967869022E+01 0.36954483046E+01 0.31970571852E+01 0.26609947420E+01 0.21561006860E+01
 0.17391876623E+01 0.14395218358E+01 0.12567919754E+01 0.11733512772E+01 0.12997340030E+01
 0.14395393742E+01 0.16915567024E+01 0.20629584904E+01 0.25358448003E+01 0.30632414318E+01