   2   2   0   0
  0.2284762E+02  0.3194050E-09  0.3194050E-09  0.5171980E-09  0.5000000E-15
  1.000000000000000E-004
  CAR 
 Mg                                      
     55.00042101     -7.11629726  301      2.73409742      1.00000000
     -7.116  0.0000E+00  0.0000E+00
     -6.909  0.0000E+00  0.0000E+00
     -6.702  0.0000E+00  0.0000E+00
     -6.495  0.0000E+00  0.0000E+00
     -6.288  0.0000E+00  0.0000E+00
     -6.081  0.0000E+00  0.0000E+00
     -5.874  0.0000E+00  0.0000E+00
     -5.667  0.0000E+00  0.0000E+00
     -5.460  0.0000E+00  0.0000E+00
     -5.253  0.0000E+00  0.0000E+00
     -5.046  0.0000E+00  0.0000E+00
     -4.839  0.0000E+00  0.0000E+00
     -4.632  0.0000E+00  0.0000E+00
     -4.425  0.1829E-05  0.3787E-06
     -4.218  0.3206E-01  0.6638E-02
     -4.010  0.5232E-01  0.1747E-01
     -3.803  0.3486E+00  0.8966E-01
     -3.596  0.1949E+00  0.1300E+00
     -3.389  0.1063E+00  0.1520E+00
     -3.182  0.4529E+00  0.2458E+00
     -2.975  0.5240E+00  0.3543E+00
     -2.768  0.1762E+00  0.3908E+00
     -2.561  0.5625E+00  0.5072E+00
     -2.354  0.1038E+00  0.5287E+00
     -2.147  0.3780E+00  0.6070E+00
     -1.940  0.7622E+00  0.7648E+00
     -1.733  0.7142E+00  0.9127E+00
     -1.526  0.3225E+00  0.9795E+00
     -1.319  0.6722E+00  0.1119E+01
     -1.112  0.4996E+00  0.1222E+01
     -0.905  0.1869E+00  0.1261E+01
     -0.698  0.9652E+00  0.1461E+01
     -0.491  0.3209E+00  0.1527E+01
     -0.283  0.7745E+00  0.1687E+01
     -0.076  0.7011E+00  0.1833E+01
      0.131  0.1250E+01  0.2091E+01
      0.338  0.3045E+00  0.2154E+01
      0.545  0.6263E+00  0.2284E+01
      0.752  0.5878E+00  0.2406E+01
      0.959  0.1140E+01  0.2642E+01
      1.166  0.4628E+00  0.2738E+01
      1.373  0.4688E+00  0.2835E+01
      1.580  0.1110E+01  0.3064E+01
      1.787  0.1029E+01  0.3278E+01
      1.994  0.9382E+00  0.3472E+01
      2.201  0.1368E+01  0.3755E+01
      2.408  0.6748E+00  0.3895E+01
      2.615  0.2705E+00  0.3951E+01
      2.822  0.4285E+00  0.4039E+01
      3.029  0.1393E+01  0.4328E+01
      3.236  0.3854E+00  0.4408E+01
      3.444  0.1139E+01  0.4644E+01
      3.651  0.1267E+01  0.4906E+01
      3.858  0.1119E+01  0.5138E+01
      4.065  0.6815E+00  0.5279E+01
      4.272  0.6247E+00  0.5408E+01
      4.479  0.1439E+01  0.5706E+01
      4.686  0.9933E+00  0.5912E+01
      4.893  0.6189E+00  0.6040E+01
      5.100  0.1310E+01  0.6311E+01
      5.307  0.1404E+01  0.6602E+01
      5.514  0.8408E+00  0.6776E+01
      5.721  0.8275E+00  0.6947E+01
      5.928  0.8304E+00  0.7119E+01
      6.135  0.1161E+01  0.7359E+01
      6.342  0.1474E+01  0.7665E+01
      6.549  0.6846E+00  0.7806E+01
      6.756  0.1075E+01  0.8029E+01
      6.963  0.1666E+01  0.8374E+01
      7.171  0.4170E+00  0.8460E+01
      7.378  0.2237E+01  0.8923E+01
      7.585  0.1254E+01  0.9183E+01
      7.792  0.3602E-01  0.9191E+01
      7.999  0.6023E+00  0.9315E+01
      8.206  0.7574E+00  0.9472E+01
      8.413  0.2577E+01  0.1001E+02
      8.620  0.1848E+01  0.1039E+02
      8.827  0.1021E+01  0.1060E+02
      9.034  0.9192E+00  0.1079E+02
      9.241  0.1225E+01  0.1104E+02
      9.448  0.3784E+00  0.1112E+02
      9.655  0.1010E+01  0.1133E+02
      9.862  0.1458E+01  0.1163E+02
     10.069  0.1481E+01  0.1194E+02
     10.276  0.1695E+01  0.1229E+02
     10.483  0.8648E+00  0.1247E+02
     10.690  0.1721E+01  0.1283E+02
     10.898  0.1763E+01  0.1319E+02
     11.105  0.1150E+01  0.1343E+02
     11.312  0.9509E+00  0.1363E+02
     11.519  0.1566E+01  0.1395E+02
     11.726  0.1475E+01  0.1426E+02
     11.933  0.1232E+01  0.1451E+02
     12.140  0.1805E+01  0.1488E+02
     12.347  0.1266E+01  0.1515E+02
     12.554  0.1931E+01  0.1555E+02
     12.761  0.5142E+00  0.1565E+02
     12.968  0.7545E+00  0.1581E+02
     13.175  0.1307E+01  0.1608E+02
     13.382  0.1673E+01  0.1643E+02
     13.589  0.1518E+01  0.1674E+02
     13.796  0.1804E+01  0.1711E+02
     14.003  0.2139E+01  0.1756E+02
     14.210  0.1214E+01  0.1781E+02
     14.417  0.1633E+01  0.1815E+02
     14.625  0.1537E+01  0.1846E+02
     14.832  0.1187E+01  0.1871E+02
     15.039  0.7569E+00  0.1887E+02
     15.246  0.1535E+01  0.1918E+02
     15.453  0.1719E+01  0.1954E+02
     15.660  0.1541E+01  0.1986E+02
     15.867  0.2234E+01  0.2032E+02
     16.074  0.1257E+01  0.2058E+02
     16.281  0.1163E+01  0.2082E+02
     16.488  0.1479E+01  0.2113E+02
     16.695  0.2366E+01  0.2162E+02
     16.902  0.1014E+01  0.2183E+02
     17.109  0.2511E+01  0.2235E+02
     17.316  0.1379E+01  0.2264E+02
     17.523  0.1872E+01  0.2302E+02
     17.730  0.6873E+00  0.2316E+02
     17.937  0.5620E+00  0.2328E+02
     18.145  0.1718E+01  0.2364E+02
     18.352  0.2494E+01  0.2415E+02
     18.559  0.2267E+01  0.2462E+02
     18.766  0.3023E+01  0.2525E+02
     18.973  0.1420E+01  0.2554E+02
     19.180  0.1475E+01  0.2585E+02
     19.387  0.9633E+00  0.2605E+02
     19.594  0.1792E+01  0.2642E+02
     19.801  0.2124E+01  0.2686E+02
     20.008  0.1165E+01  0.2710E+02
     20.215  0.1968E+01  0.2751E+02
     20.422  0.1660E+01  0.2785E+02
     20.629  0.2667E+01  0.2840E+02
     20.836  0.1152E+01  0.2864E+02
     21.043  0.1807E+01  0.2902E+02
     21.250  0.2152E+01  0.2946E+02
     21.457  0.1876E+01  0.2985E+02
     21.664  0.1558E+01  0.3017E+02
     21.872  0.1040E+01  0.3039E+02
     22.079  0.1513E+01  0.3070E+02
     22.286  0.2095E+01  0.3114E+02
     22.493  0.2477E+01  0.3165E+02
     22.700  0.3235E+01  0.3232E+02
     22.907  0.1716E+01  0.3267E+02
     23.114  0.1010E+01  0.3288E+02
     23.321  0.2085E+01  0.3331E+02
     23.528  0.2060E+01  0.3374E+02
     23.735  0.1489E+01  0.3405E+02
     23.942  0.1758E+01  0.3441E+02
     24.149  0.1874E+01  0.3480E+02
     24.356  0.2640E+01  0.3535E+02
     24.563  0.2984E+01  0.3597E+02
     24.770  0.1131E+01  0.3620E+02
     24.977  0.1296E+01  0.3647E+02
     25.184  0.1586E+01  0.3680E+02
     25.391  0.1180E+01  0.3704E+02
     25.599  0.2478E+01  0.3755E+02
     25.806  0.2005E+01  0.3797E+02
     26.013  0.2081E+01  0.3840E+02
     26.220  0.1657E+01  0.3874E+02
     26.427  0.1281E+01  0.3901E+02
     26.634  0.1649E+01  0.3935E+02
     26.841  0.1410E+01  0.3964E+02
     27.048  0.1289E+01  0.3991E+02
     27.255  0.1088E+01  0.4013E+02
     27.462  0.1363E+01  0.4042E+02
     27.669  0.1958E+01  0.4082E+02
     27.876  0.2243E+01  0.4129E+02
     28.083  0.1133E+01  0.4152E+02
     28.290  0.1011E+01  0.4173E+02
     28.497  0.1396E+01  0.4202E+02
     28.704  0.1246E+01  0.4228E+02
     28.911  0.1715E+01  0.4263E+02
     29.118  0.2097E+01  0.4307E+02
     29.326  0.2098E+01  0.4350E+02
     29.533  0.1304E+01  0.4377E+02
     29.740  0.1721E+01  0.4413E+02
     29.947  0.1202E+01  0.4438E+02
     30.154  0.1126E+01  0.4461E+02
     30.361  0.2941E+01  0.4522E+02
     30.568  0.1869E+01  0.4560E+02
     30.775  0.2131E+01  0.4605E+02
     30.982  0.2909E+01  0.4665E+02
     31.189  0.1474E+01  0.4695E+02
     31.396  0.1415E+01  0.4725E+02
     31.603  0.2063E+01  0.4767E+02
     31.810  0.1383E+01  0.4796E+02
     32.017  0.1065E+01  0.4818E+02
     32.224  0.1491E+01  0.4849E+02
     32.431  0.2579E+01  0.4902E+02
     32.638  0.2600E+01  0.4956E+02
     32.845  0.2566E+01  0.5009E+02
     33.053  0.1673E+01  0.5044E+02
     33.260  0.2592E+01  0.5098E+02
     33.467  0.3031E+01  0.5160E+02
     33.674  0.1508E+01  0.5192E+02
     33.881  0.2543E+01  0.5244E+02
     34.088  0.1531E+01  0.5276E+02
     34.295  0.2153E+01  0.5321E+02
     34.502  0.1211E+01  0.5346E+02
     34.709  0.3336E+01  0.5415E+02
     34.916  0.2331E+01  0.5463E+02
     35.123  0.1448E+01  0.5493E+02
     35.330  0.3406E+01  0.5563E+02
     35.537  0.2708E+01  0.5620E+02
     35.744  0.2410E+01  0.5669E+02
     35.951  0.1896E+01  0.5709E+02
     36.158  0.1752E+01  0.5745E+02
     36.365  0.2380E+01  0.5794E+02
     36.572  0.1572E+01  0.5827E+02
     36.780  0.1497E+01  0.5858E+02
     36.987  0.2136E+01  0.5902E+02
     37.194  0.2049E+01  0.5944E+02
     37.401  0.1686E+01  0.5979E+02
     37.608  0.2438E+01  0.6030E+02
     37.815  0.1863E+01  0.6068E+02
     38.022  0.3806E+01  0.6147E+02
     38.229  0.2320E+01  0.6195E+02
     38.436  0.1852E+01  0.6234E+02
     38.643  0.1342E+01  0.6261E+02
     38.850  0.1009E+01  0.6282E+02
     39.057  0.3157E+01  0.6348E+02
     39.264  0.3026E+01  0.6410E+02
     39.471  0.3346E+01  0.6480E+02
     39.678  0.2458E+01  0.6530E+02
     39.885  0.1733E+01  0.6566E+02
     40.092  0.1812E+01  0.6604E+02
     40.299  0.2729E+01  0.6660E+02
     40.507  0.2042E+01  0.6703E+02
     40.714  0.2862E+01  0.6762E+02
     40.921  0.2489E+01  0.6813E+02
     41.128  0.1656E+01  0.6848E+02
     41.335  0.2862E+01  0.6907E+02
     41.542  0.1776E+01  0.6944E+02
     41.749  0.2921E+01  0.7004E+02
     41.956  0.1861E+01  0.7043E+02
     42.163  0.2745E+01  0.7100E+02
     42.370  0.2465E+01  0.7151E+02
     42.577  0.1725E+01  0.7186E+02
     42.784  0.1007E+01  0.7207E+02
     42.991  0.1929E+01  0.7247E+02
     43.198  0.3239E+01  0.7314E+02
     43.405  0.1562E+01  0.7347E+02
     43.612  0.3015E+01  0.7409E+02
     43.819  0.1976E+01  0.7450E+02
     44.026  0.1056E+01  0.7472E+02
     44.234  0.2264E+01  0.7519E+02
     44.441  0.2296E+01  0.7566E+02
     44.648  0.2357E+01  0.7615E+02
     44.855  0.2439E+01  0.7665E+02
     45.062  0.1898E+01  0.7705E+02
     45.269  0.4034E+01  0.7788E+02
     45.476  0.2927E+01  0.7849E+02
     45.683  0.2680E+01  0.7904E+02
     45.890  0.2878E+01  0.7964E+02
     46.097  0.2587E+01  0.8018E+02
     46.304  0.2974E+01  0.8079E+02
     46.511  0.2020E+01  0.8121E+02
     46.718  0.3513E+01  0.8194E+02
     46.925  0.3653E+01  0.8269E+02
     47.132  0.2800E+01  0.8327E+02
     47.339  0.1549E+01  0.8359E+02
     47.546  0.1854E+01  0.8398E+02
     47.753  0.1636E+01  0.8432E+02
     47.961  0.3733E+01  0.8509E+02
     48.168  0.3010E+01  0.8571E+02
     48.375  0.3303E+01  0.8640E+02
     48.582  0.1874E+01  0.8678E+02
     48.789  0.1256E+01  0.8704E+02
     48.996  0.2459E+01  0.8755E+02
     49.203  0.3723E+01  0.8832E+02
     49.410  0.1812E+01  0.8870E+02
     49.617  0.2454E+01  0.8921E+02
     49.824  0.2680E+01  0.8976E+02
     50.031  0.2390E+01  0.9026E+02
     50.238  0.4284E+01  0.9114E+02
     50.445  0.3043E+01  0.9177E+02
     50.652  0.2098E+01  0.9221E+02
     50.859  0.3310E+01  0.9289E+02
     51.066  0.3824E+01  0.9369E+02
     51.273  0.3644E+01  0.9444E+02
     51.480  0.2589E+01  0.9498E+02
     51.688  0.2832E+01  0.9556E+02
     51.895  0.1033E+01  0.9578E+02
     52.102  0.5300E+00  0.9589E+02
     52.309  0.5473E+00  0.9600E+02
     52.516  0.2452E-04  0.9600E+02
     52.723  0.0000E+00  0.9600E+02
     52.930  0.0000E+00  0.9600E+02
     53.137  0.0000E+00  0.9600E+02
     53.344  0.0000E+00  0.9600E+02
     53.551  0.0000E+00  0.9600E+02
     53.758  0.0000E+00  0.9600E+02
     53.965  0.0000E+00  0.9600E+02
     54.172  0.0000E+00  0.9600E+02
     54.379  0.0000E+00  0.9600E+02
     54.586  0.0000E+00  0.9600E+02
     54.793  0.0000E+00  0.9600E+02
     55.000  0.0000E+00  0.9600E+02
