Mg                                      
           1
     3.194050    0.000000    0.000000
     1.597025    2.766128    0.000000
     0.000000    0.000000    5.171980
   Mg
     2
Direct configuration=     1
   0.00000000  0.00000000  0.00000000
   0.33333333  0.33333333  0.50000000
