   3   3   0   0
  0.2028471E+02  0.7640040E-09  0.7640040E-09  0.7640040E-09  0.5000000E-15
  1.000000000000000E-004
  CAR 
 Li                                      
     47.16762301    -50.33631455  301      0.60876743      1.00000000
    -50.336  0.0000E+00  0.0000E+00
    -50.011  0.0000E+00  0.0000E+00
    -49.686  0.0000E+00  0.0000E+00
    -49.361  0.0000E+00  0.0000E+00
    -49.036  0.0000E+00  0.0000E+00
    -48.711  0.0000E+00  0.0000E+00
    -48.386  0.0000E+00  0.0000E+00
    -48.061  0.0000E+00  0.0000E+00
    -47.736  0.0000E+00  0.0000E+00
    -47.411  0.0000E+00  0.0000E+00
    -47.086  0.0000E+00  0.0000E+00
    -46.761  0.0000E+00  0.0000E+00
    -46.436  0.0000E+00  0.0000E+00
    -46.111  0.3431E-08  0.1115E-08
    -45.786  0.1842E+02  0.5985E+01
    -45.461  0.0000E+00  0.6000E+01
    -45.136  0.0000E+00  0.6000E+01
    -44.811  0.0000E+00  0.6000E+01
    -44.486  0.0000E+00  0.6000E+01
    -44.161  0.0000E+00  0.6000E+01
    -43.836  0.0000E+00  0.6000E+01
    -43.511  0.0000E+00  0.6000E+01
    -43.186  0.0000E+00  0.6000E+01
    -42.861  0.0000E+00  0.6000E+01
    -42.536  0.0000E+00  0.6000E+01
    -42.211  0.0000E+00  0.6000E+01
    -41.886  0.0000E+00  0.6000E+01
    -41.561  0.0000E+00  0.6000E+01
    -41.236  0.0000E+00  0.6000E+01
    -40.911  0.0000E+00  0.6000E+01
    -40.586  0.0000E+00  0.6000E+01
    -40.261  0.0000E+00  0.6000E+01
    -39.936  0.0000E+00  0.6000E+01
    -39.611  0.0000E+00  0.6000E+01
    -39.286  0.0000E+00  0.6000E+01
    -38.961  0.0000E+00  0.6000E+01
    -38.636  0.0000E+00  0.6000E+01
    -38.311  0.0000E+00  0.6000E+01
    -37.986  0.0000E+00  0.6000E+01
    -37.661  0.0000E+00  0.6000E+01
    -37.336  0.0000E+00  0.6000E+01
    -37.011  0.0000E+00  0.6000E+01
    -36.686  0.0000E+00  0.6000E+01
    -36.361  0.0000E+00  0.6000E+01
    -36.036  0.0000E+00  0.6000E+01
    -35.711  0.0000E+00  0.6000E+01
    -35.386  0.0000E+00  0.6000E+01
    -35.061  0.0000E+00  0.6000E+01
    -34.736  0.0000E+00  0.6000E+01
    -34.411  0.0000E+00  0.6000E+01
    -34.086  0.0000E+00  0.6000E+01
    -33.761  0.0000E+00  0.6000E+01
    -33.436  0.0000E+00  0.6000E+01
    -33.111  0.0000E+00  0.6000E+01
    -32.786  0.0000E+00  0.6000E+01
    -32.461  0.0000E+00  0.6000E+01
    -32.136  0.0000E+00  0.6000E+01
    -31.811  0.0000E+00  0.6000E+01
    -31.486  0.0000E+00  0.6000E+01
    -31.161  0.0000E+00  0.6000E+01
    -30.836  0.0000E+00  0.6000E+01
    -30.511  0.0000E+00  0.6000E+01
    -30.186  0.0000E+00  0.6000E+01
    -29.860  0.0000E+00  0.6000E+01
    -29.535  0.0000E+00  0.6000E+01
    -29.210  0.0000E+00  0.6000E+01
    -28.885  0.0000E+00  0.6000E+01
    -28.560  0.0000E+00  0.6000E+01
    -28.235  0.0000E+00  0.6000E+01
    -27.910  0.0000E+00  0.6000E+01
    -27.585  0.0000E+00  0.6000E+01
    -27.260  0.0000E+00  0.6000E+01
    -26.935  0.0000E+00  0.6000E+01
    -26.610  0.0000E+00  0.6000E+01
    -26.285  0.0000E+00  0.6000E+01
    -25.960  0.0000E+00  0.6000E+01
    -25.635  0.0000E+00  0.6000E+01
    -25.310  0.0000E+00  0.6000E+01
    -24.985  0.0000E+00  0.6000E+01
    -24.660  0.0000E+00  0.6000E+01
    -24.335  0.0000E+00  0.6000E+01
    -24.010  0.0000E+00  0.6000E+01
    -23.685  0.0000E+00  0.6000E+01
    -23.360  0.0000E+00  0.6000E+01
    -23.035  0.0000E+00  0.6000E+01
    -22.710  0.0000E+00  0.6000E+01
    -22.385  0.0000E+00  0.6000E+01
    -22.060  0.0000E+00  0.6000E+01
    -21.735  0.0000E+00  0.6000E+01
    -21.410  0.0000E+00  0.6000E+01
    -21.085  0.0000E+00  0.6000E+01
    -20.760  0.0000E+00  0.6000E+01
    -20.435  0.0000E+00  0.6000E+01
    -20.110  0.0000E+00  0.6000E+01
    -19.785  0.0000E+00  0.6000E+01
    -19.460  0.0000E+00  0.6000E+01
    -19.135  0.0000E+00  0.6000E+01
    -18.810  0.0000E+00  0.6000E+01
    -18.485  0.0000E+00  0.6000E+01
    -18.160  0.0000E+00  0.6000E+01
    -17.835  0.0000E+00  0.6000E+01
    -17.510  0.0000E+00  0.6000E+01
    -17.185  0.0000E+00  0.6000E+01
    -16.860  0.0000E+00  0.6000E+01
    -16.535  0.0000E+00  0.6000E+01
    -16.210  0.0000E+00  0.6000E+01
    -15.885  0.0000E+00  0.6000E+01
    -15.560  0.0000E+00  0.6000E+01
    -15.235  0.0000E+00  0.6000E+01
    -14.910  0.0000E+00  0.6000E+01
    -14.585  0.0000E+00  0.6000E+01
    -14.260  0.0000E+00  0.6000E+01
    -13.935  0.0000E+00  0.6000E+01
    -13.610  0.0000E+00  0.6000E+01
    -13.285  0.0000E+00  0.6000E+01
    -12.960  0.0000E+00  0.6000E+01
    -12.635  0.0000E+00  0.6000E+01
    -12.310  0.0000E+00  0.6000E+01
    -11.985  0.0000E+00  0.6000E+01
    -11.660  0.0000E+00  0.6000E+01
    -11.335  0.0000E+00  0.6000E+01
    -11.010  0.0000E+00  0.6000E+01
    -10.685  0.0000E+00  0.6000E+01
    -10.360  0.0000E+00  0.6000E+01
    -10.035  0.0000E+00  0.6000E+01
     -9.710  0.0000E+00  0.6000E+01
     -9.385  0.0000E+00  0.6000E+01
     -9.060  0.0000E+00  0.6000E+01
     -8.735  0.0000E+00  0.6000E+01
     -8.410  0.0000E+00  0.6000E+01
     -8.085  0.0000E+00  0.6000E+01
     -7.760  0.0000E+00  0.6000E+01
     -7.435  0.0000E+00  0.6000E+01
     -7.110  0.0000E+00  0.6000E+01
     -6.785  0.0000E+00  0.6000E+01
     -6.460  0.0000E+00  0.6000E+01
     -6.135  0.0000E+00  0.6000E+01
     -5.810  0.0000E+00  0.6000E+01
     -5.485  0.0000E+00  0.6000E+01
     -5.159  0.0000E+00  0.6000E+01
     -4.834  0.0000E+00  0.6000E+01
     -4.509  0.0000E+00  0.6000E+01
     -4.184  0.0000E+00  0.6000E+01
     -3.859  0.0000E+00  0.6000E+01
     -3.534  0.0000E+00  0.6000E+01
     -3.209  0.5476E-16  0.6000E+01
     -2.884  0.1601E-01  0.6005E+01
     -2.559  0.2880E+00  0.6099E+01
     -2.234  0.4382E+00  0.6241E+01
     -1.909  0.6776E+00  0.6462E+01
     -1.584  0.5899E+00  0.6653E+01
     -1.259  0.8892E+00  0.6942E+01
     -0.934  0.7736E+00  0.7194E+01
     -0.609  0.1078E+01  0.7545E+01
     -0.284  0.9801E+00  0.7863E+01
      0.041  0.9985E+00  0.8188E+01
      0.366  0.1403E+01  0.8644E+01
      0.691  0.1453E+01  0.9117E+01
      1.016  0.1255E+01  0.9525E+01
      1.341  0.1601E+01  0.1005E+02
      1.666  0.1307E+01  0.1047E+02
      1.991  0.1201E+01  0.1086E+02
      2.316  0.1340E+01  0.1130E+02
      2.641  0.8346E+00  0.1157E+02
      2.966  0.1063E+01  0.1191E+02
      3.291  0.2100E+00  0.1198E+02
      3.616  0.1192E+00  0.1202E+02
      3.941  0.1471E+01  0.1250E+02
      4.266  0.1681E+01  0.1305E+02
      4.591  0.2104E+01  0.1373E+02
      4.916  0.1195E+01  0.1412E+02
      5.241  0.1431E+01  0.1458E+02
      5.566  0.1394E+01  0.1504E+02
      5.891  0.1279E+01  0.1545E+02
      6.216  0.1183E+01  0.1584E+02
      6.541  0.1337E+01  0.1627E+02
      6.866  0.1465E+01  0.1675E+02
      7.191  0.1471E+01  0.1723E+02
      7.516  0.1798E+01  0.1781E+02
      7.841  0.1598E+01  0.1833E+02
      8.166  0.1573E+01  0.1884E+02
      8.491  0.1364E+01  0.1929E+02
      8.816  0.1290E+01  0.1971E+02
      9.141  0.2299E+01  0.2045E+02
      9.466  0.2176E+01  0.2116E+02
      9.791  0.2105E+01  0.2185E+02
     10.116  0.1857E+01  0.2245E+02
     10.441  0.2080E+01  0.2313E+02
     10.766  0.1772E+01  0.2370E+02
     11.091  0.2024E+01  0.2436E+02
     11.416  0.2294E+01  0.2511E+02
     11.741  0.2072E+01  0.2578E+02
     12.066  0.2262E+01  0.2652E+02
     12.391  0.2544E+01  0.2734E+02
     12.716  0.2525E+01  0.2817E+02
     13.041  0.1912E+01  0.2879E+02
     13.366  0.1475E+01  0.2927E+02
     13.691  0.1407E+01  0.2973E+02
     14.016  0.1461E+01  0.3020E+02
     14.341  0.1781E+01  0.3078E+02
     14.666  0.1719E+01  0.3134E+02
     14.991  0.1549E+01  0.3184E+02
     15.316  0.1726E+01  0.3240E+02
     15.641  0.2029E+01  0.3306E+02
     15.966  0.2391E+01  0.3384E+02
     16.291  0.2181E+01  0.3455E+02
     16.616  0.2308E+01  0.3530E+02
     16.941  0.2516E+01  0.3612E+02
     17.266  0.1308E+01  0.3655E+02
     17.591  0.1151E+01  0.3692E+02
     17.916  0.1431E+01  0.3739E+02
     18.241  0.1894E+01  0.3800E+02
     18.566  0.1954E+01  0.3864E+02
     18.891  0.2096E+01  0.3932E+02
     19.216  0.2376E+01  0.4009E+02
     19.542  0.2343E+01  0.4085E+02
     19.867  0.1714E+01  0.4141E+02
     20.192  0.1395E+01  0.4187E+02
     20.517  0.2219E+01  0.4259E+02
     20.842  0.2061E+01  0.4326E+02
     21.167  0.2612E+01  0.4411E+02
     21.492  0.2396E+01  0.4489E+02
     21.817  0.2190E+01  0.4560E+02
     22.142  0.2004E+01  0.4625E+02
     22.467  0.2226E+01  0.4697E+02
     22.792  0.1888E+01  0.4759E+02
     23.117  0.2125E+01  0.4828E+02
     23.442  0.2373E+01  0.4905E+02
     23.767  0.2098E+01  0.4973E+02
     24.092  0.3075E+01  0.5073E+02
     24.417  0.2391E+01  0.5151E+02
     24.742  0.2422E+01  0.5230E+02
     25.067  0.2110E+01  0.5298E+02
     25.392  0.2422E+01  0.5377E+02
     25.717  0.1651E+01  0.5431E+02
     26.042  0.2591E+01  0.5515E+02
     26.367  0.2611E+01  0.5600E+02
     26.692  0.2518E+01  0.5682E+02
     27.017  0.2620E+01  0.5767E+02
     27.342  0.2404E+01  0.5845E+02
     27.667  0.2143E+01  0.5915E+02
     27.992  0.2624E+01  0.6000E+02
     28.317  0.2671E+01  0.6087E+02
     28.642  0.2378E+01  0.6165E+02
     28.967  0.2381E+01  0.6242E+02
     29.292  0.3114E+01  0.6343E+02
     29.617  0.2576E+01  0.6427E+02
     29.942  0.2354E+01  0.6504E+02
     30.267  0.2999E+01  0.6601E+02
     30.592  0.3093E+01  0.6702E+02
     30.917  0.3033E+01  0.6800E+02
     31.242  0.2785E+01  0.6891E+02
     31.567  0.2819E+01  0.6983E+02
     31.892  0.2996E+01  0.7080E+02
     32.217  0.2718E+01  0.7168E+02
     32.542  0.2272E+01  0.7242E+02
     32.867  0.2209E+01  0.7314E+02
     33.192  0.1965E+01  0.7378E+02
     33.517  0.1899E+01  0.7440E+02
     33.842  0.2430E+01  0.7519E+02
     34.167  0.3486E+01  0.7632E+02
     34.492  0.2508E+01  0.7714E+02
     34.817  0.2597E+01  0.7798E+02
     35.142  0.2405E+01  0.7877E+02
     35.467  0.3131E+01  0.7978E+02
     35.792  0.2871E+01  0.8072E+02
     36.117  0.2977E+01  0.8169E+02
     36.442  0.2230E+01  0.8241E+02
     36.767  0.2704E+01  0.8329E+02
     37.092  0.2050E+01  0.8396E+02
     37.417  0.2466E+01  0.8476E+02
     37.742  0.2810E+01  0.8567E+02
     38.067  0.2965E+01  0.8664E+02
     38.392  0.2785E+01  0.8754E+02
     38.717  0.3275E+01  0.8861E+02
     39.042  0.3060E+01  0.8960E+02
     39.367  0.2587E+01  0.9044E+02
     39.692  0.2606E+01  0.9129E+02
     40.017  0.2845E+01  0.9222E+02
     40.342  0.2527E+01  0.9304E+02
     40.667  0.2162E+01  0.9374E+02
     40.992  0.2293E+01  0.9449E+02
     41.317  0.1710E+01  0.9504E+02
     41.642  0.1457E+01  0.9552E+02
     41.967  0.7497E+00  0.9576E+02
     42.292  0.3484E+00  0.9588E+02
     42.617  0.3305E+00  0.9598E+02
     42.942  0.5004E-01  0.9600E+02
     43.267  0.0000E+00  0.9600E+02
     43.592  0.0000E+00  0.9600E+02
     43.917  0.0000E+00  0.9600E+02
     44.243  0.0000E+00  0.9600E+02
     44.568  0.0000E+00  0.9600E+02
     44.893  0.0000E+00  0.9600E+02
     45.218  0.0000E+00  0.9600E+02
     45.543  0.0000E+00  0.9600E+02
     45.868  0.0000E+00  0.9600E+02
     46.193  0.0000E+00  0.9600E+02
     46.518  0.0000E+00  0.9600E+02
     46.843  0.0000E+00  0.9600E+02
     47.168  0.0000E+00  0.9600E+02
