    3    3    1    1
  0.2028471E+02  0.7640040E-09  0.7640040E-09  0.7640040E-09  0.5000000E-15
  1.000000000000000E-004
  CAR 
 Li                                      
      9    189     48
 
  0.0000000E+00  0.0000000E+00  0.0000000E+00  0.5787037E-03
      1        -45.904317   1.000000
      2        -45.890783   1.000000
      3        -45.889484   1.000000
      4         -2.940547   1.000000
      5         -0.943390   1.000000
      6         -0.942369   1.000000
      7          6.474032   0.000000
      8          6.475533   0.000000
      9         13.281493   0.000000
     10         13.281493   0.000000
     11         13.420123   0.000000
     12         13.420123   0.000000
     13         14.516759   0.000000
     14         14.516759   0.000000
     15         15.244945   0.000000
     16         17.415663   0.000000
     17         17.415663   0.000000
     18         17.671769   0.000000
     19         17.987221   0.000000
     20         18.679011   0.000000
     21         18.679011   0.000000
     22         19.042749   0.000000
     23         19.720122   0.000000
     24         20.126666   0.000000
     25         20.126666   0.000000
     26         21.378658   0.000000
     27         21.921142   0.000000
     28         22.942318   0.000000
     29         22.942318   0.000000
     30         22.967064   0.000000
     31         23.280289   0.000000
     32         23.280289   0.000000
     33         25.408725   0.000000
     34         29.061100   0.000000
     35         29.228358   0.000000
     36         29.228358   0.000000
     37         29.943978   0.000000
     38         29.943978   0.000000
     39         30.388804   0.000000
     40         34.121146   0.000000
     41         34.121146   0.000000
     42         34.441132   0.000000
     43         34.441132   0.000000
     44         34.693309   0.000000
     45         36.372129   0.000000
     46         37.228233   0.000000
     47         37.728740   0.000000
     48         39.013442   0.000000
 
  0.8333333E-01  0.8176727E-17  0.0000000E+00  0.3472222E-02
      1        -45.903258   1.000000
      2        -45.890350   1.000000
      3        -45.888739   1.000000
      4         -2.829549   1.000000
      5         -0.932418   1.000000
      6         -0.717225   1.000000
      7          6.295250   0.000000
      8          6.778361   0.000000
      9         12.015564   0.000000
     10         12.483329   0.000000
     11         12.803798   0.000000
     12         12.964160   0.000000
     13         14.441460   0.000000
     14         14.830075   0.000000
     15         14.918687   0.000000
     16         16.001392   0.000000
     17         16.395580   0.000000
     18         18.189965   0.000000
     19         18.320274   0.000000
     20         18.822651   0.000000
     21         19.330586   0.000000
     22         19.964223   0.000000
     23         20.391674   0.000000
     24         20.608140   0.000000
     25         20.690924   0.000000
     26         21.180262   0.000000
     27         21.675325   0.000000
     28         21.939571   0.000000
     29         22.307242   0.000000
     30         23.950574   0.000000
     31         25.131099   0.000000
     32         25.564049   0.000000
     33         26.131099   0.000000
     34         27.488030   0.000000
     35         28.392434   0.000000
     36         29.136825   0.000000
     37         29.847477   0.000000
     38         30.857273   0.000000
     39         32.013140   0.000000
     40         32.620609   0.000000
     41         33.530467   0.000000
     42         34.377613   0.000000
     43         35.705489   0.000000
     44         36.482621   0.000000
     45         36.491583   0.000000
     46         37.583018   0.000000
     47         38.307092   0.000000
     48         39.435347   0.000000
 
  0.1666667E+00  0.9318165E-17  0.0000000E+00  0.3472222E-02
      1        -45.900410   1.000000
      2        -45.888976   1.000000
      3        -45.886873   1.000000
      4         -2.496773   1.000000
      5         -0.692158   1.000000
      6         -0.253937   1.000000
      7          6.190922   0.000000
      8          7.186293   0.000000
      9          9.976461   0.000000
     10         10.965246   0.000000
     11         11.450518   0.000000
     12         11.941777   0.000000
     13         13.149285   0.000000
     14         14.427722   0.000000
     15         14.687203   0.000000
     16         15.099053   0.000000
     17         15.401568   0.000000
     18         17.674904   0.000000
     19         18.563898   0.000000
     20         19.302348   0.000000
     21         19.872679   0.000000
     22         20.059168   0.000000
     23         20.414169   0.000000
     24         20.544088   0.000000
     25         21.107907   0.000000
     26         22.833795   0.000000
     27         22.886017   0.000000
     28         23.761004   0.000000
     29         24.183366   0.000000
     30         25.197065   0.000000
     31         26.240101   0.000000
     32         27.128481   0.000000
     33         27.905630   0.000000
     34         28.014512   0.000000
     35         28.123611   0.000000
     36         29.726131   0.000000
     37         29.846807   0.000000
     38         30.369220   0.000000
     39         32.455621   0.000000
     40         33.282333   0.000000
     41         33.977430   0.000000
     42         34.717155   0.000000
     43         35.953518   0.000000
     44         36.809266   0.000000
     45         38.968956   0.000000
     46         39.008055   0.000000
     47         39.881936   0.000000
     48         40.938798   0.000000
 
  0.2500000E+00  0.5465122E-18  0.0000000E+00  0.3472222E-02
      1        -45.896303   1.000000
      2        -45.886881   1.000000
      3        -45.884614   1.000000
      4         -1.941526   1.000000
      5         -0.233992   1.000000
      6          0.436101   0.999999
      7          5.899270   0.000000
      8          7.332002   0.000000
      9          8.457598   0.000000
     10          9.208583   0.000000
     11         10.591000   0.000000
     12         10.908896   0.000000
     13         10.986060   0.000000
     14         13.772262   0.000000
     15         14.162929   0.000000
     16         14.392995   0.000000
     17         14.923788   0.000000
     18         16.555009   0.000000
     19         18.549803   0.000000
     20         19.009119   0.000000
     21         19.369977   0.000000
     22         19.541547   0.000000
     23         21.835906   0.000000
     24         21.972508   0.000000
     25         22.590667   0.000000
     26         23.266640   0.000000
     27         24.761371   0.000000
     28         25.500690   0.000000
     29         26.616901   0.000000
     30         26.983343   0.000000
     31         27.054625   0.000000
     32         27.612242   0.000000
     33         28.439868   0.000000
     34         29.275205   0.000000
     35         30.017113   0.000000
     36         30.271818   0.000000
     37         30.341863   0.000000
     38         32.072552   0.000000
     39         33.493493   0.000000
     40         34.356051   0.000000
     41         35.246194   0.000000
     42         35.487218   0.000000
     43         35.736275   0.000000
     44         37.318302   0.000000
     45         39.597273   0.000000
     46         41.391532   0.000000
     47         42.043736   0.000000
     48         42.095921   0.000000
 
  0.3333333E+00  0.1566213E-16  0.0000000E+00  0.3472222E-02
      1        -45.891884   1.000000
      2        -45.884744   1.000000
      3        -45.882679   1.000000
      4         -1.170106   1.000000
      5          0.413151   1.000000
      6          1.290677   0.000000
      7          4.872435   0.000000
      8          6.281562   0.000000
      9          8.013698   0.000000
     10          8.354453   0.000000
     11          9.635391   0.000000
     12          9.976547   0.000000
     13         10.247206   0.000000
     14         12.222001   0.000000
     15         13.671803   0.000000
     16         14.165161   0.000000
     17         14.444204   0.000000
     18         16.061815   0.000000
     19         17.594071   0.000000
     20         17.775079   0.000000
     21         19.252891   0.000000
     22         20.135766   0.000000
     23         22.953037   0.000000
     24         23.952045   0.000000
     25         24.181960   0.000000
     26         24.849721   0.000000
     27         26.069886   0.000000
     28         26.285514   0.000000
     29         26.524792   0.000000
     30         27.356651   0.000000
     31         27.936512   0.000000
     32         29.169916   0.000000
     33         29.580890   0.000000
     34         30.127343   0.000000
     35         31.863749   0.000000
     36         32.435259   0.000000
     37         33.124871   0.000000
     38         33.187495   0.000000
     39         34.088279   0.000000
     40         35.363203   0.000000
     41         36.427921   0.000000
     42         37.437821   0.000000
     43         38.276482   0.000000
     44         38.441246   0.000000
     45         38.505627   0.000000
     46         39.909445   0.000000
     47         40.072880   0.000000
     48         40.107038   0.000000
 
  0.4166667E+00  0.1987416E-16  0.0000000E+00  0.3472222E-02
      1        -45.888354   1.000000
      2        -45.883114   1.000000
      3        -45.881618   1.000000
      4         -0.219872   1.000000
      5          1.148771   0.000000
      6          1.881540   0.000000
      7          3.980940   0.000000
      8          4.983581   0.000000
      9          6.422861   0.000000
     10          8.566023   0.000000
     11          9.630027   0.000000
     12          9.766928   0.000000
     13         10.308199   0.000000
     14         10.848059   0.000000
     15         13.337461   0.000000
     16         13.350963   0.000000
     17         14.235222   0.000000
     18         15.874434   0.000000
     19         16.534627   0.000000
     20         17.297278   0.000000
     21         19.399259   0.000000
     22         20.902793   0.000000
     23         22.758658   0.000000
     24         25.319536   0.000000
     25         25.451120   0.000000
     26         26.161551   0.000000
     27         26.393557   0.000000
     28         26.952816   0.000000
     29         27.632413   0.000000
     30         28.091161   0.000000
     31         29.370871   0.000000
     32         29.768143   0.000000
     33         30.305386   0.000000
     34         31.104262   0.000000
     35         31.651316   0.000000
     36         34.355514   0.000000
     37         34.569645   0.000000
     38         34.632637   0.000000
     39         36.019369   0.000000
     40         36.344703   0.000000
     41         36.609116   0.000000
     42         37.321567   0.000000
     43         37.457864   0.000000
     44         37.877115   0.000000
     45         38.692559   0.000000
     46         39.369148   0.000000
     47         40.167537   0.000000
     48         40.414410   0.000000
 
  0.5000000E+00  0.1093024E-17  0.0000000E+00  0.1736111E-02
      1        -45.886967   1.000000
      2        -45.882531   1.000000
      3        -45.881376   1.000000
      4          0.531191   0.985890
      5          1.424008   0.000000
      6          1.658916   0.000000
      7          4.340029   0.000000
      8          4.478715   0.000000
      9          5.107633   0.000000
     10          9.155809   0.000000
     11          9.559496   0.000000
     12          9.559895   0.000000
     13          9.793104   0.000000
     14         11.186768   0.000000
     15         12.520960   0.000000
     16         13.240913   0.000000
     17         14.207437   0.000000
     18         15.880440   0.000000
     19         16.163924   0.000000
     20         17.136770   0.000000
     21         19.492511   0.000000
     22         21.236009   0.000000
     23         22.608285   0.000000
     24         25.664821   0.000000
     25         25.859935   0.000000
     26         25.863733   0.000000
     27         26.597749   0.000000
     28         27.507774   0.000000
     29         28.438709   0.000000
     30         29.688869   0.000000
     31         30.079924   0.000000
     32         30.469386   0.000000
     33         30.632944   0.000000
     34         30.985497   0.000000
     35         32.162182   0.000000
     36         32.927000   0.000000
     37         33.988617   0.000000
     38         34.350771   0.000000
     39         35.426542   0.000000
     40         35.511831   0.000000
     41         37.083498   0.000000
     42         37.570669   0.000000
     43         38.633142   0.000000
     44         39.752348   0.000000
     45         39.845453   0.000000
     46         39.942221   0.000000
     47         40.404822   0.000000
     48         41.729448   0.000000
 
  0.8333333E-01  0.8333333E-01  0.0000000E+00  0.3472222E-02
      1        -45.903230   1.000000
      2        -45.890723   1.000000
      3        -45.888430   1.000000
      4         -2.824964   1.000000
      5         -1.036746   1.000000
      6         -0.606737   1.000000
      7          6.068731   0.000000
      8          7.018082   0.000000
      9         12.142278   0.000000
     10         12.359241   0.000000
     11         12.590280   0.000000
     12         13.175347   0.000000
     13         14.438262   0.000000
     14         14.758544   0.000000
     15         14.941735   0.000000
     16         16.130463   0.000000
     17         16.505041   0.000000
     18         18.080636   0.000000
     19         18.170690   0.000000
     20         18.595494   0.000000
     21         19.290133   0.000000
     22         19.411963   0.000000
     23         20.519783   0.000000
     24         20.793499   0.000000
     25         20.991353   0.000000
     26         21.491877   0.000000
     27         21.826835   0.000000
     28         22.234357   0.000000
     29         22.320323   0.000000
     30         23.962041   0.000000
     31         24.637528   0.000000
     32         25.231751   0.000000
     33         26.631117   0.000000
     34         27.400895   0.000000
     35         27.881874   0.000000
     36         28.969581   0.000000
     37         29.932855   0.000000
     38         31.493403   0.000000
     39         31.892129   0.000000
     40         32.860822   0.000000
     41         33.768876   0.000000
     42         34.359113   0.000000
     43         35.320249   0.000000
     44         36.210045   0.000000
     45         36.366942   0.000000
     46         37.897421   0.000000
     47         37.984262   0.000000
     48         39.962282   0.000000
 
  0.1666667E+00  0.8333333E-01  0.0000000E+00  0.6944444E-02
      1        -45.901237   1.000000
      2        -45.889937   1.000000
      3        -45.887025   1.000000
      4         -2.598236   1.000000
      5         -0.909432   1.000000
      6         -0.256899   1.000000
      7          5.951404   0.000000
      8          7.370186   0.000000
      9         10.829276   0.000000
     10         11.196558   0.000000
     11         11.471138   0.000000
     12         12.153729   0.000000
     13         13.966246   0.000000
     14         14.343423   0.000000
     15         14.875582   0.000000
     16         15.734919   0.000000
     17         15.976612   0.000000
     18         17.080826   0.000000
     19         18.096720   0.000000
     20         18.821066   0.000000
     21         19.208006   0.000000
     22         20.213911   0.000000
     23         20.724733   0.000000
     24         21.204647   0.000000
     25         21.781958   0.000000
     26         22.563701   0.000000
     27         22.941581   0.000000
     28         23.095280   0.000000
     29         23.814524   0.000000
     30         23.970412   0.000000
     31         24.972232   0.000000
     32         26.479971   0.000000
     33         27.470746   0.000000
     34         27.994957   0.000000
     35         28.503645   0.000000
     36         29.061071   0.000000
     37         29.710661   0.000000
     38         31.190358   0.000000
     39         32.120585   0.000000
     40         33.386923   0.000000
     41         34.257831   0.000000
     42         34.658082   0.000000
     43         35.685890   0.000000
     44         36.362842   0.000000
     45         37.620981   0.000000
     46         38.932609   0.000000
     47         39.040145   0.000000
     48         40.731741   0.000000
 
  0.2500000E+00  0.8333333E-01  0.0000000E+00  0.6944444E-02
      1        -45.897716   1.000000
      2        -45.888186   1.000000
      3        -45.884983   1.000000
      4         -2.148698   1.000000
      5         -0.557584   1.000000
      6          0.329771   1.000000
      7          5.860481   0.000000
      8          7.729348   0.000000
      9          8.930470   0.000000
     10          9.722520   0.000000
     11         10.229384   0.000000
     12         11.030886   0.000000
     13         12.095218   0.000000
     14         13.895914   0.000000
     15         14.356811   0.000000
     16         15.477457   0.000000
     17         15.662698   0.000000
     18         16.547557   0.000000
     19         17.873043   0.000000
     20         18.175718   0.000000
     21         19.542150   0.000000
     22         21.088433   0.000000
     23         21.257553   0.000000
     24         21.640045   0.000000
     25         22.053138   0.000000
     26         23.140560   0.000000
     27         23.911759   0.000000
     28         24.745106   0.000000
     29         25.951605   0.000000
     30         26.162821   0.000000
     31         26.333857   0.000000
     32         27.041715   0.000000
     33         28.162124   0.000000
     34         28.749244   0.000000
     35         29.875051   0.000000
     36         30.101981   0.000000
     37         31.266199   0.000000
     38         31.598443   0.000000
     39         32.429306   0.000000
     40         33.654227   0.000000
     41         34.127198   0.000000
     42         35.548535   0.000000
     43         35.758664   0.000000
     44         37.056883   0.000000
     45         39.338618   0.000000
     46         39.911254   0.000000
     47         41.287246   0.000000
     48         41.626857   0.000000
 
  0.3333333E+00  0.8333333E-01  0.0000000E+00  0.6944444E-02
      1        -45.893415   1.000000
      2        -45.885967   1.000000
      3        -45.882982   1.000000
      4         -1.477872   1.000000
      5          0.004369   1.000000
      6          1.126928   0.000000
      7          5.375798   0.000000
      8          7.062473   0.000000
      9          8.007621   0.000000
     10          8.581097   0.000000
     11          8.977077   0.000000
     12         10.193016   0.000000
     13         10.741213   0.000000
     14         13.221882   0.000000
     15         13.530770   0.000000
     16         15.027770   0.000000
     17         15.113997   0.000000
     18         15.555608   0.000000
     19         17.723401   0.000000
     20         18.402050   0.000000
     21         19.346290   0.000000
     22         20.694672   0.000000
     23         22.069658   0.000000
     24         22.825182   0.000000
     25         23.821489   0.000000
     26         24.083401   0.000000
     27         25.037400   0.000000
     28         25.458887   0.000000
     29         25.882648   0.000000
     30         28.028824   0.000000
     31         28.538234   0.000000
     32         28.899542   0.000000
     33         29.145927   0.000000
     34         29.920343   0.000000
     35         30.843576   0.000000
     36         31.457951   0.000000
     37         32.311708   0.000000
     38         32.640409   0.000000
     39         34.083768   0.000000
     40         34.766669   0.000000
     41         35.581181   0.000000
     42         35.954081   0.000000
     43         36.504591   0.000000
     44         38.477791   0.000000
     45         39.439008   0.000000
     46         39.805137   0.000000
     47         40.288862   0.000000
     48         41.005130   0.000000
 
  0.4166667E+00  0.8333333E-01  0.0000000E+00  0.6944444E-02
      1        -45.889432   1.000000
      2        -45.883962   1.000000
      3        -45.881633   1.000000
      4         -0.601501   1.000000
      5          0.734746   0.000183
      6          1.960505   0.000000
      7          4.278113   0.000000
      8          5.760877   0.000000
      9          7.113158   0.000000
     10          7.673946   0.000000
     11          8.795520   0.000000
     12          9.600622   0.000000
     13         10.654355   0.000000
     14         12.042518   0.000000
     15         13.132243   0.000000
     16         14.250310   0.000000
     17         14.576404   0.000000
     18         15.194005   0.000000
     19         16.644409   0.000000
     20         18.599922   0.000000
     21         19.795934   0.000000
     22         20.977137   0.000000
     23         22.835246   0.000000
     24         24.011822   0.000000
     25         24.703071   0.000000
     26         25.449520   0.000000
     27         25.586897   0.000000
     28         25.791086   0.000000
     29         27.286250   0.000000
     30         27.802307   0.000000
     31         29.653764   0.000000
     32         30.105919   0.000000
     33         30.315325   0.000000
     34         31.052199   0.000000
     35         31.954324   0.000000
     36         32.665232   0.000000
     37         33.698693   0.000000
     38         34.804533   0.000000
     39         35.236930   0.000000
     40         36.075587   0.000000
     41         36.703321   0.000000
     42         36.988166   0.000000
     43         37.455231   0.000000
     44         38.171062   0.000000
     45         39.008918   0.000000
     46         39.651544   0.000000
     47         39.920518   0.000000
     48         40.852450   0.000000
 
  0.5000000E+00  0.8333333E-01  0.0000000E+00  0.6944444E-02
      1        -45.886870   1.000000
      2        -45.882700   1.000000
      3        -45.881230   1.000000
      4          0.377343   1.000000
      5          1.441553   0.000000
      6          1.879716   0.000000
      7          4.274248   0.000000
      8          4.606888   0.000000
      9          5.459511   0.000000
     10          8.037540   0.000000
     11          8.702240   0.000000
     12          9.368715   0.000000
     13         10.695487   0.000000
     14         11.438251   0.000000
     15         12.879063   0.000000
     16         13.646170   0.000000
     17         14.061039   0.000000
     18         15.052843   0.000000
     19         16.291381   0.000000
     20         18.793760   0.000000
     21         19.811187   0.000000
     22         21.565639   0.000000
     23         22.807727   0.000000
     24         24.356043   0.000000
     25         24.899823   0.000000
     26         25.697181   0.000000
     27         26.466482   0.000000
     28         27.678650   0.000000
     29         28.207570   0.000000
     30         28.606858   0.000000
     31         29.138183   0.000000
     32         30.114877   0.000000
     33         30.733876   0.000000
     34         31.776735   0.000000
     35         32.248971   0.000000
     36         33.942214   0.000000
     37         34.557613   0.000000
     38         34.793146   0.000000
     39         35.366402   0.000000
     40         36.004690   0.000000
     41         37.411609   0.000000
     42         37.801072   0.000000
     43         38.221611   0.000000
     44         38.732675   0.000000
     45         39.253675   0.000000
     46         39.993959   0.000000
     47         40.263972   0.000000
     48         40.640737   0.000000
 
 -0.4166667E+00  0.8333333E-01  0.0000000E+00  0.6944444E-02
      1        -45.886923   1.000000
      2        -45.882530   1.000000
      3        -45.881373   1.000000
      4          0.348030   1.000000
      5          1.602300   0.000000
      6          1.790261   0.000000
      7          4.110715   0.000000
      8          4.462715   0.000000
      9          5.772333   0.000000
     10          8.369453   0.000000
     11          8.503178   0.000000
     12          9.416838   0.000000
     13         10.443728   0.000000
     14         11.178104   0.000000
     15         12.817488   0.000000
     16         13.874549   0.000000
     17         14.139881   0.000000
     18         15.076490   0.000000
     19         16.384680   0.000000
     20         18.845747   0.000000
     21         20.022295   0.000000
     22         21.568584   0.000000
     23         22.352074   0.000000
     24         24.096883   0.000000
     25         25.010820   0.000000
     26         25.974980   0.000000
     27         26.290197   0.000000
     28         27.195491   0.000000
     29         28.406341   0.000000
     30         28.830348   0.000000
     31         29.500939   0.000000
     32         30.078105   0.000000
     33         30.791364   0.000000
     34         31.570780   0.000000
     35         32.469304   0.000000
     36         33.849300   0.000000
     37         34.629146   0.000000
     38         35.004494   0.000000
     39         35.085820   0.000000
     40         36.059893   0.000000
     41         37.027962   0.000000
     42         37.828641   0.000000
     43         38.675131   0.000000
     44         38.718672   0.000000
     45         39.282648   0.000000
     46         39.675847   0.000000
     47         40.636064   0.000000
     48         40.889181   0.000000
 
 -0.3333333E+00  0.8333333E-01  0.0000000E+00  0.6944444E-02
      1        -45.889543   1.000000
      2        -45.883452   1.000000
      3        -45.882020   1.000000
      4         -0.638979   1.000000
      5          1.015126   0.000000
      6          1.610461   0.000000
      7          4.432331   0.000000
      8          5.513888   0.000000
      9          7.449888   0.000000
     10          8.140756   0.000000
     11          8.456736   0.000000
     12          9.664653   0.000000
     13         10.320908   0.000000
     14         11.642151   0.000000
     15         12.959050   0.000000
     16         14.418170   0.000000
     17         14.725636   0.000000
     18         15.289350   0.000000
     19         17.033471   0.000000
     20         18.836706   0.000000
     21         20.028361   0.000000
     22         21.053602   0.000000
     23         22.203129   0.000000
     24         23.750130   0.000000
     25         23.989569   0.000000
     26         25.155069   0.000000
     27         25.859632   0.000000
     28         25.902401   0.000000
     29         27.614418   0.000000
     30         28.285221   0.000000
     31         29.243461   0.000000
     32         30.088535   0.000000
     33         30.286278   0.000000
     34         31.256536   0.000000
     35         32.355028   0.000000
     36         32.548204   0.000000
     37         33.823778   0.000000
     38         34.824819   0.000000
     39         35.293645   0.000000
     40         36.423413   0.000000
     41         36.484867   0.000000
     42         37.251832   0.000000
     43         37.586931   0.000000
     44         38.196513   0.000000
     45         38.985072   0.000000
     46         39.307847   0.000000
     47         39.811800   0.000000
     48         40.870520   0.000000
 
 -0.2500000E+00  0.8333333E-01  0.0000000E+00  0.6944444E-02
      1        -45.893584   1.000000
      2        -45.885174   1.000000
      3        -45.883595   1.000000
      4         -1.509740   1.000000
      5          0.310463   1.000000
      6          0.757605   0.000013
      7          5.759397   0.000000
      8          6.837793   0.000000
      9          8.102667   0.000000
     10          8.278554   0.000000
     11          9.080814   0.000000
     12         10.362348   0.000000
     13         10.708512   0.000000
     14         12.910995   0.000000
     15         13.323171   0.000000
     16         15.075991   0.000000
     17         15.125748   0.000000
     18         15.605907   0.000000
     19         18.250112   0.000000
     20         18.823457   0.000000
     21         19.356815   0.000000
     22         21.092220   0.000000
     23         21.549845   0.000000
     24         22.498607   0.000000
     25         23.475536   0.000000
     26         23.844623   0.000000
     27         24.713326   0.000000
     28         25.739238   0.000000
     29         26.013620   0.000000
     30         28.085129   0.000000
     31         28.421193   0.000000
     32         28.501658   0.000000
     33         29.037664   0.000000
     34         30.041979   0.000000
     35         31.138771   0.000000
     36         31.625241   0.000000
     37         32.387954   0.000000
     38         32.816582   0.000000
     39         34.354671   0.000000
     40         34.559003   0.000000
     41         35.737417   0.000000
     42         36.527657   0.000000
     43         37.235580   0.000000
     44         38.761896   0.000000
     45         39.285988   0.000000
     46         39.513100   0.000000
     47         40.168932   0.000000
     48         40.663653   0.000000
 
 -0.1666667E+00  0.8333333E-01  0.0000000E+00  0.6944444E-02
      1        -45.897870   1.000000
      2        -45.887233   1.000000
      3        -45.885738   1.000000
      4         -2.171965   1.000000
      5         -0.244225   1.000000
      6         -0.021901   1.000000
      7          6.493431   0.000000
      8          7.051827   0.000000