Li                                      
           1
     3.012184    0.000000    7.021179
     1.442519    2.644313    7.021179
     0.000000    0.000000    7.640040
   Li
     3
Direct configuration=     1
   0.00000000  0.00000000  0.00000000
   0.22222000  0.22222000  0.22222000
   0.77778000  0.77778000  0.77778000
