Br                                      
   1.00000000000000     
     8.228600    0.000000    0.000000
     0.000000    4.227310    0.000000
     0.000000    0.000000    9.033230
   Br
     8
Direct
  0.000000  0.375740  0.882840
  0.000000  0.124260  0.382840
  0.000000  0.875740  0.617160
  0.000000  0.624260  0.117160
  0.500000  0.875740  0.882840
  0.500000  0.624260  0.382840
  0.500000  0.375740  0.617160
  0.500000  0.124260  0.117160
 
   72   36   80
  13.163      12.996      12.512      11.751      10.774      9.6553      8.4667      7.2752      6.1359      5.0905    
  4.1683      3.3871      2.7561      2.2776      1.9510      1.7790      1.7740      1.9634      2.3920      3.1230    
  4.2440      5.8831      8.2347      11.584      16.317      22.901      31.832      43.562      58.423      76.524    
  97.627      120.98      145.18      168.12      187.23      199.98      204.47      199.98      187.23      168.12    
  145.18      120.98      97.627      76.524      58.423      43.562      31.832      22.901      16.317      11.584    
  8.2347      5.8831      4.2440      3.1230      2.3920      1.9634      1.7740      1.7790      1.9510      2.2776    
  2.7561      3.3871      4.1683      5.0905      6.1359      7.2752      8.4667      9.6553      10.774      11.751    
  12.512      12.996      13.960      13.779      13.254      12.430      11.375      10.170      8.8945      7.6219    
  6.4111      5.3056      4.3343      3.5140      2.8516      2.3477      2.0007      1.8126      1.7950      1.9745    
  2.3950      3.1186      4.2322      5.8631      8.2042      11.539      16.249      22.797      31.674      43.329    
  58.090      76.065      97.012      120.18      144.16      166.87      185.77      198.37      202.79      198.37    
  185.77      166.87      144.16      120.18      97.012      76.065      58.090      43.329      31.674      22.797    
  16.249      11.539      8.2042      5.8631      4.2322      3.1186      2.3950      1.9745      1.7950      1.8126    
  2.0007      2.3477      2.8516      3.5140      4.3343      5.3056      6.4111      7.6219      8.8945      10.170    
  11.375      12.430      13.254      13.779      16.419      16.194      15.543      14.525      13.228      11.756    
  10.211      8.6863      7.2528      5.9598      4.8364      3.8949      3.1365      2.5563      2.1487      1.9127    
  1.8578      2.0078      2.4038      3.1052      4.1962      5.8015      8.1101      11.399      16.039      22.478    
  31.192      42.619      57.078      74.669      95.148      117.76      141.10      163.13      181.41      193.56    
  197.82      193.56      181.41      163.13      141.10      117.76      95.148      74.669      57.078      42.619    
  31.192      22.478      16.039      11.399      8.1101      5.8015      4.1962      3.1052      2.4038      2.0078    
  1.8578      1.9127      2.1487      2.5563      3.1365      3.8949      4.8364      5.9598      7.2528      8.6863    
  10.211      11.756      13.228      14.525      15.543      16.194      20.725      20.424      19.551      18.191    
  16.467      14.524      12.504      10.533      8.7038      7.0779      5.6850      4.5311      3.6073      2.8985    
  2.3906      2.0766      1.9609      2.0627      2.4181      3.0820      4.1340      5.6941      7.9446      11.151    
  15.669      21.922      30.362      41.404      55.353      72.297      91.983      113.66      135.95      156.90    
  174.21      185.67      189.69      185.67      174.21      156.90      135.95      113.66      91.983      72.297    
  55.353      41.404      30.362      21.922      15.669      11.151      7.9446      5.6941      4.1340      3.0820    
  2.4181      2.0627      1.9609      2.0766      2.3906      2.8985      3.6073      4.5311      5.6850      7.0779    
  8.7038      10.533      12.504      14.524      16.467      18.191      19.551      20.424      27.124      26.708    
  25.502      23.629      21.265      18.617      15.885      13.243      10.819      8.6914      6.8940      5.4245    
  4.2594      3.3674      2.7202      2.2997      2.1016      2.1377      2.4370      3.0476      4.0430      5.5358    
  7.6988      10.782      15.118      21.102      29.153      39.653      52.881      68.910      87.482      107.86    
  128.73      148.26      164.32      174.91      178.61      174.91      164.32      148.26      128.73      107.86    
  87.482      68.910      52.881      39.653      29.153      21.102      15.118      10.782      7.6988      5.5358    
  4.0430      3.0476      2.4370      2.1377      2.1016      2.2997      2.7202      3.3674      4.2594      5.4245    
  6.8940      8.6914      10.819      13.243      15.885      18.617      21.265      23.629      25.502      26.708    
  35.850      35.273      33.605      31.020      27.774      24.155      20.444      16.881      13.640      10.825    
  8.4736      6.5749      5.0865      3.9545      3.1295      2.5758      2.2756      2.2300      2.4585      3.0007    
  3.9213      5.3234      7.3665      10.282      14.373      20.002      27.547      37.351      49.657      64.517    
  81.670      100.42      119.54      137.35      151.95      161.55      164.90      161.55      151.95      137.35    
  119.54      100.42      81.670      64.517      49.657      37.351      27.547      20.002      14.373      10.282    
  7.3665      5.3234      3.9213      3.0007      2.4585      2.2300      2.2756      2.5758      3.1295      3.9545    
  5.0865      6.5749      8.4736      10.825      13.640      16.881      20.444      24.155      27.774      31.020    
  33.605      35.273      47.052      46.262      43.984      40.464      36.063      31.183      26.209      21.462    
  17.174      13.478      10.418      7.9737      6.0780      4.6489      3.6083      2.8966      2.4767      2.3352    
  2.4800      2.9398      3.7687      5.0572      6.9481      9.6492      13.434      18.623      25.552      34.519    
  45.725      59.195      74.672      91.512      108.62      124.49      137.46      145.98      148.94      145.98    
  137.46      124.49      108.62      91.512      74.672      59.195      45.725      34.519      25.552      18.623    
  13.434      9.6492      6.9481      5.0572      3.7687      2.9398      2.4800      2.3352      2.4767      2.8966    
  3.6083      4.6489      6.0780      7.9737      10.418      13.478      17.174      21.462      26.209      31.183    
  36.063      40.464      43.984      46.262      60.722      59.663      56.613      51.919      46.075      39.633    
  33.108      26.920      21.364      16.605      12.695      9.5956      7.2144      5.4346      4.1439      3.2517    
  2.6971      2.4481      2.4984      2.8644      3.5873      4.7426      6.4532      8.8998      12.321      16.998    
  23.217      31.230      41.196      53.110      66.726      81.463      96.366      110.15      121.39      128.75    
  131.32      128.75      121.39      110.15      96.366      81.463      66.726      53.110      41.196      31.230    
  23.217      16.998      12.321      8.8998      6.4532      4.7426      3.5873      2.8644      2.4984      2.4481    
  2.6971      3.2517      4.1439      5.4346      7.2144      9.5956      12.695      16.605      21.364      26.920    
  33.108      39.633      46.075      51.919      56.613      59.663      76.622      75.239      71.259      65.153    
  57.588      49.296      40.953      33.093      26.081      20.110      15.233      11.392      8.4620      6.2885    
  4.7193      3.6288      2.9277      2.5626      2.5108      2.7748      3.3818      4.3901      5.9000      8.0629    
  11.080      15.189      20.632      27.613      36.250      46.517      58.176      70.721      83.343      94.974    
  104.43      110.62      112.78      110.62      104.43      94.974      83.343      70.721      58.176      46.517    
  36.250      27.613      20.632      15.189      11.080      8.0629      5.9000      4.3901      3.3818      2.7748    
  2.5108      2.5626      2.9277      3.6288      4.7193      6.2885      8.4620      11.392      15.233      20.110    
  26.081      33.093      40.953      49.296      57.588      65.153      71.259      75.239      94.234      92.479    
  87.437      79.720      70.198      59.818      49.440      39.731      31.125      23.842      17.923      13.287    
  9.7715      7.1780      5.3131      4.0135      3.1590      2.6731      2.5152      2.6731      3.1590      4.0135    
  5.3131      7.1780      9.7715      13.287      17.923      23.842      31.125      39.731      49.440      59.818    
  70.198      79.720      87.437      92.479      94.234      92.479      87.437      79.720      70.198      59.818    
  49.440      39.731      31.125      23.842      17.923      13.287      9.7715      7.1780      5.3131      4.0135    
  3.1590      2.6731      2.5152      2.6731      3.1590      4.0135      5.3131      7.1780      9.7715      13.287    
  17.923      23.842      31.125      39.731      49.440      59.818      70.198      79.720      87.437      92.479    
  112.78      110.62      104.43      94.974      83.343      70.721      58.176      46.517      36.250      27.613    
  20.632      15.189      11.080      8.0629      5.9000      4.3901      3.3818      2.7748      2.5108      2.5626    
  2.9277      3.6288      4.7193      6.2885      8.4620      11.392      15.233      20.110      26.081      33.093    
  40.953      49.296      57.588      65.153      71.259      75.239      76.622      75.239      71.259      65.153    
  57.588      49.296      40.953      33.093      26.081      20.110      15.233      11.392      8.4620      6.2885    
  4.7193      3.6288      2.9277      2.5626      2.5108      2.7748      3.3818      4.3901      5.9000      8.0629    
  11.080      15.189      20.632      27.613      36.250      46.517      58.176      70.721      83.343      94.974    
  104.43      110.62      131.32      128.75      121.39      110.15      96.366      81.463      66.726      53.110    
  41.196      31.230      23.217      16.998      12.321      8.8998      6.4532      4.7426      3.5873      2.8644    
  2.4984      2.4481      2.6971      3.2517      4.1439      5.4346      7.2144      9.5956      12.695      16.605    
  21.364      26.920      33.108      39.633      46.075      51.919      56.613      59.663      60.722      59.663    
  56.613      51.919      46.075      39.633      33.108      26.920      21.364      16.605      12.695      9.5956    
  7.2144      5.4346      4.1439      3.2517      2.6971      2.4481      2.4984      2.8644      3.5873      4.7426    
  6.4532      8.8998      12.321      16.998      23.217      31.230      41.196      53.110      66.726      81.463    
  96.366      110.15      121.39      128.75      148.94      145.98      137.46      124.49      108.62      91.512    
  74.672      59.195      45.725      34.519      25.552      18.623      13.434      9.6492      6.9481      5.0572    
  3.7687      2.9398      2.4800      2.3352      2.4767      2.8966      3.6083      4.6489      6.0780      7.9737    
  10.418      13.478      17.174      21.462      26.209      31.183      36.063      40.464      43.984      46.262    
  47.052      46.262      43.984      40.464      36.063      31.183      26.209      21.462      17.174      13.478    
  10.418      7.9737      6.0780      4.6489      3.6083      2.8966      2.4767      2.3352      2.4800      2.9398    
  3.7687      5.0572      6.9481      9.6492      13.434      18.623      25.552      34.519      45.725      59.195    
  74.672      91.512      108.62      124.49      137.46      145.98      164.90      161.55      151.95      137.35    
  119.54      100.42      81.670      64.517      49.657      37.351      27.547      20.002      14.373      10.282    
  7.3665      5.3234      3.9213      3.0007      2.4585      2.2300      2.2756      2.5758      3.1295      3.9545    
  5.0865      6.5749      8.4736      10.825      13.640      16.881      20.444      24.155      27.774      31.020    
  33.605      35.273      35.850      35.273      33.605      31.020      27.774      24.155      20.444      16.881    
  13.640      10.825      8.4736      6.5749      5.0865      3.9545      3.1295      2.5758      2.2756      2.2300    
  2.4585      3.0007      3.9213      5.3234      7.3665      10.282      14.373      20.002      27.547      37.351    
  49.657      64.517      81.670      100.42      119.54      137.35      151.95      161.55      178.61      174.91    
  164.32      148.26      128.73      107.86      87.482      68.910      52.881      39.653      29.153      21.102    
  15.118      10.782      7.6988      5.5358      4.0430      3.0476      2.4370      2.1377      2.1016      2.2997    
  2.7202      3.3674      4.2594      5.4245      6.8940      8.6914      10.819      13.243      15.885      18.617    
  21.265      23.629      25.502      26.708      27.124      26.708      25.502      23.629      21.265      18.617    
  15.885      13.243      10.819      8.6914      6.8940      5.4245      4.2594      3.3674      2.7202      2.2997    
  2.1016      2.1377      2.4370      3.0476      4.0430      5.5358      7.6988      10.782      15.118      21.102    
  29.153      39.653      52.881      68.910      87.482      107.86      128.73      148.26      164.32      174.91    
  189.69      185.67      174.21      156.90      135.95      113.66      91.983      72.297      55.353      41.404    
  30.362      21.922      15.669      11.151      7.9446      5.6941      4.1340      3.0820      2.4181      2.0627    
  1.9609      2.0766      2.3906      2.8985      3.6073      4.5311      5.6850      7.0779      8.7038      10.533    
  12.504      14.524      16.467      18.191      19.551      20.424      20.725      20.424      19.551      18.191    
  16.467      14.524      12.504      10.533      8.7038      7.0779      5.6850      4.5311      3.6073      2.8985    
  2.3906      2.0766      1.9609      2.0627      2.4181      3.0820      4.1340      5.6941      7.9446      11.151    
  15.669      21.922      30.362      41.404      55.353      72.297      91.983      113.66      135.95      156.90    
  174.21      185.67      197.82      193.56      181.41      163.13      141.10      117.76      95.148      74.669    
  57.078      42.619      31.192      22.478      16.039      11.399      8.1101      5.8015      4.1962      3.1052    
  2.4038      2.0078      1.8578      1.9127      2.1487      2.5563      3.1365      3.8949      4.8364      5.9598    
  7.2528      8.6863      10.211      11.756      13.228      14.525      15.543      16.194      16.419      16.194    
  15.543      14.525      13.228      11.756      10.211      8.6863      7.2528      5.9598      4.8364      3.8949    
  3.1365      2.5563      2.1487      1.9127      1.8578      2.0078      2.4038      3.1052      4.1962      5.8015    
  8.1101      11.399      16.039      22.478      31.192      42.619      57.078      74.669      95.148      117.76    
  141.10      163.13      181.41      193.56      202.79      198.37      185.77      166.87      144.16      120.18    
  97.012      76.065      58.090      43.329      31.674      22.797      16.249      11.539      8.2042      5.8631    
  4.2322      3.1186      2.3950      1.9745      1.7950      1.8126      2.0007      2.3477      2.8516      3.5140    
  4.3343      5.3056      6.4111      7.6219      8.8945      10.170      11.375      12.430      13.254      13.779    
  13.960      13.779      13.254      12.430      11.375      10.170      8.8945      7.6219      6.4111      5.3056    
  4.3343      3.5140      2.8516      2.3477      2.0007      1.8126      1.7950      1.9745      2.3950      3.1186    
  4.2322      5.8631      8.2042      11.539      16.249      22.797      31.674      43.329      58.090      76.065    
  97.012      120.18      144.16      166.87      185.77      198.37      204.47      199.98      187.23      168.12    
  145.18      120.98      97.627      76.524      58.423      43.562      31.832      22.901      16.317      11.584    
  8.2347      5.8831      4.2440      3.1230      2.3920      1.9634      1.7740      1.7790      1.9510      2.2776    
  2.7561      3.3871      4.1683      5.0905      6.1359      7.2752      8.4667      9.6553      10.774      11.751    
  12.512      12.996      13.163      12.996      12.512      11.751      10.774      9.6553      8.4667      7.2752    
  6.1359      5.0905      4.1683      3.3871      2.7561      2.2776      1.9510      1.7790      1.7740      1.9634    
  2.3920      3.1230      4.2440      5.8831      8.2347      11.584      16.317      22.901      31.832      43.562    
  58.423      76.524      97.627      120.98      145.18      168.12      187.23      199.98      202.79      198.37    
  185.77      166.87      144.16      120.18      97.012      76.065      58.090      43.329      31.674      22.797    
  16.249      11.539      8.2042      5.8631      4.2322      3.1186      2.3950      1.9745      1.7950      1.8126    
  2.0007      2.3477      2.8516      3.5140      4.3343      5.3056      6.4111      7.6219      8.8945      10.170    
  11.375      12.430      13.254      13.779      13.960      13.779      13.254      12.430      11.375      10.170    
  8.8945      7.6219      6.4111      5.3056      4.3343      3.5140      2.8516      2.3477      2.0007      1.8126    
  1.7950      1.9745      2.3950      3.1186      4.2322      5.8631      8.2042      11.539      16.249      22.797    
  31.674      43.329      58.090      76.065      97.012      120.18      144.16      166.87      185.77      198.37    
  197.82      193.56      181.41      163.13      141.10      117.76      95.148      74.669      57.078      42.619    
  31.192      22.478      16.039      11.399      8.1101      5.8015      4.1962      3.1052      2.4038      2.0078    
  1.8578      1.9127      2.1487      2.5563      3.1365      3.8949      4.8364      5.9598      7.2528      8.6863    
  10.211      11.756      13.228      14.525      15.543      16.194      16.419      16.194      15.543      14.525    
  13.228      11.756      10.211      8.6863      7.2528      5.9598      4.8364      3.8949      3.1365      2.5563    
  2.1487      1.9127      1.8578      2.0078      2.4038      3.1052      4.1962      5.8015      8.1101      11.399    
  16.039      22.478      31.192      42.619      57.078      74.669      95.148      117.76      141.10      163.13    
  181.41      193.56      189.69      185.67      174.21      156.90      135.95      113.66      91.983      72.297    
  55.353      41.404      30.362      21.922      15.669      11.151      7.9446      5.6941      4.1340      3.0820    
  2.4181      2.0627      1.9609      2.0766      2.3906      2.8985      3.6073      4.5311      5.6850      7.0779    
  8.7038      10.533      12.504      14.524      16.467      18.191      19.551      20.424      20.725      20.424    
  19.551      18.191      16.467      14.524      12.504      10.533      8.7038      7.0779      5.6850      4.5311    
  3.6073      2.8985      2.3906      2.0766      1.9609      2.0627      2.4181      3.0820      4.1340      5.6941    
  7.9446      11.151      15.669      21.922      30.362      41.404      55.353      72.297      91.983      113.66    
  135.95      156.90      174.21      185.67      178.61      174.91      164.32      148.26      128.73      107.86    
  87.482      68.910      52.881      39.653      29.153      21.102      15.118      10.782      7.6988      5.5358    
  4.0430      3.0476      2.4370      2.1377      2.1016      2.2997      2.7202      3.3674      4.2594      5.4245    
  6.8940      8.6914      10.819      13.243      15.885      18.617      21.265      23.629      25.502      26.708    
  27.124      26.708      25.502      23.629      21.265      18.617      15.885      13.243      10.819      8.6914    
  6.8940      5.4245      4.2594      3.3674      2.7202      2.2997      2.1016      2.1377      2.4370      3.0476    
  4.0430      5.5358      7.6988      10.782      15.118      21.102      29.153      39.653      52.881      68.910    
  87.482      107.86      128.73      148.26      164.32      174.91      164.90      161.55      151.95      137.35    
  119.54      100.42      81.670      64.517      49.657      37.351      27.547      20.002      14.373      10.282    
  7.3665      5.3234      3.9213      3.0007      2.4585      2.2300      2.2756      2.5758      3.1295      3.9545    
  5.0865      6.5749      8.4736      10.825      13.640      16.881      20.444      24.155      27.774      31.020    
  33.605      35.273      35.850      35.273      33.605      31.020      27.774      24.155      20.444      16.881    
  13.640      10.825      8.4736      6.5749      5.0865      3.9545      3.1295      2.5758      2.2756      2.2300    
  2.4585      3.0007      3.9213      5.3234      7.3665      10.282      14.373      20.002      27.547      37.351    
  49.657      64.517      81.670      100.42      119.54      137.35      151.95      161.55      148.94      145.98    
  137.46      124.49      108.62      91.512      74.672      59.195      45.725      34.519      25.552      18.623    
  13.434      9.6492      6.9481      5.0572      3.7687      2.9398      2.4800      2.3352      2.4767      2.8966    
  3.6083      4.6489      6.0780      7.9737      10.418      13.478      17.174      21.462      26.209      31.183    
  36.063      40.464      43.984      46.262      47.052      46.262      43.984      40.464      36.063      31.183    
  26.209      21.462      17.174      13.478      10.418      7.9737      6.0780      4.6489      3.6083      2.8966    
  2.4767      2.3352      2.4800      2.9398      3.7687      5.0572      6.9481      9.6492      13.434      18.623    
  25.552      34.519      45.725      59.195      74.672      91.512      108.62      124.49      137.46      145.98    
  131.32      128.75      121.39      110.15      96.366      81.463      66.726      53.110      41.196      31.230    
  23.217      16.998      12.321      8.8998      6.4532      4.7426      3.5873      2.8644      2.4984      2.4481    
  2.6971      3.2517      4.1439      5.4346      7.2144      9.5956      12.695      16.605      21.364      26.920    
  33.108      39.633      46.075      51.919      56.613      59.663      60.722      59.663      56.613      51.919    
  46.075      39.633      33.108      26.920      21.364      16.605      12.695      9.5956      7.2144      5.4346    
  4.1439      3.2517      2.6971      2.4481      2.4984      2.8644      3.5873      4.7426      6.4532      8.8998    
  12.321      16.998      23.217      31.230      41.196      53.110      66.726      81.463      96.366      110.15    
  121.39      128.75      112.78      110.62      104.43      94.974      83.343      70.721      58.176      46.517    
  36.250      27.613      20.632      15.189      11.080      8.0629      5.9000      4.3901      3.3818      2.7748    
  2.5108      2.5626      2.9277      3.6288      4.7193      6.2885      8.4620      11.392      15.233      20.110    
  26.081      33.093      40.953      49.296      57.588      65.153      71.259      75.239      76.622      75.239    
  71.259      65.153      57.588      49.296      40.953      33.093      26.081      20.110      15.233      11.392    
  8.4620      6.2885      4.7193      3.6288      2.9277      2.5626      2.5108      2.7748      3.3818      4.3901    
  5.9000      8.0629      11.080      15.189      20.632      27.613      36.250      46.517      58.176      70.721    
  83.343      94.974      104.43      110.62      94.234      92.479      87.437      79.720      70.198      59.818    
  49.440      39.731      31.125      23.842      17.923      13.287      9.7715      7.1780      5.3131      4.0135    
  3.1590      2.6731      2.5152      2.6731      3.1590      4.0135      5.3131      7.1780      9.7715      13.287    
  17.923      23.842      31.125      39.731      49.440      59.818      70.198      79.720      87.437      92.479    
  94.234      92.479      87.437      79.720      70.198      59.818      49.440      39.731      31.125      23.842    
  17.923      13.287      9.7715      7.1780      5.3131      4.0135      3.1590      2.6731      2.5152      2.6731    
  3.1590      4.0135      5.3131      7.1780      9.7715      13.287      17.923      23.842      31.125      39.731    
  49.440      59.818      70.198      79.720      87.437      92.479      76.622      75.239      71.259      65.153    
  57.588      49.296      40.953      33.093      26.081      20.110      15.233      11.392      8.4620      6.2885    
  4.7193      3.6288      2.9277      2.5626      2.5108      2.7748      3.3818      4.3901      5.9000      8.0629    
  11.080      15.189      20.632      27.613      36.250      46.517      58.176      70.721      83.343      94.974    
  104.43      110.62      112.78      110.62      104.43      94.974      83.343      70.721      58.176      46.517    
  36.250      27.613      20.632      15.189      11.080      8.0629      5.9000      4.3901      3.3818      2.7748    
  2.5108      2.5626      2.9277      3.6288      4.7193      6.2885      8.4620      11.392      15.233      20.110    
  26.081      33.093      40.953      49.296      57.588      65.153      71.259      75.239      60.722      59.663    
  56.613      51.919      46.075      39.633      33.108      26.920      21.364      16.605      12.695      9.5956    
  7.2144      5.4346      4.1439      3.2517      2.6971      2.4481      2.4984      2.8644      3.5873      4.7426    
  6.4532      8.8998      12.321      16.998      23.217      31.230      41.196      53.110      66.726      81.463    
  96.366      110.15      121.39      128.75      131.32      128.75      121.39      110.15      96.366      81.463    
  66.726      53.110      41.196      31.230      23.217      16.998      12.321      8.8998      6.4532      4.7426    
  3.5873      2.8644      2.4984      2.4481      2.6971      3.2517      4.1439      5.4346      7.2144      9.5956    
  12.695      16.605      21.364      26.920      33.108      39.633      46.075      51.919      56.613      59.663    
  47.052      46.262      43.984      40.464      36.063      31.183      26.209      21.462      17.174      13.478    
  10.418      7.9737      6.0780      4.6489      3.6083      2.8966      2.4767      2.3352      2.4800      2.9398    
  3.7687      5.0572      6.9481      9.6492      13.434      18.623      25.552      34.519      45.725      59.195    
  74.672      91.512      108.62      124.49      137.46      145.98      148.94      145.98      137.46      124.49    
  108.62      91.512      74.672      59.195      45.725      34.519      25.552      18.623      13.434      9.6492    
  6.9481      5.0572      3.7687      2.9398      2.4800      2.3352      2.4767      2.8966      3.6083      4.6489    
  6.0780      7.9737      10.418      13.478      17.174      21.462      26.209      31.183      36.063      40.464    
  43.984      46.262      35.850      35.273      33.605      31.020      27.774      24.155      20.444      16.881    
  13.640      10.825      8.4736      6.5749      5.0865      3.9545      3.1295      2.5758      2.2756      2.2300    
  2.4585      3.0007      3.9213      5.3234      7.3665      10.282      14.373      20.002      27.547      37.351    
  49.657      64.517      81.670      100.42      119.54      137.35      151.95      161.55      164.90      161.55    
  151.95      137.35      119.54      100.42      81.670      64.517      49.657      37.351      27.547      20.002    
  14.373      10.282      7.3665      5.3234      3.9213      3.0007      2.4585      2.2300      2.2756      2.5758    
  3.1295      3.9545      5.0865      6.5749      8.4736      10.825      13.640      16.881      20.444      24.155    
  27.774      31.020      33.605      35.273      27.124      26.708      25.502      23.629      21.265      18.617    
  15.885      13.243      10.819      8.6914      6.8940      5.4245      4.2594      3.3674      2.7202      2.2997    
  2.1016      2.1377      2.4370      3.0476      4.0430      5.5358      7.6988      10.782      15.118      21.102    
  29.153      39.653      52.881      68.910      87.482      107.86      128.73      148.26      164.32      174.91    
  178.61      174.91      164.32      148.26      128.73      107.86      87.482      68.910      52.881      39.653    
  29.153      21.102      15.118      10.782      7.6988      5.5358      4.0430      3.0476      2.4370      2.1377    
  2.1016      2.2997      2.7202      3.3674      4.2594      5.4245      6.8940      8.6914      10.819      13.243    
  15.885      18.617      21.265      23.629      25.502      26.708      20.725      20.424      19.551      18.191    
  16.467      14.524      12.504      10.533      8.7038      7.0779      5.6850      4.5311      3.6073      2.8985    
  2.3906      2.0766      1.9609      2.0627      2.4181      3.0820      4.1340      5.6941      7.9446      11.151    
  15.669      21.922      30.362      41.404      55.353      72.297      91.983      113.66      135.95      156.90    
  174.21      185.67      189.69      185.67      174.21      156.90      135.95      113.66      91.983      72.297    
  55.353      41.404      30.362      21.922      15.669      11.151      7.9446      5.6941      4.1340      3.0820    
  2.4181      2.0627      1.9609      2.0766      2.3906      2.8985      3.6073      4.5311      5.6850      7.0779    