Br                                      
   1.00000000000000     
     8.228600    0.000000    0.000000
     0.000000    4.227310    0.000000
     0.000000    0.000000    9.033230
   Br
     8
Direct
  0.000000  0.375740  0.882840
  0.000000  0.124260  0.382840
  0.000000  0.875740  0.617160
  0.000000  0.624260  0.117160
  0.500000  0.875740  0.882840
  0.500000  0.624260  0.382840
  0.500000  0.375740  0.617160
  0.500000  0.124260  0.117160
 
   72   36   80
 0.13162797002E+02 0.12996412788E+02 0.12511904208E+02 0.11750735900E+02 0.10774438237E+02
 0.96552871467E+01 0.84666637402E+01 0.72751826417E+01 0.61358741916E+01 0.50905229608E+01
 0.41682522125E+01 0.33871362961E+01 0.27561320168E+01 0.22775529369E+01 0.19509592082E+01
 0.17789656114E+01 0.17739682844E+01 0.19634093637E+01 0.23920104696E+01 0.31229867981E+01
 0.42439795598E+01 0.58831387733E+01 0.82346679508E+01 0.11584072124E+02 0.16317387280E+02
 0.22901209750E+02 0.31831634601E+02 0.43562390051E+02 0.58423115993E+02 0.76523750089E+02
 0.97626505016E+02 0.12098163468E+03 0.14517759620E+03 0.16811696978E+03 0.18723419208E+03
 0.19998222129E+03 0.20446579844E+03 0.19998222129E+03 0.18723419208E+03 0.16811696978E+03
 0.14517759620E+03 0.12098163468E+03 0.97626505016E+02 0.76523750089E+02 0.58423115993E+02
 0.43562390051E+02 0.31831634601E+02 0.22901209750E+02 0.16317387280E+02 0.11584072124E+02
 0.82346679508E+01 0.58831387733E+01 0.42439795598E+01 0.31229867981E+01 0.23920104696E+01
 0.19634093637E+01 0.17739682844E+01 0.17789656114E+01 0.19509592082E+01 0.22775529369E+01
 0.27561320168E+01 0.33871362961E+01 0.41682522125E+01 0.50905229608E+01 0.61358741916E+01
 0.72751826417E+01 0.84666637402E+01 0.96552871467E+01 0.10774438237E+02 0.11750735900E+02
 0.12511904208E+02 0.12996412788E+02 0.13959569453E+02 0.13779059446E+02 0.13253796846E+02
 0.12429788683E+02 0.11375181296E+02 0.10169837206E+02 0.88945174634E+01 0.76219174201E+01
 0.64110903409E+01 0.53055782743E+01 0.43343278120E+01 0.35139726328E+01 0.28515538681E+01
 0.23476794979E+01 0.20007453222E+01 0.18126197457E+01 0.17950180210E+01 0.19745473155E+01
 0.23949804506E+01 0.31186099138E+01 0.42322358604E+01 0.58631343495E+01 0.82042448502E+01
 0.11538841385E+02 0.16249312888E+02 0.22797406696E+02 0.31674188810E+02 0.43329402180E+02
 0.58090183315E+02 0.76064609456E+02 0.97012405455E+02 0.12018129075E+03 0.14416173856E+03
 0.16687051636E+03 0.18577327970E+03 0.19836616211E+03 0.20279277567E+03 0.19836616211E+03
 0.18577327970E+03 0.16687051636E+03 0.14416173856E+03 0.12018129075E+03 0.97012405455E+02
 0.76064609456E+02 0.58090183315E+02 0.43329402180E+02 0.31674188810E+02 0.22797406696E+02
 0.16249312888E+02 0.11538841385E+02 0.82042448502E+01 0.58631343495E+01 0.42322358604E+01
 0.31186099138E+01 0.23949804506E+01 0.19745473155E+01 0.17950180210E+01 0.18126197457E+01
 0.20007453222E+01 0.23476794979E+01 0.28515538681E+01 0.35139726328E+01 0.43343278120E+01
 0.53055782743E+01 0.64110903409E+01 0.76219174201E+01 0.88945174634E+01 0.10169837206E+02
 0.11375181296E+02 0.12429788683E+02 0.13253796846E+02 0.13779059446E+02 0.16418600697E+02
 0.16194443496E+02 0.15543221943E+02 0.14524894430E+02 0.13227939268E+02 0.11755538717E+02
 0.10211166715E+02 0.86863406221E+01 0.72527747189E+01 0.59598395545E+01 0.48363694402E+01
 0.38948532656E+01 0.31364630342E+01 0.25562855895E+01 0.21486619351E+01 0.19127045342E+01
 0.18577681634E+01 0.20078376894E+01 0.24038154344E+01 0.31052052397E+01 0.41962398023E+01
 0.58015025110E+01 0.81100723562E+01 0.11398566059E+02 0.16038667997E+02 0.22477918675E+02
 0.31192397629E+02 0.42619430840E+02 0.57077760582E+02 0.74669423216E+02 0.95147872965E+02
 0.11775664135E+03 0.14109659414E+03 0.16312912048E+03 0.18141023394E+03 0.19355707846E+03
 0.19782060861E+03 0.19355707846E+03 0.18141023394E+03 0.16312912048E+03 0.14109659414E+03
 0.11775664135E+03 0.95147872965E+02 0.74669423216E+02 0.57077760582E+02 0.42619430840E+02
 0.31192397629E+02 0.22477918675E+02 0.16038667997E+02 0.11398566059E+02 0.81100723562E+01
 0.58015025110E+01 0.41962398023E+01 0.31052052397E+01 0.24038154344E+01 0.20078376894E+01
 0.18577681634E+01 0.19127045342E+01 0.21486619351E+01 0.25562855895E+01 0.31364630342E+01
 0.38948532656E+01 0.48363694402E+01 0.59598395545E+01 0.72527747189E+01 0.86863406221E+01
 0.10211166715E+02 0.11755538717E+02 0.13227939268E+02 0.14524894430E+02 0.15543221943E+02
 0.16194443496E+02 0.20724895947E+02 0.20423949776E+02 0.19551108456E+02 0.18190810521E+02
 0.16467140272E+02 0.14523979130E+02 0.12504371602E+02 0.10532828682E+02 0.87037930860E+01
 0.70778926837E+01 0.56849539441E+01 0.45310778882E+01 0.36073428386E+01 0.28985194864E+01
 0.23905944733E+01 0.20765643341E+01 0.19608640495E+01 0.20627136311E+01 0.24181465451E+01
 0.30819639080E+01 0.41339793629E+01 0.56940516378E+01 0.79446024514E+01 0.11151259625E+02
 0.15668588029E+02 0.21921519469E+02 0.30361617648E+02 0.41404448673E+02 0.55352503859E+02
 0.72296584608E+02 0.91983006920E+02 0.11365772228E+03 0.13595082021E+03 0.15690347526E+03
 0.17421259999E+03 0.18567264245E+03 0.18968704469E+03 0.18567264245E+03 0.17421259999E+03
 0.15690347526E+03 0.13595082021E+03 0.11365772228E+03 0.91983006920E+02 0.72296584608E+02
 0.55352503859E+02 0.41404448673E+02 0.30361617648E+02 0.21921519469E+02 0.15668588029E+02
 0.11151259625E+02 0.79446024514E+01 0.56940516378E+01 0.41339793629E+01 0.30819639080E+01
 0.24181465451E+01 0.20627136311E+01 0.19608640495E+01 0.20765643341E+01 0.23905944733E+01
 0.28985194864E+01 0.36073428386E+01 0.45310778882E+01 0.56849539441E+01 0.70778926837E+01
 0.87037930860E+01 0.10532828682E+02 0.12504371602E+02 0.14523979130E+02 0.16467140272E+02
 0.18190810521E+02 0.19551108456E+02 0.20423949776E+02 0.27124026384E+02 0.26707678999E+02
 0.25501980111E+02 0.23628600996E+02 0.21265389343E+02 0.18617020540E+02 0.15885056566E+02
 0.13242730126E+02 0.10818641680E+02 0.86914112498E+01 0.68940353968E+01 0.54245300705E+01
 0.42594495099E+01 0.33674410524E+01 0.27202437118E+01 0.22997172135E+01 0.21016180828E+01
 0.21376995156E+01 0.24369894369E+01 0.30476216578E+01 0.40429692185E+01 0.55358112618E+01
 0.76988143444E+01 0.10782401408E+02 0.15118470275E+02 0.21102339595E+02 0.29152546815E+02
 0.39653249126E+02 0.52881333903E+02 0.68910434755E+02 0.87481948546E+02 0.10785928905E+03
 0.12873104238E+03 0.14825726365E+03 0.16431554540E+03 0.17490908039E+03 0.17861246550E+03
 0.17490908039E+03 0.16431554540E+03 0.14825726365E+03 0.12873104238E+03 0.10785928905E+03
 0.87481948546E+02 0.68910434755E+02 0.52881333903E+02 0.39653249126E+02 0.29152546815E+02
 0.21102339595E+02 0.15118470275E+02 0.10782401408E+02 0.76988143444E+01 0.55358112618E+01
 0.40429692185E+01 0.30476216578E+01 0.24369894369E+01 0.21376995156E+01 0.21016180828E+01
 0.22997172135E+01 0.27202437118E+01 0.33674410524E+01 0.42594495099E+01 0.54245300705E+01
 0.68940353968E+01 0.86914112498E+01 0.10818641680E+02 0.13242730126E+02 0.15885056566E+02
 0.18617020540E+02 0.21265389343E+02 0.23628600996E+02 0.25501980111E+02 0.26707678999E+02
 0.35849981761E+02 0.35273012339E+02 0.33604713532E+02 0.31020219331E+02 0.27773678118E+02
 0.24154500917E+02 0.20444135591E+02 0.16881280254E+02 0.13640382118E+02 0.10824944763E+02
 0.84736150378E+01 0.65749354432E+01 0.50865159612E+01 0.39545369514E+01 0.31295097332E+01
 0.25758098810E+01 0.22756435526E+01 0.22299734733E+01 0.24584965723E+01 0.30006828313E+01
 0.39213078548E+01 0.53234019450E+01 0.73664719912E+01 0.10281622830E+02 0.14373409187E+02
 0.20002129276E+02 0.27546537839E+02 0.37350898737E+02 0.49657478142E+02 0.64517124315E+02
 0.81670400855E+02 0.10041742311E+03 0.11953901336E+03 0.13735283513E+03 0.15194703784E+03
 0.16154650645E+03 0.16489699963E+03 0.16154650645E+03 0.15194703784E+03 0.13735283513E+03
 0.11953901336E+03 0.10041742311E+03 0.81670400855E+02 0.64517124315E+02 0.49657478142E+02
 0.37350898737E+02 0.27546537839E+02 0.20002129276E+02 0.14373409187E+02 0.10281622830E+02
 0.73664719912E+01 0.53234019450E+01 0.39213078548E+01 0.30006828313E+01 0.24584965723E+01
 0.22299734733E+01 0.22756435526E+01 0.25758098810E+01 0.31295097332E+01 0.39545369514E+01
 0.50865159612E+01 0.65749354432E+01 0.84736150378E+01 0.10824944763E+02 0.13640382118E+02
 0.16881280254E+02 0.20444135591E+02 0.24154500917E+02 0.27773678118E+02 0.31020219331E+02
 0.33604713532E+02 0.35273012339E+02 0.47051918141E+02 0.46262462951E+02 0.43983509463E+02
 0.40464174846E+02 0.36062920953E+02 0.31182637563E+02 0.26208731755E+02 0.21462380191E+02
 0.17174180149E+02 0.13477645699E+02 0.10418376741E+02 0.79737054353E+01 0.60780230193E+01
 0.46488502239E+01 0.36083393873E+01 0.28965651097E+01 0.24767301954E+01 0.23352496427E+01
 0.24800023928E+01 0.29398191271E+01 0.37687248582E+01 0.50572107673E+01 0.69480843465E+01
 0.96491586344E+01 0.13433708232E+02 0.18623148617E+02 0.25552009861E+02 0.34518923658E+02
 0.45725114658E+02 0.59194813668E+02 0.74672193457E+02 0.91511693232E+02 0.10861609912E+03
 0.12449295526E+03 0.13746265164E+03 0.14597640346E+03 0.14894487758E+03 0.14597640346E+03
 0.13746265164E+03 0.12449295526E+03 0.10861609912E+03 0.91511693232E+02 0.74672193457E+02
 0.59194813668E+02 0.45725114658E+02 0.34518923658E+02 0.25552009861E+02 0.18623148617E+02
 0.13433708232E+02 0.96491586344E+01 0.69480843465E+01 0.50572107673E+01 0.37687248582E+01
 0.29398191271E+01 0.24800023928E+01 0.23352496427E+01 0.24767301954E+01 0.28965651097E+01
 0.36083393873E+01 0.46488502239E+01 0.60780230193E+01 0.79737054353E+01 0.10418376741E+02
 0.13477645699E+02 0.17174180149E+02 0.21462380191E+02 0.26208731755E+02 0.31182637563E+02
 0.36062920953E+02 0.40464174846E+02 0.43983509463E+02 0.46262462951E+02 0.60721776568E+02
 0.59663376823E+02 0.56613245271E+02 0.51918631265E+02 0.46075261407E+02 0.39632892290E+02
 0.33107626510E+02 0.26919909147E+02 0.21364148512E+02 0.16605475002E+02 0.12694939096E+02
 0.95956044180E+01 0.72143706924E+01 0.54346246567E+01 0.41438775345E+01 0.32516906754E+01
 0.26970550722E+01 0.24480981056E+01 0.24984163049E+01 0.28643728937E+01 0.35873164962E+01
 0.47426430516E+01 0.64531713569E+01 0.88998068493E+01 0.12321265433E+02 0.16997537970E+02
 0.23216906857E+02 0.31230293182E+02 0.41195734943E+02 0.53110230412E+02 0.66725739673E+02
 0.81462968161E+02 0.96365725109E+02 0.11015172928E+03 0.12138708761E+03 0.12875213624E+03
 0.13131848853E+03 0.12875213624E+03 0.12138708761E+03 0.11015172928E+03 0.96365725109E+02
 0.81462968161E+02 0.66725739673E+02 0.53110230412E+02 0.41195734943E+02 0.31230293182E+02
 0.23216906857E+02 0.16997537970E+02 0.12321265433E+02 0.88998068493E+01 0.64531713569E+01
 0.47426430516E+01 0.35873164962E+01 0.28643728937E+01 0.24984163049E+01 0.24480981056E+01
 0.26970550722E+01 0.32516906754E+01 0.41438775345E+01 0.54346246567E+01 0.72143706924E+01
 0.95956044180E+01 0.12694939096E+02 0.16605475002E+02 0.21364148512E+02 0.26919909147E+02
 0.33107626510E+02 0.39632892290E+02 0.46075261407E+02 0.51918631265E+02 0.56613245271E+02
 0.59663376823E+02 0.76621836174E+02 0.75238737640E+02 0.71259109524E+02 0.65153060973E+02
 0.57588039113E+02 0.49296182384E+02 0.40952519078E+02 0.33093057838E+02 0.26080887193E+02
 0.20110322186E+02 0.15232709171E+02 0.11391673530E+02 0.84620139488E+01 0.62884939577E+01
 0.47192951938E+01 0.36287940708E+01 0.29276549371E+01 0.25625979592E+01 0.25108446021E+01
 0.27748241345E+01 0.33817644653E+01 0.43900570759E+01 0.59000255701E+01 0.80628628884E+01
 0.11080255727E+02 0.15189335870E+02 0.20632167868E+02 0.27613420009E+02 0.36250494442E+02
 0.46516585556E+02 0.58175874413E+02 0.70720898403E+02 0.83342640134E+02 0.94974287840E+02
 0.10443055447E+03 0.11062100747E+03 0.11277686369E+03 0.11062100747E+03 0.10443055447E+03
 0.94974287840E+02 0.83342640134E+02 0.70720898403E+02 0.58175874413E+02 0.46516585556E+02
 0.36250494442E+02 0.27613420009E+02 0.20632167868E+02 0.15189335870E+02 0.11080255727E+02
 0.80628628884E+01 0.59000255701E+01 0.43900570759E+01 0.33817644653E+01 0.27748241345E+01
 0.25108446021E+01 0.25625979592E+01 0.29276549371E+01 0.36287940708E+01 0.47192951938E+01
 0.62884939577E+01 0.84620139488E+01 0.11391673530E+02 0.15232709171E+02 0.20110322186E+02
 0.26080887193E+02 0.33093057838E+02 0.40952519078E+02 0.49296182384E+02 0.57588039113E+02
 0.65153060973E+02 0.71259109524E+02 0.75238737640E+02 0.94233962252E+02 0.92479364257E+02
 0.87436985404E+02 0.79720205478E+02 0.70198123337E+02 0.59817748313E+02 0.49439743803E+02
 0.39730748043E+02 0.31125368101E+02 0.23841765332E+02 0.17923469285E+02 0.13287494288E+02
 0.97714524933E+01 0.71779810623E+01 0.53131327118E+01 0.40134991165E+01 0.31590233752E+01
 0.26730909748E+01 0.25152344560E+01 0.26730909748E+01 0.31590233752E+01 0.40134991165E+01
 0.53131327118E+01 0.71779810623E+01 0.97714524933E+01 0.13287494288E+02 0.17923469285E+02
 0.23841765332E+02 0.31125368101E+02 0.39730748043E+02 0.49439743803E+02 0.59817748313E+02
 0.70198123337E+02 0.79720205478E+02 0.87436985405E+02 0.92479364257E+02 0.94233962252E+02
 0.92479364257E+02 0.87436985405E+02 0.79720205478E+02 0.70198123337E+02 0.59817748313E+02
 0.49439743803E+02 0.39730748043E+02 0.31125368101E+02 0.23841765332E+02 0.17923469285E+02
 0.13287494288E+02 0.97714524933E+01 0.71779810623E+01 0.53131327118E+01 0.40134991165E+01
 0.31590233752E+01 0.26730909748E+01 0.25152344560E+01 0.26730909748E+01 0.31590233752E+01
 0.40134991165E+01 0.53131327118E+01 0.71779810623E+01 0.97714524933E+01 0.13287494288E+02
 0.17923469285E+02 0.23841765332E+02 0.31125368101E+02 0.39730748043E+02 0.49439743803E+02
 0.59817748313E+02 0.70198123337E+02 0.79720205478E+02 0.87436985404E+02 0.92479364257E+02
 0.11277686369E+03 0.11062100747E+03 0.10443055447E+03 0.94974287840E+02 0.83342640134E+02
 0.70720898403E+02 0.58175874413E+02 0.46516585556E+02 0.36250494442E+02 0.27613420009E+02
 0.20632167868E+02 0.15189335870E+02 0.11080255727E+02 0.80628628884E+01 0.59000255701E+01
 0.43900570759E+01 0.33817644653E+01 0.27748241345E+01 0.25108446021E+01 0.25625979592E+01
 0.29276549371E+01 0.36287940708E+01 0.47192951938E+01 0.62884939577E+01 0.84620139488E+01
 0.11391673530E+02 0.15232709171E+02 0.20110322186E+02 0.26080887193E+02 0.33093057838E+02
 0.40952519078E+02 0.49296182384E+02 0.57588039113E+02 0.65153060973E+02 0.71259109524E+02
 0.75238737640E+02 0.76621836174E+02 0.75238737640E+02 0.71259109524E+02 0.65153060973E+02
 0.57588039113E+02 0.49296182384E+02 0.40952519078E+02 0.33093057838E+02 0.26080887193E+02
 0.20110322186E+02 0.15232709171E+02 0.11391673530E+02 0.84620139488E+01 0.62884939577E+01
 0.47192951938E+01 0.36287940708E+01 0.29276549371E+01 0.25625979592E+01 0.25108446021E+01
 0.27748241345E+01 0.33817644653E+01 0.43900570759E+01 0.59000255701E+01 0.80628628884E+01
 0.11080255727E+02 0.15189335870E+02 0.20632167868E+02 0.27613420009E+02 0.36250494442E+02
 0.46516585556E+02 0.58175874413E+02 0.70720898403E+02 0.83342640134E+02 0.94974287840E+02
 0.10443055447E+03 0.11062100747E+03 0.13131848853E+03 0.12875213624E+03 0.12138708761E+03
 0.11015172928E+03 0.96365725109E+02 0.81462968161E+02 0.66725739673E+02 0.53110230412E+02
 0.41195734943E+02 0.31230293182E+02 0.23216906857E+02 0.16997537970E+02 0.12321265433E+02
 0.88998068493E+01 0.64531713569E+01 0.47426430516E+01 0.35873164962E+01 0.28643728937E+01
 0.24984163049E+01 0.24480981056E+01 0.26970550722E+01 0.32516906754E+01 0.41438775345E+01
 0.54346246567E+01 0.72143706924E+01 0.95956044180E+01 0.12694939096E+02 0.16605475002E+02
 0.21364148512E+02 0.26919909147E+02 0.33107626510E+02 0.39632892290E+02 0.46075261407E+02
 0.51918631265E+02 0.56613245271E+02 0.59663376823E+02 0.60721776568E+02 0.59663376823E+02
 0.56613245271E+02 0.51918631265E+02 0.46075261407E+02 0.39632892290E+02 0.33107626510E+02
 0.26919909147E+02 0.21364148512E+02 0.16605475002E+02 0.12694939096E+02 0.95956044180E+01
 0.72143706924E+01 0.54346246567E+01 0.41438775345E+01 0.32516906754E+01 0.26970550722E+01
 0.24480981056E+01 0.24984163049E+01 0.28643728937E+01 0.35873164962E+01 0.47426430516E+01
 0.64531713569E+01 0.88998068493E+01 0.12321265433E+02 0.16997537970E+02 0.23216906857E+02
 0.31230293182E+02 0.41195734943E+02 0.53110230412E+02 0.66725739673E+02 0.81462968161E+02
 0.96365725109E+02 0.11015172928E+03 0.12138708761E+03 0.12875213624E+03 0.14894487758E+03
 0.14597640346E+03 0.13746265164E+03 0.12449295526E+03 0.10861609912E+03 0.91511693232E+02
 0.74672193457E+02 0.59194813668E+02 0.45725114658E+02 0.34518923658E+02 0.25552009861E+02
 0.18623148617E+02 0.13433708232E+02 0.96491586344E+01 0.69480843465E+01 0.50572107673E+01
 0.37687248582E+01 0.29398191271E+01 0.24800023928E+01 0.23352496427E+01 0.24767301954E+01
 0.28965651097E+01 0.36083393873E+01 0.46488502239E+01 0.60780230193E+01 0.79737054353E+01
 0.10418376741E+02 0.13477645699E+02 0.17174180149E+02 0.21462380191E+02 0.26208731755E+02
 0.31182637563E+02 0.36062920953E+02 0.40464174846E+02 0.43983509463E+02 0.46262462951E+02
 0.47051918141E+02 0.46262462951E+02 0.43983509463E+02 0.40464174846E+02 0.36062920953E+02
 0.31182637563E+02 0.26208731755E+02 0.21462380191E+02 0.17174180149E+02 0.13477645699E+02
 0.10418376741E+02 0.79737054353E+01 0.60780230193E+01 0.46488502239E+01 0.36083393873E+01
 0.28965651097E+01 0.24767301954E+01 0.23352496427E+01 0.24800023928E+01 0.29398191271E+01
 0.37687248582E+01 0.50572107673E+01 0.69480843465E+01 0.96491586344E+01 0.13433708232E+02
 0.18623148617E+02 0.25552009861E+02 0.34518923658E+02 0.45725114658E+02 0.59194813668E+02
 0.74672193457E+02 0.91511693232E+02 0.10861609912E+03 0.12449295526E+03 0.13746265164E+03
 0.14597640346E+03 0.16489699963E+03 0.16154650645E+03 0.15194703784E+03 0.13735283513E+03
 0.11953901336E+03 0.10041742311E+03 0.81670400855E+02 0.64517124315E+02 0.49657478142E+02
 0.37350898737E+02 0.27546537839E+02 0.20002129276E+02 0.14373409187E+02 0.10281622830E+02
 0.73664719912E+01 0.53234019450E+01 0.39213078548E+01 0.30006828313E+01 0.24584965723E+01
 0.22299734733E+01 0.22756435526E+01 0.25758098810E+01 0.31295097332E+01 0.39545369514E+01
 0.50865159612E+01 0.65749354432E+01 0.84736150378E+01 0.10824944763E+02 0.13640382118E+02
 0.16881280254E+02 0.20444135591E+02 0.24154500917E+02 0.27773678118E+02 0.31020219331E+02
 0.33604713532E+02 0.35273012339E+02 0.35849981761E+02 0.35273012339E+02 0.33604713532E+02
 0.31020219331E+02 0.27773678118E+02 0.24154500917E+02 0.20444135591E+02 0.16881280254E+02
 0.13640382118E+02 0.10824944763E+02 0.84736150378E+01 0.65749354432E+01 0.50865159612E+01
 0.39545369514E+01 0.31295097332E+01 0.25758098810E+01 0.22756435526E+01 0.22299734733E+01
 0.24584965723E+01 0.30006828313E+01 0.39213078548E+01 0.53234019450E+01 0.73664719912E+01
 0.10281622830E+02 0.14373409187E+02 0.20002129276E+02 0.27546537839E+02 0.37350898737E+02
 0.49657478142E+02 0.64517124315E+02 0.81670400855E+02 0.10041742311E+03 0.11953901336E+03
 0.13735283513E+03 0.15194703784E+03 0.16154650645E+03 0.17861246550E+03 0.17490908039E+03
 0.16431554540E+03 0.14825726365E+03 0.12873104238E+03 0.10785928905E+03 0.87481948546E+02
 0.68910434755E+02 0.52881333903E+02 0.39653249126E+02 0.29152546815E+02 0.21102339595E+02
 0.15118470275E+02 0.10782401408E+02 0.76988143444E+01 0.55358112618E+01 0.40429692185E+01
 0.30476216578E+01 0.24369894369E+01 0.21376995156E+01 0.21016180828E+01 0.22997172135E+01
 0.27202437118E+01 0.33674410524E+01 0.42594495099E+01 0.54245300705E+01 0.68940353968E+01
 0.86914112498E+01 0.10818641680E+02 0.13242730126E+02 0.15885056566E+02 0.18617020540E+02
 0.21265389343E+02 0.23628600996E+02 0.25501980111E+02 0.26707678999E+02 0.27124026384E+02
 0.26707678999E+02 0.25501980111E+02 0.23628600996E+02 0.21265389343E+02 0.18617020540E+02
 0.15885056566E+02 0.13242730126E+02 0.10818641680E+02 0.86914112498E+01 0.68940353968E+01
 0.54245300705E+01 0.42594495099E+01 0.33674410524E+01 0.27202437118E+01 0.22997172135E+01
 0.21016180828E+01 0.21376995156E+01 0.24369894369E+01 0.30476216578E+01 0.40429692185E+01
 0.55358112618E+01 0.76988143444E+01 0.10782401408E+02 0.15118470275E+02 0.21102339595E+02
 0.29152546815E+02 0.39653249126E+02 0.52881333903E+02 0.68910434755E+02 0.87481948546E+02
 0.10785928905E+03 0.12873104238E+03 0.14825726365E+03 0.16431554540E+03 0.17490908039E+03
 0.18968704469E+03 0.18567264245E+03 0.17421259999E+03 0.15690347526E+03 0.13595082021E+03
 0.11365772228E+03 0.91983006920E+02 0.72296584608E+02 0.55352503859E+02 0.41404448673E+02
 0.30361617648E+02 0.21921519469E+02 0.15668588029E+02 0.11151259625E+02 0.79446024514E+01
 0.56940516378E+01 0.41339793629E+01 0.30819639080E+01 0.24181465451E+01 0.20627136311E+01
 0.19608640495E+01 0.20765643341E+01 0.23905944733E+01 0.28985194864E+01 0.36073428386E+01
 0.45310778882E+01 0.56849539441E+01 0.70778926837E+01 0.87037930860E+01 0.10532828682E+02
 0.12504371602E+02 0.14523979130E+02 0.16467140272E+02 0.18190810521E+02 0.19551108456E+02
 0.20423949776E+02 0.20724895947E+02 0.20423949776E+02 0.19551108456E+02 0.18190810521E+02
 0.16467140272E+02 0.14523979130E+02 0.12504371602E+02 0.10532828682E+02 0.87037930860E+01
 0.70778926837E+01 0.56849539441E+01 0.45310778882E+01 0.36073428386E+01 0.28985194864E+01
 0.23905944733E+01 0.20765643341E+01 0.19608640495E+01 0.20627136311E+01 0.24181465451E+01
 0.30819639080E+01 0.41339793629E+01 0.56940516378E+01 0.79446024514E+01 0.11151259625E+02
 0.15668588029E+02 0.21921519469E+02 0.30361617648E+02 0.41404448673E+02 0.55352503859E+02
 0.72296584608E+02 0.91983006920E+02 0.11365772228E+03 0.13595082021E+03 0.15690347526E+03
 0.17421259999E+03 0.18567264245E+03 0.19782060861E+03 0.19355707846E+03 0.18141023394E+03
 0.16312912048E+03 0.14109659414E+03 0.11775664135E+03 0.95147872965E+02 0.74669423216E+02
 0.57077760582E+02 0.42619430840E+02 0.31192397629E+02 0.22477918675E+02 0.16038667997E+02
 0.11398566059E+02 0.81100723562E+01 0.58015025110E+01 0.41962398023E+01 0.31052052397E+01
 0.24038154344E+01 0.20078376894E+01 0.18577681634E+01 0.19127045342E+01 0.21486619351E+01
 0.25562855895E+01 0.31364630342E+01 0.38948532656E+01 0.48363694402E+01 0.59598395545E+01
 0.72527747189E+01 0.86863406221E+01 0.10211166715E+02 0.11755538717E+02 0.13227939268E+02
 0.14524894430E+02 0.15543221943E+02 0.16194443496E+02 0.16418600697E+02 0.16194443496E+02
 0.15543221943E+02 0.14524894430E+02 0.13227939268E+02 0.11755538717E+02 0.10211166715E+02
 0.86863406221E+01 0.72527747189E+01 0.59598395545E+01 0.48363694402E+01 0.38948532656E+01
 0.31364630342E+01 0.25562855895E+01 0.21486619351E+01 0.19127045342E+01 0.18577681634E+01
 0.20078376894E+01 0.24038154344E+01 0.31052052397E+01 0.41962398023E+01 0.58015025110E+01
 0.81100723562E+01 0.11398566059E+02 0.16038667997E+02 0.22477918675E+02 0.31192397629E+02
 0.42619430840E+02 0.57077760582E+02 0.74669423216E+02 0.95147872965E+02 0.11775664135E+03
 0.14109659414E+03 0.16312912048E+03 0.18141023394E+03 0.19355707846E+03 0.20279277567E+03
 0.19836616211E+03 0.18577327970E+03 0.16687051636E+03 0.14416173856E+03 0.12018129075E+03
 0.97012405455E+02 0.76064609456E+02 0.58090183315E+02 0.43329402180E+02 0.31674188810E+02
 0.22797406696E+02 0.16249312888E+02 0.11538841385E+02 0.82042448502E+01 0.58631343495E+01
 0.42322358604E+01 0.31186099138E+01 0.23949804506E+01 0.19745473155E+01 0.17950180210E+01
 0.18126197457E+01 0.20007453222E+01 0.23476794979E+01 0.28515538681E+01 0.35139726328E+01
 0.43343278120E+01 0.53055782743E+01 0.64110903409E+01 0.76219174201E+01 0.88945174634E+01
 0.10169837206E+02 0.11375181296E+02 0.12429788683E+02 0.13253796846E+02 0.13779059446E+02
 0.13959569453E+02 0.13779059446E+02 0.13253796846E+02 0.12429788683E+02 0.11375181296E+02
 0.10169837206E+02 0.88945174634E+01 0.76219174201E+01 0.64110903409E+01 0.53055782743E+01
 0.43343278120E+01 0.35139726328E+01 0.28515538681E+01 0.23476794979E+01 0.20007453222E+01
 0.18126197457E+01 0.17950180210E+01 0.19745473155E+01 0.23949804506E+01 0.31186099138E+01
 0.42322358604E+01 0.58631343495E+01 0.82042448502E+01 0.11538841385E+02 0.16249312888E+02
 0.22797406696E+02 0.31674188810E+02 0.43329402180E+02 0.58090183315E+02 0.76064609456E+02
 0.97012405455E+02 0.12018129075E+03 0.14416173856E+03 0.16687051636E+03 0.18577327970E+03
 0.19836616211E+03 0.20446579844E+03 0.19998222129E+03 0.18723419208E+03 0.16811696978E+03
 0.14517759620E+03 0.12098163468E+03 0.97626505016E+02 0.76523750089E+02 0.58423115993E+02
 0.43562390051E+02 0.31831634601E+02 0.22901209750E+02 0.16317387280E+02 0.11584072124E+02
 0.82346679508E+01 0.58831387733E+01 0.42439795598E+01 0.31229867981E+01 0.23920104696E+01
 0.19634093637E+01 0.17739682844E+01 0.17789656114E+01 0.19509592082E+01 0.22775529369E+01
 0.27561320168E+01 0.33871362961E+01 0.41682522125E+01 0.50905229608E+01 0.61358741916E+01
 0.72751826417E+01 0.84666637402E+01 0.96552871467E+01 0.10774438237E+02 0.11750735900E+02
 0.12511904208E+02 0.12996412788E+02 0.13162797002E+02 0.12996412788E+02 0.12511904208E+02
 0.11750735900E+02 0.10774438237E+02 0.96552871467E+01 0.84666637402E+01 0.72751826417E+01
 0.61358741916E+01 0.50905229608E+01 0.41682522125E+01 0.33871362961E+01 0.27561320168E+01
 0.22775529369E+01 0.19509592082E+01 0.17789656114E+01 0.17739682844E+01 0.19634093637E+01
 0.23920104696E+01 0.31229867981E+01 0.42439795598E+01 0.58831387733E+01 0.82346679508E+01
 0.11584072124E+02 0.16317387280E+02 0.22901209750E+02 0.31831634601E+02 0.43562390051E+02
 0.58423115993E+02 0.76523750089E+02 0.97626505016E+02 0.12098163468E+03 0.14517759620E+03
 0.16811696978E+03 0.18723419208E+03 0.19998222129E+03 0.20279277567E+03 0.19836616211E+03
 0.18577327970E+03 0.16687051636E+03 0.14416173856E+03 0.12018129075E+03 0.97012405455E+02
 0.76064609456E+02 0.58090183315E+02 0.43329402180E+02 0.31674188810E+02 0.22797406696E+02
 0.16249312888E+02 0.11538841385E+02 0.82042448502E+01 0.58631343495E+01 0.42322358604E+01
 0.31186099138E+01 0.23949804506E+01 0.19745473155E+01 0.17950180210E+01 0.18126197457E+01
 0.20007453222E+01 0.23476794979E+01 0.28515538681E+01 0.35139726328E+01 0.43343278120E+01
 0.53055782743E+01 0.64110903409E+01 0.76219174201E+01 0.88945174634E+01 0.10169837206E+02
 0.11375181296E+02 0.12429788683E+02 0.13253796846E+02 0.13779059446E+02 0.13959569453E+02
 0.13779059446E+02 0.13253796846E+02 0.12429788683E+02 0.11375181296E+02 0.10169837206E+02
 0.88945174634E+01 0.76219174201E+01 0.64110903409E+01 0.53055782743E+01 0.43343278120E+01
 0.35139726328E+01 0.28515538681E+01 0.23476794979E+01 0.20007453222E+01 0.18126197457E+01
 0.17950180210E+01 0.19745473155E+01 0.23949804506E+01 0.31186099138E+01 0.42322358604E+01
 0.58631343495E+01 0.82042448502E+01 0.11538841385E+02 0.16249312888E+02 0.22797406696E+02
 0.31674188810E+02 0.43329402180E+02 0.58090183315E+02 0.76064609456E+02 0.97012405455E+02
 0.12018129075E+03 0.14416173856E+03 0.16687051636E+03 0.18577327970E+03 0.19836616211E+03
 0.19782060861E+03 0.19355707846E+03 0.18141023394E+03 0.16312912048E+03 0.14109659414E+03
 0.11775664135E+03 0.95147872965E+02 0.74669423216E+02 0.57077760582E+02 0.42619430840E+02
 0.31192397629E+02 0.22477918675E+02 0.16038667997E+02 0.11398566059E+02 0.81100723562E+01
 0.58015025110E+01 0.41962398023E+01 0.31052052397E+01 0.24038154344E+01 0.20078376894E+01
 0.18577681634E+01 0.19127045342E+01 0.21486619351E+01 0.25562855895E+01 0.31364630342E+01
 0.38948532656E+01 0.48363694402E+01 0.59598395545E+01 0.72527747189E+01 0.86863406221E+01
 0.10211166715E+02 0.11755538717E+02 0.13227939268E+02 0.14524894430E+02 0.15543221943E+02
 0.16194443496E+02 0.16418600697E+02 0.16194443496E+02 0.15543221943E+02 0.14524894430E+02
 0.13227939268E+02 0.11755538717E+02 0.10211166715E+02 0.86863406221E+01 0.72527747189E+01
 0.59598395545E+01 0.48363694402E+01 0.38948532656E+01 0.31364630342E+01 0.25562855895E+01
 0.21486619351E+01 0.19127045342E+01 0.18577681634E+01 0.20078376894E+01 0.24038154344E+01
 0.31052052397E+01 0.41962398023E+01 0.58015025110E+01 0.81100723562E+01 0.11398566059E+02
 0.16038667997E+02 0.22477918675E+02 0.31192397629E+02 0.42619430840E+02 0.57077760582E+02
 0.74669423216E+02 0.95147872965E+02 0.11775664135E+03 0.14109659414E+03 0.16312912048E+03
 0.18141023394E+03 0.19355707846E+03 0.18968704469E+03 0.18567264245E+03 0.17421259999E+03
 0.15690347526E+03 0.13595082021E+03 0.11365772228E+03 0.91983006920E+02 0.72296584608E+02
 0.55352503859E+02 0.41404448673E+02 0.30361617648E+02 0.21921519469E+02 0.15668588029E+02
 0.11151259625E+02 0.79446024514E+01 0.56940516378E+01 0.41339793629E+01 0.30819639080E+01
 0.24181465451E+01 0.20627136311E+01 0.19608640495E+01 0.20765643341E+01 0.23905944733E+01
 0.28985194864E+01 0.36073428386E+01 0.45310778882E+01 0.56849539441E+01 0.70778926837E+01
 0.87037930860E+01 0.10532828682E+02 0.12504371602E+02 0.14523979130E+02 0.16467140272E+02
 0.18190810521E+02 0.19551108456E+02 0.20423949776E+02 0.20724895947E+02 0.20423949776E+02
 0.19551108456E+02 0.18190810521E+02 0.16467140272E+02 0.14523979130E+02 0.12504371602E+02
 0.10532828682E+02 0.87037930860E+01 0.70778926837E+01 0.56849539441E+01 0.45310778882E+01
 0.36073428386E+01 0.28985194864E+01 0.23905944733E+01 0.20765643341E+01 0.19608640495E+01
 0.20627136311E+01 0.24181465451E+01 0.30819639080E+01 0.41339793629E+01 0.56940516378E+01
 0.79446024514E+01 0.11151259625E+02 0.15668588029E+02 0.21921519469E+02 0.30361617648E+02
 0.41404448673E+02 0.55352503859E+02 0.72296584608E+02 0.91983006920E+02 0.11365772228E+03
 0.13595082021E+03 0.15690347526E+03 0.17421259999E+03 0.18567264245E+03 0.17861246550E+03
 0.17490908039E+03 0.16431554540E+03 0.14825726365E+03 0.12873104238E+03 0.10785928905E+03
 0.87481948546E+02 0.68910434755E+02 0.52881333903E+02 0.39653249126E+02 0.29152546815E+02
 0.21102339595E+02 0.15118470275E+02 0.10782401408E+02 0.76988143444E+01 0.55358112618E+01
 0.40429692185E+01 0.30476216578E+01 0.24369894369E+01 0.21376995156E+01 0.21016180828E+01
 0.22997172135E+01 0.27202437118E+01 0.33674410524E+01 0.42594495099E+01 0.54245300705E+01
 0.68940353968E+01 0.86914112498E+01 0.10818641680E+02 0.13242730126E+02 0.15885056566E+02
 0.18617020540E+02 0.21265389343E+02 0.23628600996E+02 0.25501980111E+02 0.26707678999E+02