   8   8   0   0
  0.3927744E+02  0.8228600E-09  0.4227310E-09  0.9033230E-09  0.5000000E-15
  1.000000000000000E-004
  CAR 
 Br                                      
     11.33344150    -18.19399801  301     -0.86508195      1.00000000
    -18.194  0.0000E+00  0.0000E+00
    -18.096  0.0000E+00  0.0000E+00
    -17.997  0.0000E+00  0.0000E+00
    -17.899  0.0000E+00  0.0000E+00
    -17.800  0.0000E+00  0.0000E+00
    -17.702  0.0000E+00  0.0000E+00
    -17.603  0.0000E+00  0.0000E+00
    -17.505  0.0000E+00  0.0000E+00
    -17.407  0.0000E+00  0.0000E+00
    -17.308  0.0000E+00  0.0000E+00
    -17.210  0.0000E+00  0.0000E+00
    -17.111  0.8987E-14  0.8846E-15
    -17.013  0.3957E-06  0.3894E-07
    -16.914  0.1641E-01  0.1615E-02
    -16.816  0.2156E+01  0.2138E+00
    -16.718  0.9769E+01  0.1175E+01
    -16.619  0.1365E+02  0.2519E+01
    -16.521  0.2132E+02  0.4618E+01
    -16.422  0.2610E+02  0.7187E+01
    -16.324  0.8151E+01  0.7989E+01
    -16.226  0.1120E+00  0.8000E+01
    -16.127  0.5298E-05  0.8000E+01
    -16.029  0.2443E-12  0.8000E+01
    -15.930  0.0000E+00  0.8000E+01
    -15.832  0.0000E+00  0.8000E+01
    -15.733  0.0000E+00  0.8000E+01
    -15.635  0.0000E+00  0.8000E+01
    -15.537  0.0000E+00  0.8000E+01
    -15.438  0.0000E+00  0.8000E+01
    -15.340  0.0000E+00  0.8000E+01
    -15.241  0.0000E+00  0.8000E+01
    -15.143  0.0000E+00  0.8000E+01
    -15.044  0.0000E+00  0.8000E+01
    -14.946  0.0000E+00  0.8000E+01
    -14.848  0.2154E-15  0.8000E+01
    -14.749  0.2658E-07  0.8000E+01
    -14.651  0.2963E-02  0.8000E+01
    -14.552  0.8233E+00  0.8081E+01
    -14.454  0.5248E+01  0.8598E+01
    -14.355  0.7523E+01  0.9338E+01
    -14.257  0.9483E+01  0.1027E+02
    -14.159  0.1411E+02  0.1166E+02
    -14.060  0.1494E+02  0.1313E+02
    -13.962  0.9933E+01  0.1411E+02
    -13.863  0.7887E+01  0.1488E+02
    -13.765  0.6675E+01  0.1554E+02
    -13.666  0.4314E+01  0.1597E+02
    -13.568  0.3427E+00  0.1600E+02
    -13.470  0.1963E-03  0.1600E+02
    -13.371  0.1473E-09  0.1600E+02
    -13.273  0.0000E+00  0.1600E+02
    -13.174  0.0000E+00  0.1600E+02
    -13.076  0.0000E+00  0.1600E+02
    -12.977  0.0000E+00  0.1600E+02
    -12.879  0.0000E+00  0.1600E+02
    -12.781  0.0000E+00  0.1600E+02
    -12.682  0.0000E+00  0.1600E+02
    -12.584  0.0000E+00  0.1600E+02
    -12.485  0.0000E+00  0.1600E+02
    -12.387  0.0000E+00  0.1600E+02
    -12.289  0.0000E+00  0.1600E+02
    -12.190  0.0000E+00  0.1600E+02
    -12.092  0.0000E+00  0.1600E+02
    -11.993  0.0000E+00  0.1600E+02
    -11.895  0.0000E+00  0.1600E+02
    -11.796  0.0000E+00  0.1600E+02
    -11.698  0.0000E+00  0.1600E+02
    -11.600  0.0000E+00  0.1600E+02
    -11.501  0.0000E+00  0.1600E+02
    -11.403  0.0000E+00  0.1600E+02
    -11.304  0.0000E+00  0.1600E+02
    -11.206  0.0000E+00  0.1600E+02
    -11.107  0.0000E+00  0.1600E+02
    -11.009  0.0000E+00  0.1600E+02
    -10.911  0.0000E+00  0.1600E+02
    -10.812  0.0000E+00  0.1600E+02
    -10.714  0.0000E+00  0.1600E+02
    -10.615  0.0000E+00  0.1600E+02
    -10.517  0.0000E+00  0.1600E+02
    -10.418  0.0000E+00  0.1600E+02
    -10.320  0.0000E+00  0.1600E+02
    -10.222  0.0000E+00  0.1600E+02
    -10.123  0.0000E+00  0.1600E+02
    -10.025  0.0000E+00  0.1600E+02
     -9.926  0.0000E+00  0.1600E+02
     -9.828  0.0000E+00  0.1600E+02
     -9.729  0.0000E+00  0.1600E+02
     -9.631  0.0000E+00  0.1600E+02
     -9.533  0.0000E+00  0.1600E+02
     -9.434  0.0000E+00  0.1600E+02
     -9.336  0.0000E+00  0.1600E+02
     -9.237  0.0000E+00  0.1600E+02
     -9.139  0.0000E+00  0.1600E+02
     -9.040  0.0000E+00  0.1600E+02
     -8.942  0.0000E+00  0.1600E+02
     -8.844  0.0000E+00  0.1600E+02
     -8.745  0.0000E+00  0.1600E+02
     -8.647  0.0000E+00  0.1600E+02
     -8.548  0.0000E+00  0.1600E+02
     -8.450  0.0000E+00  0.1600E+02
     -8.352  0.0000E+00  0.1600E+02
     -8.253  0.0000E+00  0.1600E+02
     -8.155  0.0000E+00  0.1600E+02
     -8.056  0.0000E+00  0.1600E+02
     -7.958  0.0000E+00  0.1600E+02
     -7.859  0.0000E+00  0.1600E+02
     -7.761  0.0000E+00  0.1600E+02
     -7.663  0.0000E+00  0.1600E+02
     -7.564  0.0000E+00  0.1600E+02
     -7.466  0.0000E+00  0.1600E+02
     -7.367  0.0000E+00  0.1600E+02
     -7.269  0.0000E+00  0.1600E+02
     -7.170  0.0000E+00  0.1600E+02
     -7.072  0.0000E+00  0.1600E+02
     -6.974  0.0000E+00  0.1600E+02
     -6.875  0.0000E+00  0.1600E+02
     -6.777  0.0000E+00  0.1600E+02
     -6.678  0.0000E+00  0.1600E+02
     -6.580  0.0000E+00  0.1600E+02
     -6.481  0.2546E-16  0.1600E+02
     -6.383  0.6949E-08  0.1600E+02
     -6.285  0.1602E-02  0.1600E+02
     -6.186  0.8168E+00  0.1608E+02
     -6.088  0.7766E+01  0.1684E+02
     -5.989  0.1031E+02  0.1786E+02
     -5.891  0.9597E+01  0.1880E+02
     -5.792  0.1016E+02  0.1980E+02
     -5.694  0.1083E+02  0.2087E+02
     -5.596  0.5528E+01  0.2141E+02
     -5.497  0.6210E+01  0.2203E+02
     -5.399  0.3131E+01  0.2233E+02
     -5.300  0.4128E+01  0.2274E+02
     -5.202  0.3252E+01  0.2306E+02
     -5.103  0.1981E+01  0.2326E+02
     -5.005  0.3030E+01  0.2355E+02
     -4.907  0.1816E+01  0.2373E+02
     -4.808  0.2028E+01  0.2393E+02
     -4.710  0.6757E+00  0.2400E+02
     -4.611  0.1565E-01  0.2400E+02
     -4.513  0.4720E-05  0.2400E+02
     -4.415  0.2762E-01  0.2400E+02
     -4.316  0.1564E+01  0.2416E+02
     -4.218  0.4696E+01  0.2462E+02
     -4.119  0.6474E+01  0.2526E+02
     -4.021  0.7269E+01  0.2597E+02
     -3.922  0.8419E+01  0.2680E+02
     -3.824  0.1152E+02  0.2793E+02
     -3.726  0.1213E+02  0.2913E+02
     -3.627  0.1281E+02  0.3039E+02
     -3.529  0.1240E+02  0.3161E+02
     -3.430  0.1639E+02  0.3322E+02
     -3.332  0.2291E+02  0.3548E+02
     -3.233  0.2067E+02  0.3751E+02
     -3.135  0.1104E+02  0.3860E+02
     -3.037  0.7279E+01  0.3932E+02
     -2.938  0.5336E+01  0.3984E+02
     -2.840  0.1547E+01  0.3999E+02
     -2.741  0.7245E-01  0.4000E+02
     -2.643  0.2584E-04  0.4000E+02
     -2.544  0.5744E-02  0.4000E+02
     -2.446  0.2849E+00  0.4003E+02
     -2.348  0.2533E+01  0.4028E+02
     -2.249  0.1185E+02  0.4144E+02
     -2.151  0.1391E+02  0.4281E+02
     -2.052  0.1087E+02  0.4388E+02
     -1.954  0.8676E+01  0.4474E+02
     -1.855  0.1105E+02  0.4582E+02
     -1.757  0.1444E+02  0.4725E+02
     -1.659  0.1961E+02  0.4917E+02
     -1.560  0.2151E+02  0.5129E+02
     -1.462  0.2245E+02  0.5350E+02
     -1.363  0.1542E+02  0.5502E+02
     -1.265  0.6442E+01  0.5565E+02
     -1.167  0.2993E+01  0.5595E+02
     -1.068  0.5243E+00  0.5600E+02
     -0.970  0.3573E-02  0.5600E+02
     -0.871  0.7735E-07  0.5600E+02
     -0.773  0.1486E-14  0.5600E+02
     -0.674  0.0000E+00  0.5600E+02
     -0.576  0.0000E+00  0.5600E+02
     -0.478  0.0000E+00  0.5600E+02
     -0.379  0.0000E+00  0.5600E+02
     -0.281  0.0000E+00  0.5600E+02
     -0.182  0.1543E-11  0.5600E+02
     -0.084  0.6654E-05  0.5600E+02
      0.015  0.3935E-01  0.5600E+02
      0.113  0.1478E+01  0.5615E+02
      0.211  0.2779E+01  0.5642E+02
      0.310  0.3522E+01  0.5677E+02
      0.408  0.2839E+01  0.5705E+02
      0.507  0.4038E+01  0.5745E+02
      0.605  0.5695E+01  0.5801E+02
      0.704  0.1052E+02  0.5904E+02
      0.802  0.9262E+01  0.5995E+02
      0.900  0.6737E+01  0.6062E+02
      0.999  0.7744E+01  0.6138E+02
      1.097  0.9173E+01  0.6228E+02
      1.196  0.1287E+02  0.6355E+02
      1.294  0.4507E+01  0.6399E+02
      1.393  0.7833E-01  0.6400E+02
      1.491  0.1720E-04  0.6400E+02
      1.589  0.7048E-11  0.6400E+02
      1.688  0.0000E+00  0.6400E+02
      1.786  0.0000E+00  0.6400E+02
      1.885  0.0000E+00  0.6400E+02
      1.983  0.0000E+00  0.6400E+02
      2.082  0.0000E+00  0.6400E+02
      2.180  0.0000E+00  0.6400E+02
      2.278  0.0000E+00  0.6400E+02
      2.377  0.0000E+00  0.6400E+02
      2.475  0.0000E+00  0.6400E+02
      2.574  0.0000E+00  0.6400E+02
      2.672  0.0000E+00  0.6400E+02
      2.770  0.0000E+00  0.6400E+02
      2.869  0.0000E+00  0.6400E+02
      2.967  0.0000E+00  0.6400E+02
      3.066  0.0000E+00  0.6400E+02
      3.164  0.0000E+00  0.6400E+02
      3.263  0.0000E+00  0.6400E+02
      3.361  0.0000E+00  0.6400E+02
      3.459  0.0000E+00  0.6400E+02
      3.558  0.0000E+00  0.6400E+02
      3.656  0.0000E+00  0.6400E+02
      3.755  0.0000E+00  0.6400E+02
      3.853  0.0000E+00  0.6400E+02
      3.952  0.3486E-15  0.6400E+02
      4.050  0.1436E-07  0.6400E+02
      4.148  0.4416E-03  0.6400E+02
      4.247  0.4025E-01  0.6400E+02
      4.345  0.2042E+00  0.6402E+02
      4.444  0.3883E+00  0.6406E+02
      4.542  0.4341E+00  0.6411E+02
      4.641  0.6205E+00  0.6417E+02
      4.739  0.8411E+00  0.6425E+02
      4.837  0.8120E+00  0.6433E+02
      4.936  0.8906E+00  0.6442E+02
      5.034  0.1352E+01  0.6455E+02
      5.133  0.1496E+01  0.6470E+02
      5.231  0.1812E+01  0.6488E+02
      5.330  0.1922E+01  0.6506E+02
      5.428  0.1646E+01  0.6523E+02
      5.526  0.2265E+01  0.6545E+02
      5.625  0.2485E+01  0.6569E+02
      5.723  0.2549E+01  0.6594E+02
      5.822  0.3507E+01  0.6629E+02
      5.920  0.4732E+01  0.6676E+02
      6.019  0.6040E+01  0.6735E+02
      6.117  0.7393E+01  0.6808E+02
      6.215  0.4720E+01  0.6854E+02
      6.314  0.5203E+01  0.6905E+02
      6.412  0.5359E+01  0.6958E+02
      6.511  0.6027E+01  0.7018E+02
      6.609  0.5302E+01  0.7070E+02
      6.707  0.6094E+01  0.7130E+02
      6.806  0.6403E+01  0.7193E+02
      6.904  0.9693E+01  0.7288E+02
      7.003  0.9858E+01  0.7385E+02
      7.101  0.8654E+01  0.7470E+02
      7.200  0.9911E+01  0.7568E+02
      7.298  0.9472E+01  0.7661E+02
      7.396  0.8143E+01  0.7741E+02
      7.495  0.8004E+01  0.7820E+02
      7.593  0.7773E+01  0.7897E+02
      7.692  0.8777E+01  0.7983E+02
      7.790  0.1100E+02  0.8091E+02
      7.889  0.1244E+02  0.8214E+02
      7.987  0.1053E+02  0.8317E+02
      8.085  0.9053E+01  0.8406E+02
      8.184  0.7621E+01  0.8481E+02
      8.282  0.1045E+02  0.8584E+02
      8.381  0.1074E+02  0.8690E+02
      8.479  0.9239E+01  0.8781E+02
      8.578  0.8352E+01  0.8863E+02
      8.676  0.7036E+01  0.8932E+02
      8.774  0.7575E+01  0.9007E+02
      8.873  0.7976E+01  0.9085E+02
      8.971  0.7937E+01  0.9163E+02
      9.070  0.8079E+01  0.9243E+02
      9.168  0.5761E+01  0.9300E+02
      9.267  0.6528E+01  0.9364E+02
      9.365  0.8227E+01  0.9445E+02
      9.463  0.5811E+01  0.9502E+02
      9.562  0.4786E+01  0.9549E+02
      9.660  0.3251E+01  0.9581E+02
      9.759  0.1337E+01  0.9594E+02
      9.857  0.4264E+00  0.9598E+02
      9.955  0.1129E+00  0.9600E+02
     10.054  0.3880E-01  0.9600E+02
     10.152  0.1798E-02  0.9600E+02
     10.251  0.1230E-06  0.9600E+02
     10.349  0.5050E-14  0.9600E+02
     10.448  0.0000E+00  0.9600E+02
     10.546  0.0000E+00  0.9600E+02
     10.644  0.0000E+00  0.9600E+02
     10.743  0.0000E+00  0.9600E+02
     10.841  0.0000E+00  0.9600E+02
     10.940  0.0000E+00  0.9600E+02
     11.038  0.0000E+00  0.9600E+02
     11.137  0.0000E+00  0.9600E+02
     11.235  0.0000E+00  0.9600E+02
     11.333  0.0000E+00  0.9600E+02
