 vasp.6.4.3 19Mar24 (build Jun 26 2024 13:02:28) complex                        
  
 executed on             LinuxIFC date 2025.08.08  18:27:40
 running   48 mpi-ranks, on    4 nodes
 distrk:  each k-point on   48 cores,    1 groups
 distr:  one band on NCORE=   1 cores,   48 groups


--------------------------------------------------------------------------------------------------------


 INCAR:
   ENCUT = 281.1705
   IBRION = -1
   ISMEAR = 0
   ISYM = 2
   LCHARG = True
   LWAVE = True
   SIGMA = 0.05
   SYSTEM = Br

 POTCAR:  PAW_PBE Br 06Sep2000                    
 -----------------------------------------------------------------------------
|                                                                             |
|           W    W    AA    RRRRR   N    N  II  N    N   GGGG   !!!           |
|           W    W   A  A   R    R  NN   N  II  NN   N  G    G  !!!           |
|           W    W  A    A  R    R  N N  N  II  N N  N  G       !!!           |
|           W WW W  AAAAAA  RRRRR   N  N N  II  N  N N  G  GGG   !            |
|           WW  WW  A    A  R   R   N   NN  II  N   NN  G    G                |
|           W    W  A    A  R    R  N    N  II  N    N   GGGG   !!!           |
|                                                                             |
|     For optimal performance we recommend to set                             |
|       NCORE = 2 up to number-of-cores-per-socket                            |
|     NCORE specifies how many cores store one orbital (NPAR=cpu/NCORE).      |
|     This setting can greatly improve the performance of VASP for DFT.       |
|     The default, NCORE=1 might be grossly inefficient on modern             |
|     multi-core architectures or massively parallel machines. Do your        |
|     own testing! More info at https://www.vasp.at/wiki/index.php/NCORE      |
|     Unfortunately you need to use the default for GW and RPA                |
|     calculations (for HF NCORE is supported but not extensively tested      |
|     yet).                                                                   |
|                                                                             |
 -----------------------------------------------------------------------------

 POTCAR:  PAW_PBE Br 06Sep2000                    
   VRHFIN =Br: s2p5                                                                                 
   LEXCH  = PE                                                                                      
   EATOM  =   368.4488 eV,   27.0802 Ry                                                             
                                                                                                    
   TITEL  = PAW_PBE Br 06Sep2000                                                                    
   LULTRA =        F    use ultrasoft PP ?                                                          
   IUNSCR =        1    unscreen: 0-lin 1-nonlin 2-no                                               
   RPACOR =    1.900    partial core radius                                                         
   POMASS =   79.904; ZVAL   =    7.000    mass and valenz                                          
   RCORE  =    2.100    outmost cutoff radius                                                       
   RWIGS  =    2.200; RWIGS  =    1.164    wigner-seitz radius (au A)                               
   ENMAX  =  216.285; ENMIN  =  162.214 eV                                                          
   ICORE  =        3    local potential                                                             
   LCOR   =        T    correct aug charges                                                         
   LPAW   =        T    paw PP                                                                      
   EAUG   =  503.852                                                                                
   DEXC   =    0.000                                                                                
   RMAX   =    2.139    core radius for proj-oper                                                   
   RAUG   =    1.300    factor for augmentation sphere                                              
   RDEP   =    2.186    radius for radial grids                                                     
   RDEPT  =    1.890    core radius for aug-charge                                                  
                                                                                                    
   Atomic configuration                                                                             
   10 entries                                                                                       
     n  l   j            E        occ.                                                              
     1  0  0.50    -13316.2796   2.0000                                                             
     2  0  0.50     -1732.8239   2.0000                                                             
     2  1  1.50     -1528.2193   6.0000                                                             
     3  0  0.50      -238.0460   2.0000                                                             
     3  1  1.50      -173.4609   6.0000                                                             
     3  2  2.50       -66.7132  10.0000                                                             
     4  0  0.50       -20.1334   2.0000                                                             
     4  1  0.50        -7.8591   5.0000                                                             
     4  2  2.50        -8.1635   0.0000                                                             
     4  3  2.50        -8.1635   0.0000                                                             
   Description                                                                                      
     l       E           TYP  RCUT    TYP  RCUT                                                     
     0    -20.1333652     23  2.100                                                                 
     0    -21.4939478     23  2.100                                                                 
     1     -7.8591052     23  2.100                                                                 
     1     -3.1608434     23  2.100                                                                 
     2     -8.1634956     23  2.100                                                                 
     3     -1.3605826      7  2.100                                                                 
  local pseudopotential read in
  partial core-charges read in
  partial kinetic energy density read in
  atomic valenz-charges read in
  non local Contribution for L=           0  read in
    real space projection operators read in
  non local Contribution for L=           0  read in
    real space projection operators read in
  non local Contribution for L=           1  read in
    real space projection operators read in
  non local Contribution for L=           1  read in
    real space projection operators read in
  non local Contribution for L=           2  read in
    real space projection operators read in
    PAW grid and wavefunctions read in
 
   number of l-projection  operators is LMAX  =           5
   number of lm-projection operators is LMMAX =          13
 
PAW_PBE Br 06Sep2000                    :
 energy of atom  1       EATOM= -368.4488
 kinetic energy error for atom=    0.0075 (will be added to EATOM!!)
 
 
 POSCAR: Br8
  positions in direct lattice
  No initial velocities read in


 exchange-correlation table for PE
   RHO(1)=    0.500       N(1)  =     2000
   RHO(2)=  100.500       N(2)  =     4000
 


--------------------------------------------------------------------------------------------------------


 ion  position               nearest neighbor table
   1  0.000  0.376  0.883-   4 2.36
   2  0.000  0.124  0.383-   3 2.36
   3  0.000  0.876  0.617-   2 2.36
   4  0.000  0.624  0.117-   1 2.36
   5  0.500  0.876  0.883-   8 2.36
   6  0.500  0.624  0.383-   7 2.36
   7  0.500  0.376  0.617-   6 2.36
   8  0.500  0.124  0.117-   5 2.36
 
  LATTYP: Found a simple orthorhombic cell.
 ALAT       =     4.2273100000
 B/A-ratio  =     1.9465333747
 C/A-ratio  =     2.1368742770
  
  Lattice vectors:
  
 A1 = (   0.0000000000,  -4.2273100000,   0.0000000000)
 A2 = (   8.2286000000,   0.0000000000,   0.0000000000)
 A3 = (   0.0000000000,   0.0000000000,   9.0332300000)


Analysis of symmetry for initial positions (statically):
=====================================================================
 Subroutine PRICEL returns following result:
 
  LATTYP: Found a base centered orthorhombic cell.
 ALAT       =     4.2273100000
 B/A-ratio  =     1.9465333747
 C/A-ratio  =     2.1368742770
  
  Lattice vectors:
  
 A1 = (  -4.1143000000,  -2.1136550000,   0.0000000000)
 A2 = (   4.1143000000,  -2.1136550000,   0.0000000000)
 A3 = (   0.0000000000,   0.0000000000,   9.0332300000)
 
   2 primitive cells build up your supercell.
 

 Routine SETGRP: Setting up the symmetry group for a 
 simple orthorhombic supercell.


 Subroutine GETGRP returns: Found  8 space group operations
 (whereof  4 operations were pure point group operations)
 out of a pool of  8 trial point group operations.


The static configuration has the point symmetry C_2h.
 The point group associated with its full space group is D_2h.


Analysis of symmetry for dynamics (positions and initial velocities):
=====================================================================
 Subroutine PRICEL returns following result:
 
  LATTYP: Found a base centered orthorhombic cell.
 ALAT       =     4.2273100000
 B/A-ratio  =     1.9465333747
 C/A-ratio  =     2.1368742770
  
  Lattice vectors:
  
 A1 = (  -4.1143000000,  -2.1136550000,   0.0000000000)
 A2 = (   4.1143000000,  -2.1136550000,   0.0000000000)
 A3 = (   0.0000000000,   0.0000000000,   9.0332300000)
 
   2 primitive cells build up your supercell.
 

 Routine SETGRP: Setting up the symmetry group for a 
 simple orthorhombic supercell.


 Subroutine GETGRP returns: Found  8 space group operations
 (whereof  4 operations were pure point group operations)
 out of a pool of  8 trial point group operations.


The dynamic configuration has the point symmetry C_2h.
 The point group associated with its full space group is D_2h.


 Subroutine INISYM returns: Found  8 space group operations
 (whereof  4 operations are pure point group operations),
 and found     2 'primitive' translations


----------------------------------------------------------------------------------------

                                     Primitive cell                                     

  volume of cell :     157.1097

  direct lattice vectors                    reciprocal lattice vectors
    -4.114300000 -2.113655000  0.000000000    -0.121527356 -0.236557054  0.000000000
     4.114300000 -2.113655000  0.000000000     0.121527356 -0.236557054  0.000000000
     0.000000000  0.000000000  9.033230000     0.000000000  0.000000000  0.110702373

  length of vectors
     4.625473159  4.625473159  9.033230000     0.265947623  0.265947623  0.110702373

  position of ions in fractional coordinates (direct lattice)
     0.624260000  0.624260000  0.882840000
     0.875740000  0.875740000  0.382840000
     0.124260000  0.124260000  0.617160000
     0.375740000  0.375740000  0.117160000

  ion indices of the primitive-cell ions
   primitive index   ion index
                 1           1
                 2           2
                 3           3
                 4           4

----------------------------------------------------------------------------------------

 
 
 KPOINTS: Automatic kpoint scheme                 

Automatic generation of k-mesh.
 Grid dimensions read from file:
 generate k-points for:   12   12   12

 Generating k-lattice:

  Cartesian coordinates                     Fractional coordinates (reciprocal lattice)
     0.010127280 -0.000000000  0.000000000     0.083333333 -0.000000000  0.000000000
     0.000000000  0.019713088  0.000000000     0.000000000  0.083333333  0.000000000
    -0.000000000 -0.000000000  0.009225198     0.000000000  0.000000000  0.083333333

  Length of vectors
     0.010127280  0.019713088  0.009225198

  Shift w.r.t. Gamma in fractional coordinates (k-lattice)
     0.000000000  0.000000000  0.000000000

 
 Subroutine IBZKPT returns following result:
 ===========================================
 
 Found    343 irreducible k-points:
 
 Following reciprocal coordinates:
            Coordinates               Weight
  0.000000  0.000000  0.000000      1.000000
  0.083333  0.000000  0.000000      2.000000
  0.166667  0.000000  0.000000      2.000000
  0.250000  0.000000  0.000000      2.000000
  0.333333 -0.000000  0.000000      2.000000
  0.416667  0.000000  0.000000      2.000000
  0.500000  0.000000  0.000000      1.000000
  0.000000  0.083333  0.000000      2.000000
  0.083333  0.083333  0.000000      4.000000
  0.166667  0.083333  0.000000      4.000000
  0.250000  0.083333  0.000000      4.000000
  0.333333  0.083333  0.000000      4.000000
  0.416667  0.083333  0.000000      4.000000
  0.500000  0.083333  0.000000      2.000000
  0.000000  0.166667  0.000000      2.000000
  0.083333  0.166667  0.000000      4.000000
  0.166667  0.166667  0.000000      4.000000
  0.250000  0.166667  0.000000      4.000000
  0.333333  0.166667  0.000000      4.000000
  0.416667  0.166667  0.000000      4.000000
  0.500000  0.166667  0.000000      2.000000
  0.000000  0.250000  0.000000      2.000000
  0.083333  0.250000  0.000000      4.000000
  0.166667  0.250000  0.000000      4.000000
  0.250000  0.250000  0.000000      4.000000
  0.333333  0.250000  0.000000      4.000000
  0.416667  0.250000  0.000000      4.000000
  0.500000  0.250000  0.000000      2.000000
  0.000000  0.333333  0.000000      2.000000
  0.083333  0.333333  0.000000      4.000000
  0.166667  0.333333  0.000000      4.000000
  0.250000  0.333333  0.000000      4.000000
  0.333333  0.333333  0.000000      4.000000
  0.416667  0.333333  0.000000      4.000000
  0.500000  0.333333  0.000000      2.000000
  0.000000  0.416667  0.000000      2.000000
  0.083333  0.416667  0.000000      4.000000
  0.166667  0.416667  0.000000      4.000000
  0.250000  0.416667  0.000000      4.000000
  0.333333  0.416667  0.000000      4.000000
  0.416667  0.416667  0.000000      4.000000
  0.500000  0.416667  0.000000      2.000000
  0.000000  0.500000  0.000000      1.000000
  0.083333  0.500000  0.000000      2.000000
  0.166667  0.500000  0.000000      2.000000
  0.250000  0.500000  0.000000      2.000000
  0.333333  0.500000  0.000000      2.000000
  0.416667  0.500000  0.000000      2.000000
  0.500000  0.500000  0.000000      1.000000
  0.000000  0.000000  0.083333      2.000000
  0.083333  0.000000  0.083333      4.000000
  0.166667  0.000000  0.083333      4.000000
  0.250000 -0.000000  0.083333      4.000000
  0.333333 -0.000000  0.083333      4.000000
  0.416667 -0.000000  0.083333      4.000000
  0.500000  0.000000  0.083333      2.000000
  0.000000  0.083333  0.083333      4.000000
  0.083333  0.083333  0.083333      8.000000
  0.166667  0.083333  0.083333      8.000000
  0.250000  0.083333  0.083333      8.000000
  0.333333  0.083333  0.083333      8.000000
  0.416667  0.083333  0.083333      8.000000
  0.500000  0.083333  0.083333      4.000000
  0.000000  0.166667  0.083333      4.000000
  0.083333  0.166667  0.083333      8.000000
  0.166667  0.166667  0.083333      8.000000
  0.250000  0.166667  0.083333      8.000000
  0.333333  0.166667  0.083333      8.000000
  0.416667  0.166667  0.083333      8.000000
  0.500000  0.166667  0.083333      4.000000
  0.000000  0.250000  0.083333      4.000000
  0.083333  0.250000  0.083333      8.000000
  0.166667  0.250000  0.083333      8.000000
  0.250000  0.250000  0.083333      8.000000
  0.333333  0.250000  0.083333      8.000000
  0.416667  0.250000  0.083333      8.000000
  0.500000  0.250000  0.083333      4.000000
  0.000000  0.333333  0.083333      4.000000
  0.083333  0.333333  0.083333      8.000000
  0.166667  0.333333  0.083333      8.000000
  0.250000  0.333333  0.083333      8.000000
  0.333333  0.333333  0.083333      8.000000
  0.416667  0.333333  0.083333      8.000000
  0.500000  0.333333  0.083333      4.000000
  0.000000  0.416667  0.083333      4.000000
  0.083333  0.416667  0.083333      8.000000
  0.166667  0.416667  0.083333      8.000000
  0.250000  0.416667  0.083333      8.000000
  0.333333  0.416667  0.083333      8.000000
  0.416667  0.416667  0.083333      8.000000
  0.500000  0.416667  0.083333      4.000000
  0.000000  0.500000  0.083333      2.000000
  0.083333  0.500000  0.083333      4.000000
  0.166667  0.500000  0.083333      4.000000
  0.250000  0.500000  0.083333      4.000000
  0.333333  0.500000  0.083333      4.000000
  0.416667  0.500000  0.083333      4.000000
  0.500000  0.500000  0.083333      2.000000
 -0.000000 -0.000000  0.166667      2.000000
  0.083333  0.000000  0.166667      4.000000
  0.166667  0.000000  0.166667      4.000000
  0.250000  0.000000  0.166667      4.000000
  0.333333 -0.000000  0.166667      4.000000
  0.416667  0.000000  0.166667      4.000000
  0.500000  0.000000  0.166667      2.000000
 -0.000000  0.083333  0.166667      4.000000
  0.083333  0.083333  0.166667      8.000000
  0.166667  0.083333  0.166667      8.000000
  0.250000  0.083333  0.166667      8.000000
  0.333333  0.083333  0.166667      8.000000
  0.416667  0.083333  0.166667      8.000000
  0.500000  0.083333  0.166667      4.000000
 -0.000000  0.166667  0.166667      4.000000
  0.083333  0.166667  0.166667      8.000000
  0.166667  0.166667  0.166667      8.000000
  0.250000  0.166667  0.166667      8.000000
  0.333333  0.166667  0.166667      8.000000
  0.416667  0.166667  0.166667      8.000000
  0.500000  0.166667  0.166667      4.000000
 -0.000000  0.250000  0.166667      4.000000
  0.083333  0.250000  0.166667      8.000000
  0.166667  0.250000  0.166667      8.000000
  0.250000  0.250000  0.166667      8.000000
  0.333333  0.250000  0.166667      8.000000
  0.416667  0.250000  0.166667      8.000000
  0.500000  0.250000  0.166667      4.000000
 -0.000000  0.333333  0.166667      4.000000
  0.083333  0.333333  0.166667      8.000000
  0.166667  0.333333  0.166667      8.000000
  0.250000  0.333333  0.166667      8.000000
  0.333333  0.333333  0.166667      8.000000
  0.416667  0.333333  0.166667      8.000000
  0.500000  0.333333  0.166667      4.000000
 -0.000000  0.416667  0.166667      4.000000
  0.083333  0.416667  0.166667      8.000000
  0.166667  0.416667  0.166667      8.000000
  0.250000  0.416667  0.166667      8.000000
  0.333333  0.416667  0.166667      8.000000
  0.416667  0.416667  0.166667      8.000000
  0.500000  0.416667  0.166667      4.000000
 -0.000000  0.500000  0.166667      2.000000
  0.083333  0.500000  0.166667      4.000000
  0.166667  0.500000  0.166667      4.000000
  0.250000  0.500000  0.166667      4.000000
  0.333333  0.500000  0.166667      4.000000
  0.416667  0.500000  0.166667      4.000000
  0.500000  0.500000  0.166667      2.000000
  0.000000  0.000000  0.250000      2.000000
  0.083333 -0.000000  0.250000      4.000000
  0.166667  0.000000  0.250000      4.000000
  0.250000  0.000000  0.250000      4.000000
  0.333333 -0.000000  0.250000      4.000000
  0.416667  0.000000  0.250000      4.000000
  0.500000  0.000000  0.250000      2.000000
  0.000000  0.083333  0.250000      4.000000
  0.083333  0.083333  0.250000      8.000000
  0.166667  0.083333  0.250000      8.000000
  0.250000  0.083333  0.250000      8.000000
  0.333333  0.083333  0.250000      8.000000
  0.416667  0.083333  0.250000      8.000000
  0.500000  0.083333  0.250000      4.000000
  0.000000  0.166667  0.250000      4.000000
  0.083333  0.166667  0.250000      8.000000
  0.166667  0.166667  0.250000      8.000000
  0.250000  0.166667  0.250000      8.000000
  0.333333  0.166667  0.250000      8.000000
  0.416667  0.166667  0.250000      8.000000
  0.500000  0.166667  0.250000      4.000000
  0.000000  0.250000  0.250000      4.000000
  0.083333  0.250000  0.250000      8.000000
  0.166667  0.250000  0.250000      8.000000
  0.250000  0.250000  0.250000      8.000000
  0.333333  0.250000  0.250000      8.000000
  0.416667  0.250000  0.250000      8.000000
  0.500000  0.250000  0.250000      4.000000
  0.000000  0.333333  0.250000      4.000000
  0.083333  0.333333  0.250000      8.000000
  0.166667  0.333333  0.250000      8.000000
  0.250000  0.333333  0.250000      8.000000
  0.333333  0.333333  0.250000      8.000000
  0.416667  0.333333  0.250000      8.000000
  0.500000  0.333333  0.250000      4.000000
  0.000000  0.416667  0.250000      4.000000
  0.083333  0.416667  0.250000      8.000000
  0.166667  0.416667  0.250000      8.000000
  0.250000  0.416667  0.250000      8.000000
  0.333333  0.416667  0.250000      8.000000
  0.416667  0.416667  0.250000      8.000000
  0.500000  0.416667  0.250000      4.000000
  0.000000  0.500000  0.250000      2.000000
  0.083333  0.500000  0.250000      4.000000
  0.166667  0.500000  0.250000      4.000000
  0.250000  0.500000  0.250000      4.000000
  0.333333  0.500000  0.250000      4.000000
  0.416667  0.500000  0.250000      4.000000
  0.500000  0.500000  0.250000      2.000000
 -0.000000  0.000000  0.333333      2.000000
  0.083333  0.000000  0.333333      4.000000
  0.166667 -0.000000  0.333333      4.000000
  0.250000 -0.000000  0.333333      4.000000
  0.333333 -0.000000  0.333333      4.000000
  0.416667 -0.000000  0.333333      4.000000
  0.500000  0.000000  0.333333      2.000000
 -0.000000  0.083333  0.333333      4.000000
  0.083333  0.083333  0.333333      8.000000
  0.166667  0.083333  0.333333      8.000000
  0.250000  0.083333  0.333333      8.000000
  0.333333  0.083333  0.333333      8.000000
  0.416667  0.083333  0.333333      8.000000
  0.500000  0.083333  0.333333      4.000000
 -0.000000  0.166667  0.333333      4.000000
  0.083333  0.166667  0.333333      8.000000
  0.166667  0.166667  0.333333      8.000000
  0.250000  0.166667  0.333333      8.000000
  0.333333  0.166667  0.333333      8.000000
  0.416667  0.166667  0.333333      8.000000
  0.500000  0.166667  0.333333      4.000000
 -0.000000  0.250000  0.333333      4.000000
  0.083333  0.250000  0.333333      8.000000
  0.166667  0.250000  0.333333      8.000000
  0.250000  0.250000  0.333333      8.000000
  0.333333  0.250000  0.333333      8.000000
  0.416667  0.250000  0.333333      8.000000
  0.500000  0.250000  0.333333      4.000000
 -0.000000  0.333333  0.333333      4.000000
  0.083333  0.333333  0.333333      8.000000
  0.166667  0.333333  0.333333      8.000000
  0.250000  0.333333  0.333333      8.000000
  0.333333  0.333333  0.333333      8.000000
  0.416667  0.333333  0.333333      8.000000
  0.500000  0.333333  0.333333      4.000000
 -0.000000  0.416667  0.333333      4.000000
  0.083333  0.416667  0.333333      8.000000
  0.166667  0.416667  0.333333      8.000000
  0.250000  0.416667  0.333333      8.000000
  0.333333  0.416667  0.333333      8.000000
  0.416667  0.416667  0.333333      8.000000
  0.500000  0.416667  0.333333      4.000000
 -0.000000  0.500000  0.333333      2.000000
  0.083333  0.500000  0.333333      4.000000
  0.166667  0.500000  0.333333      4.000000
  0.250000  0.500000  0.333333      4.000000
  0.333333  0.500000  0.333333      4.000000
  0.416667  0.500000  0.333333      4.000000
  0.500000  0.500000  0.333333      2.000000
  0.000000 -0.000000  0.416667      2.000000
  0.083333 -0.000000  0.416667      4.000000
  0.166667  0.000000  0.416667      4.000000
  0.250000 -0.000000  0.416667      4.000000
  0.333333  0.000000  0.416667      4.000000
  0.416667  0.000000  0.416667      4.000000
  0.500000 -0.000000  0.416667      2.000000
  0.000000  0.083333  0.416667      4.000000
  0.083333  0.083333  0.416667      8.000000
  0.166667  0.083333  0.416667      8.000000
  0.250000  0.083333  0.416667      8.000000
  0.333333  0.083333  0.416667      8.000000
  0.416667  0.083333  0.416667      8.000000
  0.500000  0.083333  0.416667      4.000000
  0.000000  0.166667  0.416667      4.000000
  0.083333  0.166667  0.416667      8.000000
  0.166667  0.166667  0.416667      8.000000
  0.250000  0.166667  0.416667      8.000000
  0.333333  0.166667  0.416667      8.000000
  0.416667  0.166667  0.416667      8.000000
  0.500000  0.166667  0.416667      4.000000
  0.000000  0.250000  0.416667      4.000000
  0.083333  0.250000  0.416667      8.000000
  0.166667  0.250000  0.416667      8.000000
  0.250000  0.250000  0.416667      8.000000
  0.333333  0.250000  0.416667      8.000000
  0.416667  0.250000  0.416667      8.000000
  0.500000  0.250000  0.416667      4.000000
  0.000000  0.333333  0.416667      4.000000
  0.083333  0.333333  0.416667      8.000000
  0.166667  0.333333  0.416667      8.000000
  0.250000  0.333333  0.416667      8.000000
  0.333333  0.333333  0.416667      8.000000
  0.416667  0.333333  0.416667      8.000000
  0.500000  0.333333  0.416667      4.000000
  0.000000  0.416667  0.416667      4.000000
  0.083333  0.416667  0.416667      8.000000
  0.166667  0.416667  0.416667      8.000000
  0.250000  0.416667  0.416667      8.000000
  0.333333  0.416667  0.416667      8.000000
  0.416667  0.416667  0.416667      8.000000
  0.500000  0.416667  0.416667      4.000000
  0.000000  0.500000  0.416667      2.000000
  0.083333  0.500000  0.416667      4.000000
  0.166667  0.500000  0.416667      4.000000
  0.250000  0.500000  0.416667      4.000000
  0.333333  0.500000  0.416667      4.000000
  0.416667  0.500000  0.416667      4.000000
  0.500000  0.500000  0.416667      2.000000
  0.000000  0.000000  0.500000      1.000000
  0.083333  0.000000  0.500000      2.000000
  0.166667  0.000000  0.500000      2.000000
  0.250000 -0.000000  0.500000      2.000000
  0.333333  0.000000  0.500000      2.000000
  0.416667  0.000000  0.500000      2.000000
  0.500000  0.000000  0.500000      1.000000
  0.000000  0.083333  0.500000      2.000000
  0.083333  0.083333  0.500000      4.000000
  0.166667  0.083333  0.500000      4.000000
  0.250000  0.083333  0.500000      4.000000
  0.333333  0.083333  0.500000      4.000000
  0.416667  0.083333  0.500000      4.000000
  0.500000  0.083333  0.500000      2.000000
  0.000000  0.166667  0.500000      2.000000
  0.083333  0.166667  0.500000      4.000000
  0.166667  0.166667  0.500000      4.000000
  0.250000  0.166667  0.500000      4.000000
  0.333333  0.166667  0.500000      4.000000
  0.416667  0.166667  0.500000      4.000000
  0.500000  0.166667  0.500000      2.000000
  0.000000  0.250000  0.500000      2.000000
  0.083333  0.250000  0.500000      4.000000
  0.166667  0.250000  0.500000      4.000000
  0.250000  0.250000  0.500000      4.000000
  0.333333  0.250000  0.500000      4.000000
  0.416667  0.250000  0.500000      4.000000
  0.500000  0.250000  0.500000      2.000000
  0.000000  0.333333  0.500000      2.000000
  0.083333  0.333333  0.500000      4.000000
  0.166667  0.333333  0.500000      4.000000
  0.250000  0.333333  0.500000      4.000000
  0.333333  0.333333  0.500000      4.000000
  0.416667  0.333333  0.500000      4.000000
  0.500000  0.333333  0.500000      2.000000
  0.000000  0.416667  0.500000      2.000000
  0.083333  0.416667  0.500000      4.000000
  0.166667  0.416667  0.500000      4.000000
  0.250000  0.416667  0.500000      4.000000
  0.333333  0.416667  0.500000      4.000000
  0.416667  0.416667  0.500000      4.000000
  0.500000  0.416667  0.500000      2.000000
  0.000000  0.500000  0.500000      1.000000
  0.083333  0.500000  0.500000      2.000000
  0.166667  0.500000  0.500000      2.000000
  0.250000  0.500000  0.500000      2.000000
  0.333333  0.500000  0.500000      2.000000
  0.416667  0.500000  0.500000      2.000000
  0.500000  0.500000  0.500000      1.000000
 
 Following cartesian coordinates:
            Coordinates               Weight
  0.000000  0.000000  0.000000      1.000000
  0.010127 -0.000000  0.000000      2.000000
  0.020255 -0.000000  0.000000      2.000000
  0.030382 -0.000000  0.000000      2.000000
  0.040509 -0.000000  0.000000      2.000000
  0.050636 -0.000000  0.000000      2.000000
  0.060764 -0.000000  0.000000      1.000000
  0.000000  0.019713  0.000000      2.000000
  0.010127  0.019713  0.000000      4.000000
  0.020255  0.019713  0.000000      4.000000
  0.030382  0.019713  0.000000      4.000000
  0.040509  0.019713  0.000000      4.000000
  0.050636  0.019713  0.000000      4.000000
  0.060764  0.019713  0.000000      2.000000
  0.000000  0.039426  0.000000      2.000000
  0.010127  0.039426  0.000000      4.000000
  0.020255  0.039426  0.000000      4.000000
  0.030382  0.039426  0.000000      4.000000
  0.040509  0.039426  0.000000      4.000000
  0.050636  0.039426  0.000000      4.000000
  0.060764  0.039426  0.000000      2.000000
  0.000000  0.059139  0.000000      2.000000
  0.010127  0.059139  0.000000      4.000000
  0.020255  0.059139  0.000000      4.000000
  0.030382  0.059139  0.000000      4.000000
  0.040509  0.059139  0.000000      4.000000
  0.050636  0.059139  0.000000      4.000000
  0.060764  0.059139  0.000000      2.000000
  0.000000  0.078852  0.000000      2.000000
  0.010127  0.078852  0.000000      4.000000
  0.020255  0.078852  0.000000      4.000000
  0.030382  0.078852  0.000000      4.000000
  0.040509  0.078852  0.000000      4.000000
  0.050636  0.078852  0.000000      4.000000
  0.060764  0.078852  0.000000      2.000000
  0.000000  0.098565  0.000000      2.000000
  0.010127  0.098565  0.000000      4.000000
  0.020255  0.098565  0.000000      4.000000
  0.030382  0.098565  0.000000      4.000000
  0.040509  0.098565  0.000000      4.000000
  0.050636  0.098565  0.000000      4.000000
  0.060764  0.098565  0.000000      2.000000
  0.000000  0.118279  0.000000      1.000000
  0.010127  0.118279  0.000000      2.000000
  0.020255  0.118279  0.000000      2.000000
  0.030382  0.118279  0.000000      2.000000
  0.040509  0.118279  0.000000      2.000000
  0.050636  0.118279  0.000000      2.000000
  0.060764  0.118279  0.000000      1.000000
 -0.000000 -0.000000  0.009225      2.000000
  0.010127 -0.000000  0.009225      4.000000
  0.020255 -0.000000  0.009225      4.000000
  0.030382 -0.000000  0.009225      4.000000
  0.040509 -0.000000  0.009225      4.000000
  0.050636 -0.000000  0.009225      4.000000
  0.060764 -0.000000  0.009225      2.000000
 -0.000000  0.019713  0.009225      4.000000
  0.010127  0.019713  0.009225      8.000000
  0.020255  0.019713  0.009225      8.000000
  0.030382  0.019713  0.009225      8.000000
  0.040509  0.019713  0.009225      8.000000
  0.050636  0.019713  0.009225      8.000000
  0.060764  0.019713  0.009225      4.000000
 -0.000000  0.039426  0.009225      4.000000
  0.010127  0.039426  0.009225      8.000000
  0.020255  0.039426  0.009225      8.000000
  0.030382  0.039426  0.009225      8.000000
  0.040509  0.039426  0.009225      8.000000
  0.050636  0.039426  0.009225      8.000000
  0.060764  0.039426  0.009225      4.000000
 -0.000000  0.059139  0.009225      4.000000
  0.010127  0.059139  0.009225      8.000000
  0.020255  0.059139  0.009225      8.000000
  0.030382  0.059139  0.009225      8.000000
  0.040509  0.059139  0.009225      8.000000
  0.050636  0.059139  0.009225      8.000000
  0.060764  0.059139  0.009225      4.000000
 -0.000000  0.078852  0.009225      4.000000
  0.010127  0.078852  0.009225      8.000000
  0.020255  0.078852  0.009225      8.000000
  0.030382  0.078852  0.009225      8.000000
  0.040509  0.078852  0.009225      8.000000
  0.050636  0.078852  0.009225      8.000000
  0.060764  0.078852  0.009225      4.000000
 -0.000000  0.098565  0.009225      4.000000
  0.010127  0.098565  0.009225      8.000000
  0.020255  0.098565  0.009225      8.000000
  0.030382  0.098565  0.009225      8.000000
  0.040509  0.098565  0.009225      8.000000
  0.050636  0.098565  0.009225      8.000000
  0.060764  0.098565  0.009225      4.000000
 -0.000000  0.118279  0.009225      2.000000
  0.010127  0.118279  0.009225      4.000000
  0.020255  0.118279  0.009225      4.000000
  0.030382  0.118279  0.009225      4.000000
  0.040509  0.118279  0.009225      4.000000
  0.050636  0.118279  0.009225      4.000000
  0.060764  0.118279  0.009225      2.000000
 -0.000000 -0.000000  0.018450      2.000000
  0.010127 -0.000000  0.018450      4.000000
  0.020255 -0.000000  0.018450      4.000000
  0.030382 -0.000000  0.018450      4.000000
  0.040509 -0.000000  0.018450      4.000000
  0.050636 -0.000000  0.018450      4.000000
  0.060764 -0.000000  0.018450      2.000000
 -0.000000  0.019713  0.018450      4.000000
  0.010127  0.019713  0.018450      8.000000
  0.020255  0.019713  0.018450      8.000000
  0.030382  0.019713  0.018450      8.000000
  0.040509  0.019713  0.018450      8.000000
  0.050636  0.019713  0.018450      8.000000
  0.060764  0.019713  0.018450      4.000000
 -0.000000  0.039426  0.018450      4.000000
  0.010127  0.039426  0.018450      8.000000
  0.020255  0.039426  0.018450      8.000000
  0.030382  0.039426  0.018450      8.000000
  0.040509  0.039426  0.018450      8.000000
  0.050636  0.039426  0.018450      8.000000
  0.060764  0.039426  0.018450      4.000000
 -0.000000  0.059139  0.018450      4.000000
  0.010127  0.059139  0.018450      8.000000
  0.020255  0.059139  0.018450      8.000000
  0.030382  0.059139  0.018450      8.000000
  0.040509  0.059139  0.018450      8.000000
  0.050636  0.059139  0.018450      8.000000
  0.060764  0.059139  0.018450      4.000000
 -0.000000  0.078852  0.018450      4.000000
  0.010127  0.078852  0.018450      8.000000
  0.020255  0.078852  0.018450      8.000000
  0.030382  0.078852  0.018450      8.000000
  0.040509  0.078852  0.018450      8.000000
  0.050636  0.078852  0.018450      8.000000
  0.060764  0.078852  0.018450      4.000000
 -0.000000  0.098565  0.018450      4.000000
  0.010127  0.098565  0.018450      8.000000
  0.020255  0.098565  0.018450      8.000000
  0.030382  0.098565  0.018450      8.000000
  0.040509  0.098565  0.018450      8.000000
  0.050636  0.098565  0.018450      8.000000
  0.060764  0.098565  0.018450      4.000000
 -0.000000  0.118279  0.018450      2.000000
  0.010127  0.118279  0.018450      4.000000
  0.020255  0.118279  0.018450      4.000000
  0.030382  0.118279  0.018450      4.000000
  0.040509  0.118279  0.018450      4.000000
  0.050636  0.118279  0.018450      4.000000
  0.060764  0.118279  0.018450      2.000000
 -0.000000 -0.000000  0.027676      2.000000
  0.010127 -0.000000  0.027676      4.000000
  0.020255 -0.000000  0.027676      4.000000
  0.030382 -0.000000  0.027676      4.000000
  0.040509 -0.000000  0.027676      4.000000
  0.050636 -0.000000  0.027676      4.000000
  0.060764 -0.000000  0.027676      2.000000
 -0.000000  0.019713  0.027676      4.000000
  0.010127  0.019713  0.027676      8.000000
  0.020255  0.019713  0.027676      8.000000
  0.030382  0.019713  0.027676      8.000000
  0.040509  0.019713  0.027676      8.000000
  0.050636  0.019713  0.027676      8.000000
  0.060764  0.019713  0.027676      4.000000
 -0.000000  0.039426  0.027676      4.000000
  0.010127  0.039426  0.027676      8.000000
  0.020255  0.039426  0.027676      8.000000
  0.030382  0.039426  0.027676      8.000000
  0.040509  0.039426  0.027676      8.000000
  0.050636  0.039426  0.027676      8.000000
  0.060764  0.039426  0.027676      4.000000
 -0.000000  0.059139  0.027676      4.000000
  0.010127  0.059139  0.027676      8.000000
  0.020255  0.059139  0.027676      8.000000
  0.030382  0.059139  0.027676      8.000000
  0.040509  0.059139  0.027676      8.000000
  0.050636  0.059139  0.027676      8.000000
  0.060764  0.059139  0.027676      4.000000
 -0.000000  0.078852  0.027676      4.000000
  0.010127  0.078852  0.027676      8.000000
  0.020255  0.078852  0.027676      8.000000
  0.030382  0.078852  0.027676      8.000000
  0.040509  0.078852  0.027676      8.000000
  0.050636  0.078852  0.027676      8.000000
  0.060764  0.078852  0.027676      4.000000
 -0.000000  0.098565  0.027676      4.000000
  0.010127  0.098565  0.027676      8.000000
  0.020255  0.098565  0.027676      8.000000
  0.030382  0.098565  0.027676      8.000000
  0.040509  0.098565  0.027676      8.000000
  0.050636  0.098565  0.027676      8.000000
  0.060764  0.098565  0.027676      4.000000
 -0.000000  0.118279  0.027676      2.000000
  0.010127  0.118279  0.027676      4.000000
  0.020255  0.118279  0.027676      4.000000
  0.030382  0.118279  0.027676      4.000000
  0.040509  0.118279  0.027676      4.000000
  0.050636  0.118279  0.027676      4.000000
  0.060764  0.118279  0.027676      2.000000
 -0.000000 -0.000000  0.036901      2.000000
  0.010127 -0.000000  0.036901      4.000000
  0.020255 -0.000000  0.036901      4.000000
  0.030382 -0.000000  0.036901      4.000000
  0.040509 -0.000000  0.036901      4.000000
  0.050636 -0.000000  0.036901      4.000000
  0.060764 -0.000000  0.036901      2.000000
 -0.000000  0.019713  0.036901      4.000000
  0.010127  0.019713  0.036901      8.000000
  0.020255  0.019713  0.036901      8.000000
  0.030382  0.019713  0.036901      8.000000
  0.040509  0.019713  0.036901      8.000000
  0.050636  0.019713  0.036901      8.000000
  0.060764  0.019713  0.036901      4.000000
 -0.000000  0.039426  0.036901      4.000000
  0.010127  0.039426  0.036901      8.000000
  0.020255  0.039426  0.036901      8.000000
  0.030382  0.039426  0.036901      8.000000
  0.040509  0.039426  0.036901      8.000000
  0.050636  0.039426  0.036901      8.000000
  0.060764  0.039426  0.036901      4.000000
 -0.000000  0.059139  0.036901      4.000000
  0.010127  0.059139  0.036901      8.000000
  0.020255  0.059139  0.036901      8.000000
  0.030382  0.059139  0.036901      8.000000
  0.040509  0.059139  0.036901      8.000000
  0.050636  0.059139  0.036901      8.000000
  0.060764  0.059139  0.036901      4.000000
 -0.000000  0.078852  0.036901      4.000000
  0.010127  0.078852  0.036901      8.000000
  0.020255  0.078852  0.036901      8.000000
  0.030382  0.078852  0.036901      8.000000
  0.040509  0.078852  0.036901      8.000000
  0.050636  0.078852  0.036901      8.000000
  0.060764  0.078852  0.036901      4.000000
 -0.000000  0.098565  0.036901      4.000000
  0.010127  0.098565  0.036901      8.000000
  0.020255  0.098565  0.036901      8.000000
  0.030382  0.098565  0.036901      8.000000
  0.040509  0.098565  0.036901      8.000000
  0.050636  0.098565  0.036901      8.000000
  0.060764  0.098565  0.036901      4.000000
 -0.000000  0.118279  0.036901      2.000000
  0.010127  0.118279  0.036901      4.000000
  0.020255  0.118279  0.036901      4.000000
  0.030382  0.118279  0.036901      4.000000
  0.040509  0.118279  0.036901      4.000000
  0.050636  0.118279  0.036901      4.000000
  0.060764  0.118279  0.036901      2.000000
 -0.000000 -0.000000  0.046126      2.000000
  0.010127 -0.000000  0.046126      4.000000
  0.020255 -0.000000  0.046126      4.000000
  0.030382 -0.000000  0.046126      4.000000
  0.040509 -0.000000  0.046126      4.000000
  0.050636 -0.000000  0.046126      4.000000
  0.060764 -0.000000  0.046126      2.000000
 -0.000000  0.019713  0.046126      4.000000
  0.010127  0.019713  0.046126      8.000000
  0.020255  0.019713  0.046126      8.000000
  0.030382  0.019713  0.046126      8.000000
  0.040509  0.019713  0.046126      8.000000
  0.050636  0.019713  0.046126      8.000000
  0.060764  0.019713  0.046126      4.000000
 -0.000000  0.039426  0.046126      4.000000
  0.010127  0.039426  0.046126      8.000000
  0.020255  0.039426  0.046126      8.000000
  0.030382  0.039426  0.046126      8.000000
  0.040509  0.039426  0.046126      8.000000
  0.050636  0.039426  0.046126      8.000000
  0.060764  0.039426  0.046126      4.000000
 -0.000000  0.059139  0.046126      4.000000
  0.010127  0.059139  0.046126      8.000000
  0.020255  0.059139  0.046126      8.000000
  0.030382  0.059139  0.046126      8.000000
  0.040509  0.059139  0.046126      8.000000
  0.050636  0.059139  0.046126      8.000000
  0.060764  0.059139  0.046126      4.000000
 -0.000000  0.078852  0.046126      4.000000
  0.010127  0.078852  0.046126      8.000000
  0.020255  0.078852  0.046126      8.000000
  0.030382  0.078852  0.046126      8.000000
  0.040509  0.078852  0.046126      8.000000
  0.050636  0.078852  0.046126      8.000000
  0.060764  0.078852  0.046126      4.000000
 -0.000000  0.098565  0.046126      4.000000
  0.010127  0.098565  0.046126      8.000000
  0.020255  0.098565  0.046126      8.000000
  0.030382  0.098565  0.046126      8.000000
  0.040509  0.098565  0.046126      8.000000
  0.050636  0.098565  0.046126      8.000000
  0.060764  0.098565  0.046126      4.000000
 -0.000000  0.118279  0.046126      2.000000
  0.010127  0.118279  0.046126      4.000000
  0.020255  0.118279  0.046126      4.000000
  0.030382  0.118279  0.046126      4.000000
  0.040509  0.118279  0.046126      4.000000
  0.050636  0.118279  0.046126      4.000000
  0.060764  0.118279  0.046126      2.000000
 -0.000000 -0.000000  0.055351      1.000000
  0.010127 -0.000000  0.055351      2.000000
  0.020255 -0.000000  0.055351      2.000000
  0.030382 -0.000000  0.055351      2.000000
  0.040509 -0.000000  0.055351      2.000000
  0.050636 -0.000000  0.055351      2.000000
  0.060764 -0.000000  0.055351      1.000000
 -0.000000  0.019713  0.055351      2.000000
  0.010127  0.019713  0.055351      4.000000
  0.020255  0.019713  0.055351      4.000000
  0.030382  0.019713  0.055351      4.000000
  0.040509  0.019713  0.055351      4.000000
  0.050636  0.019713  0.055351      4.000000
  0.060764  0.019713  0.055351      2.000000
 -0.000000  0.039426  0.055351      2.000000
  0.010127  0.039426  0.055351      4.000000
  0.020255  0.039426  0.055351      4.000000
  0.030382  0.039426  0.055351      4.000000
  0.040509  0.039426  0.055351      4.000000
  0.050636  0.039426  0.055351      4.000000
  0.060764  0.039426  0.055351      2.000000
 -0.000000  0.059139  0.055351      2.000000
  0.010127  0.059139  0.055351      4.000000
  0.020255  0.059139  0.055351      4.000000
  0.030382  0.059139  0.055351      4.000000
  0.040509  0.059139  0.055351      4.000000
  0.050636  0.059139  0.055351      4.000000
  0.060764  0.059139  0.055351      2.000000
 -0.000000  0.078852  0.055351      2.000000
  0.010127  0.078852  0.055351      4.000000
  0.020255  0.078852  0.055351      4.000000
  0.030382  0.078852  0.055351      4.000000
  0.040509  0.078852  0.055351      4.000000
  0.050636  0.078852  0.055351      4.000000
  0.060764  0.078852  0.055351      2.000000
 -0.000000  0.098565  0.055351      2.000000
  0.010127  0.098565  0.055351      4.000000
  0.020255  0.098565  0.055351      4.000000
  0.030382  0.098565  0.055351      4.000000
  0.040509  0.098565  0.055351      4.000000
  0.050636  0.098565  0.055351      4.000000
  0.060764  0.098565  0.055351      2.000000
 -0.000000  0.118279  0.055351      1.000000
  0.010127  0.118279  0.055351      2.000000
  0.020255  0.118279  0.055351      2.000000
  0.030382  0.118279  0.055351      2.000000
  0.040509  0.118279  0.055351      2.000000
  0.050636  0.118279  0.055351      2.000000
  0.060764  0.118279  0.055351      1.000000
 
 
 Subroutine IBZKPT_HF returns following result:
 ==============================================
 
 Found   1728 k-points in 1st BZ
 the following   1728 k-points will be used (e.g. in the exchange kernel)
 Following reciprocal coordinates:   # in IRBZ
  0.000000  0.000000  0.000000    0.00057870   1 t-inv F
  0.083333  0.000000  0.000000    0.00057870   2 t-inv F
  0.166667  0.000000  0.000000    0.00057870   3 t-inv F
  0.250000  0.000000  0.000000    0.00057870   4 t-inv F
  0.333333 -0.000000  0.000000    0.00057870   5 t-inv F
  0.416667  0.000000  0.000000    0.00057870   6 t-inv F
  0.500000  0.000000  0.000000    0.00057870   7 t-inv F
  0.000000  0.083333  0.000000    0.00057870   8 t-inv F
  0.083333  0.083333  0.000000    0.00057870   9 t-inv F
  0.166667  0.083333  0.000000    0.00057870  10 t-inv F
  0.250000  0.083333  0.000000    0.00057870  11 t-inv F
  0.333333  0.083333  0.000000    0.00057870  12 t-inv F
  0.416667  0.083333  0.000000    0.00057870  13 t-inv F
  0.500000  0.083333  0.000000    0.00057870  14 t-inv F
  0.000000  0.166667  0.000000    0.00057870  15 t-inv F
  0.083333  0.166667  0.000000    0.00057870  16 t-inv F
  0.166667  0.166667  0.000000    0.00057870  17 t-inv F
  0.250000  0.166667  0.000000    0.00057870  18 t-inv F
  0.333333  0.166667  0.000000    0.00057870  19 t-inv F
  0.416667  0.166667  0.000000    0.00057870  20 t-inv F
  0.500000  0.166667  0.000000    0.00057870  21 t-inv F
  0.000000  0.250000  0.000000    0.00057870  22 t-inv F
  0.083333  0.250000  0.000000    0.00057870  23 t-inv F
  0.166667  0.250000  0.000000    0.00057870  24 t-inv F
  0.250000  0.250000  0.000000    0.00057870  25 t-inv F
  0.333333  0.250000  0.000000    0.00057870  26 t-inv F
  0.416667  0.250000  0.000000    0.00057870  27 t-inv F
  0.500000  0.250000  0.000000    0.00057870  28 t-inv F
  0.000000  0.333333  0.000000    0.00057870  29 t-inv F
  0.083333  0.333333  0.000000    0.00057870  30 t-inv F
  0.166667  0.333333  0.000000    0.00057870  31 t-inv F
  0.250000  0.333333  0.000000    0.00057870  32 t-inv F
  0.333333  0.333333  0.000000    0.00057870  33 t-inv F
  0.416667  0.333333  0.000000    0.00057870  34 t-inv F
  0.500000  0.333333  0.000000    0.00057870  35 t-inv F
  0.000000  0.416667  0.000000    0.00057870  36 t-inv F
  0.083333  0.416667  0.000000    0.00057870  37 t-inv F
  0.166667  0.416667  0.000000    0.00057870  38 t-inv F
  0.250000  0.416667  0.000000    0.00057870  39 t-inv F
  0.333333  0.416667  0.000000    0.00057870  40 t-inv F
  0.416667  0.416667  0.000000    0.00057870  41 t-inv F
  0.500000  0.416667  0.000000    0.00057870  42 t-inv F
  0.000000  0.500000  0.000000    0.00057870  43 t-inv F
  0.083333  0.500000  0.000000    0.00057870  44 t-inv F
  0.166667  0.500000  0.000000    0.00057870  45 t-inv F
  0.250000  0.500000  0.000000    0.00057870  46 t-inv F
  0.333333  0.500000  0.000000    0.00057870  47 t-inv F
  0.416667  0.500000  0.000000    0.00057870  48 t-inv F
  0.500000  0.500000  0.000000    0.00057870  49 t-inv F
  0.000000  0.000000  0.083333    0.00057870  50 t-inv F
  0.083333  0.000000  0.083333    0.00057870  51 t-inv F
  0.166667  0.000000  0.083333    0.00057870  52 t-inv F
  0.250000 -0.000000  0.083333    0.00057870  53 t-inv F
  0.333333 -0.000000  0.083333    0.00057870  54 t-inv F
  0.416667 -0.000000  0.083333    0.00057870  55 t-inv F
  0.500000  0.000000  0.083333    0.00057870  56 t-inv F
  0.000000  0.083333  0.083333    0.00057870  57 t-inv F
  0.083333  0.083333  0.083333    0.00057870  58 t-inv F
  0.166667  0.083333  0.083333    0.00057870  59 t-inv F
  0.250000  0.083333  0.083333    0.00057870  60 t-inv F
  0.333333  0.083333  0.083333    0.00057870  61 t-inv F
  0.416667  0.083333  0.083333    0.00057870  62 t-inv F
  0.500000  0.083333  0.083333    0.00057870  63 t-inv F
  0.000000  0.166667  0.083333    0.00057870  64 t-inv F
  0.083333  0.166667  0.083333    0.00057870  65 t-inv F
  0.166667  0.166667  0.083333    0.00057870  66 t-inv F
  0.250000  0.166667  0.083333    0.00057870  67 t-inv F
  0.333333  0.166667  0.083333    0.00057870  68 t-inv F
  0.416667  0.166667  0.083333    0.00057870  69 t-inv F
  0.500000  0.166667  0.083333    0.00057870  70 t-inv F
  0.000000  0.250000  0.083333    0.00057870  71 t-inv F
  0.083333  0.250000  0.083333    0.00057870  72 t-inv F
  0.166667  0.250000  0.083333    0.00057870  73 t-inv F
  0.250000  0.250000  0.083333    0.00057870  74 t-inv F
  0.333333  0.250000  0.083333    0.00057870  75 t-inv F
  0.416667  0.250000  0.083333    0.00057870  76 t-inv F
  0.500000  0.250000  0.083333    0.00057870  77 t-inv F
  0.000000  0.333333  0.083333    0.00057870  78 t-inv F
  0.083333  0.333333  0.083333    0.00057870  79 t-inv F
  0.166667  0.333333  0.083333    0.00057870  80 t-inv F
  0.250000  0.333333  0.083333    0.00057870  81 t-inv F
  0.333333  0.333333  0.083333    0.00057870  82 t-inv F
  0.416667  0.333333  0.083333    0.00057870  83 t-inv F
  0.500000  0.333333  0.083333    0.00057870  84 t-inv F
  0.000000  0.416667  0.083333    0.00057870  85 t-inv F
  0.083333  0.416667  0.083333    0.00057870  86 t-inv F
  0.166667  0.416667  0.083333    0.00057870  87 t-inv F
  0.250000  0.416667  0.083333    0.00057870  88 t-inv F
  0.333333  0.416667  0.083333    0.00057870  89 t-inv F
  0.416667  0.416667  0.083333    0.00057870  90 t-inv F
  0.500000  0.416667  0.083333    0.00057870  91 t-inv F
  0.000000  0.500000  0.083333    0.00057870  92 t-inv F
  0.083333  0.500000  0.083333    0.00057870  93 t-inv F
  0.166667  0.500000  0.083333    0.00057870  94 t-inv F
  0.250000  0.500000  0.083333    0.00057870  95 t-inv F
  0.333333  0.500000  0.083333    0.00057870  96 t-inv F
  0.416667  0.500000  0.083333    0.00057870  97 t-inv F
  0.500000  0.500000  0.083333    0.00057870  98 t-inv F
 -0.000000 -0.000000  0.166667    0.00057870  99 t-inv F
  0.083333  0.000000  0.166667    0.00057870 100 t-inv F
  0.166667  0.000000  0.166667    0.00057870 101 t-inv F
  0.250000  0.000000  0.166667    0.00057870 102 t-inv F
  0.333333 -0.000000  0.166667    0.00057870 103 t-inv F
  0.416667  0.000000  0.166667    0.00057870 104 t-inv F
  0.500000  0.000000  0.166667    0.00057870 105 t-inv F
 -0.000000  0.083333  0.166667    0.00057870 106 t-inv F
  0.083333  0.083333  0.166667    0.00057870 107 t-inv F
  0.166667  0.083333  0.166667    0.00057870 108 t-inv F
  0.250000  0.083333  0.166667    0.00057870 109 t-inv F
  0.333333  0.083333  0.166667    0.00057870 110 t-inv F
  0.416667  0.083333  0.166667    0.00057870 111 t-inv F
  0.500000  0.083333  0.166667    0.00057870 112 t-inv F
 -0.000000  0.166667  0.166667    0.00057870 113 t-inv F
  0.083333  0.166667  0.166667    0.00057870 114 t-inv F
  0.166667  0.166667  0.166667    0.00057870 115 t-inv F
  0.250000  0.166667  0.166667    0.00057870 116 t-inv F
  0.333333  0.166667  0.166667    0.00057870 117 t-inv F
  0.416667  0.166667  0.166667    0.00057870 118 t-inv F
  0.500000  0.166667  0.166667    0.00057870 119 t-inv F
 -0.000000  0.250000  0.166667    0.00057870 120 t-inv F
  0.083333  0.250000  0.166667    0.00057870 121 t-inv F
  0.166667  0.250000  0.166667    0.00057870 122 t-inv F
  0.250000  0.250000  0.166667    0.00057870 123 t-inv F
  0.333333  0.250000  0.166667    0.00057870 124 t-inv F
  0.416667  0.250000  0.166667    0.00057870 125 t-inv F
  0.500000  0.250000  0.166667    0.00057870 126 t-inv F
 -0.000000  0.333333  0.166667    0.00057870 127 t-inv F
  0.083333  0.333333  0.166667    0.00057870 128 t-inv F
  0.166667  0.333333  0.166667    0.00057870 129 t-inv F
  0.250000  0.333333  0.166667    0.00057870 130 t-inv F
  0.333333  0.333333  0.166667    0.00057870 131 t-inv F
  0.416667  0.333333  0.166667    0.00057870 132 t-inv F
  0.500000  0.333333  0.166667    0.00057870 133 t-inv F
 -0.000000  0.416667  0.166667    0.00057870 134 t-inv F
  0.083333  0.416667  0.166667    0.00057870 135 t-inv F
  0.166667  0.416667  0.166667    0.00057870 136 t-inv F
  0.250000  0.416667  0.166667    0.00057870 137 t-inv F
  0.333333  0.416667  0.166667    0.00057870 138 t-inv F
  0.416667  0.416667  0.166667    0.00057870 139 t-inv F
  0.500000  0.416667  0.166667    0.00057870 140 t-inv F
 -0.000000  0.500000  0.166667    0.00057870 141 t-inv F
  0.083333  0.500000  0.166667    0.00057870 142 t-inv F
  0.166667  0.500000  0.166667    0.00057870 143 t-inv F
  0.250000  0.500000  0.166667    0.00057870 144 t-inv F
  0.333333  0.500000  0.166667    0.00057870 145 t-inv F
  0.416667  0.500000  0.166667    0.00057870 146 t-inv F
  0.500000  0.500000  0.166667    0.00057870 147 t-inv F
  0.000000  0.000000  0.250000    0.00057870 148 t-inv F
  0.083333 -0.000000  0.250000    0.00057870 149 t-inv F
  0.166667  0.000000  0.250000    0.00057870 150 t-inv F
  0.250000  0.000000  0.250000    0.00057870 151 t-inv F
  0.333333 -0.000000  0.250000    0.00057870 152 t-inv F
  0.416667  0.000000  0.250000    0.00057870 153 t-inv F
  0.500000  0.000000  0.250000    0.00057870 154 t-inv F
  0.000000  0.083333  0.250000    0.00057870 155 t-inv F
  0.083333  0.083333  0.250000    0.00057870 156 t-inv F
  0.166667  0.083333  0.250000    0.00057870 157 t-inv F
  0.250000  0.083333  0.250000    0.00057870 158 t-inv F
  0.333333  0.083333  0.250000    0.00057870 159 t-inv F
  0.416667  0.083333  0.250000    0.00057870 160 t-inv F
  0.500000  0.083333  0.250000    0.00057870 161 t-inv F
  0.000000  0.166667  0.250000    0.00057870 162 t-inv F
  0.083333  0.166667  0.250000    0.00057870 163 t-inv F
  0.166667  0.166667  0.250000    0.00057870 164 t-inv F
  0.250000  0.166667  0.250000    0.00057870 165 t-inv F
  0.333333  0.166667  0.250000    0.00057870 166 t-inv F
  0.416667  0.166667  0.250000    0.00057870 167 t-inv F
  0.500000  0.166667  0.250000    0.00057870 168 t-inv F
  0.000000  0.250000  0.250000    0.00057870 169 t-inv F
  0.083333  0.250000  0.250000    0.00057870 170 t-inv F
  0.166667  0.250000  0.250000    0.00057870 171 t-inv F
  0.250000  0.250000  0.250000    0.00057870 172 t-inv F
  0.333333  0.250000  0.250000    0.00057870 173 t-inv F
  0.416667  0.250000  0.250000    0.00057870 174 t-inv F
  0.500000  0.250000  0.250000    0.00057870 175 t-inv F
  0.000000  0.333333  0.250000    0.00057870 176 t-inv F
  0.083333  0.333333  0.250000    0.00057870 177 t-inv F
  0.166667  0.333333  0.250000    0.00057870 178 t-inv F
  0.250000  0.333333  0.250000    0.00057870 179 t-inv F
  0.333333  0.333333  0.250000    0.00057870 180 t-inv F
  0.416667  0.333333  0.250000    0.00057870 181 t-inv F
  0.500000  0.333333  0.250000    0.00057870 182 t-inv F
  0.000000  0.416667  0.250000    0.00057870 183 t-inv F
  0.083333  0.416667  0.250000    0.00057870 184 t-inv F
  0.166667  0.416667  0.250000    0.00057870 185 t-inv F
  0.250000  0.416667  0.250000    0.00057870 186 t-inv F
  0.333333  0.416667  0.250000    0.00057870 187 t-inv F
  0.416667  0.416667  0.250000    0.00057870 188 t-inv F
  0.500000  0.416667  0.250000    0.00057870 189 t-inv F
  0.000000  0.500000  0.250000    0.00057870 190 t-inv F
  0.083333  0.500000  0.250000    0.00057870 191 t-inv F
  0.166667  0.500000  0.250000    0.00057870 192 t-inv F
  0.250000  0.500000  0.250000    0.00057870 193 t-inv F
  0.333333  0.500000  0.250000    0.00057870 194 t-inv F
  0.416667  0.500000  0.250000    0.00057870 195 t-inv F
  0.500000  0.500000  0.250000    0.00057870 196 t-inv F
 -0.000000  0.000000  0.333333    0.00057870 197 t-inv F
  0.083333  0.000000  0.333333    0.00057870 198 t-inv F
  0.166667 -0.000000  0.333333    0.00057870 199 t-inv F
  0.250000 -0.000000  0.333333    0.00057870 200 t-inv F
  0.333333 -0.000000  0.333333    0.00057870 201 t-inv F
  0.416667 -0.000000  0.333333    0.00057870 202 t-inv F
  0.500000  0.000000  0.333333    0.00057870 203 t-inv F
 -0.000000  0.083333  0.333333    0.00057870 204 t-inv F
  0.083333  0.083333  0.333333    0.00057870 205 t-inv F
  0.166667  0.083333  0.333333    0.00057870 206 t-inv F
  0.250000  0.083333  0.333333    0.00057870 207 t-inv F
  0.333333  0.083333  0.333333    0.00057870 208 t-inv F
  0.416667  0.083333  0.333333    0.00057870 209 t-inv F
  0.500000  0.083333  0.333333    0.00057870 210 t-inv F
 -0.000000  0.166667  0.333333    0.00057870 211 t-inv F
  0.083333  0.166667  0.333333    0.00057870 212 t-inv F
  0.166667  0.166667  0.333333    0.00057870 213 t-inv F
  0.250000  0.166667  0.333333    0.00057870 214 t-inv F
  0.333333  0.166667  0.333333    0.00057870 215 t-inv F
  0.416667  0.166667  0.333333    0.00057870 216 t-inv F
  0.500000  0.166667  0.333333    0.00057870 217 t-inv F
 -0.000000  0.250000  0.333333    0.00057870 218 t-inv F
  0.083333  0.250000  0.333333    0.00057870 219 t-inv F
  0.166667  0.250000  0.333333    0.00057870 220 t-inv F
  0.250000  0.250000  0.333333    0.00057870 221 t-inv F
  0.333333  0.250000  0.333333    0.00057870 222 t-inv F
  0.416667  0.250000  0.333333    0.00057870 223 t-inv F
  0.500000  0.250000  0.333333    0.00057870 224 t-inv F
 -0.000000  0.333333  0.333333    0.00057870 225 t-inv F
  0.083333  0.333333  0.333333    0.00057870 226 t-inv F
  0.166667  0.333333  0.333333    0.00057870 227 t-inv F
  0.250000  0.333333  0.333333    0.00057870 228 t-inv F
  0.333333  0.333333  0.333333    0.00057870 229 t-inv F
  0.416667  0.333333  0.333333    0.00057870 230 t-inv F
  0.500000  0.333333  0.333333    0.00057870 231 t-inv F
 -0.000000  0.416667  0.333333    0.00057870 232 t-inv F
  0.083333  0.416667  0.333333    0.00057870 233 t-inv F
  0.166667  0.416667  0.333333    0.00057870 234 t-inv F
  0.250000  0.416667  0.333333    0.00057870 235 t-inv F
  0.333333  0.416667  0.333333    0.00057870 236 t-inv F
  0.416667  0.416667  0.333333    0.00057870 237 t-inv F
  0.500000  0.416667  0.333333    0.00057870 238 t-inv F
 -0.000000  0.500000  0.333333    0.00057870 239 t-inv F
  0.083333  0.500000  0.333333    0.00057870 240 t-inv F
  0.166667  0.500000  0.333333    0.00057870 241 t-inv F
  0.250000  0.500000  0.333333    0.00057870 242 t-inv F
  0.333333  0.500000  0.333333    0.00057870 243 t-inv F
  0.416667  0.500000  0.333333    0.00057870 244 t-inv F
  0.500000  0.500000  0.333333    0.00057870 245 t-inv F
  0.000000 -0.000000  0.416667    0.00057870 246 t-inv F
  0.083333 -0.000000  0.416667    0.00057870 247 t-inv F
  0.166667  0.000000  0.416667    0.00057870 248 t-inv F
  0.250000 -0.000000  0.416667    0.00057870 249 t-inv F
  0.333333  0.000000  0.416667    0.00057870 250 t-inv F
  0.416667  0.000000  0.416667    0.00057870 251 t-inv F
  0.500000 -0.000000  0.416667    0.00057870 252 t-inv F
  0.000000  0.083333  0.416667    0.00057870 253 t-inv F
  0.083333  0.083333  0.416667    0.00057870 254 t-inv F
  0.166667  0.083333  0.416667    0.00057870 255 t-inv F
  0.250000  0.083333  0.416667    0.00057870 256 t-inv F
  0.333333  0.083333  0.416667    0.00057870 257 t-inv F
  0.416667  0.083333  0.416667    0.00057870 258 t-inv F
  0.500000  0.083333  0.416667    0.00057870 259 t-inv F
  0.000000  0.166667  0.416667    0.00057870 260 t-inv F
  0.083333  0.166667  0.416667    0.00057870 261 t-inv F
  0.166667  0.166667  0.416667    0.00057870 262 t-inv F
  0.250000  0.166667  0.416667    0.00057870 263 t-inv F
  0.333333  0.166667  0.416667    0.00057870 264 t-inv F
  0.416667  0.166667  0.416667    0.00057870 265 t-inv F
  0.500000  0.166667  0.416667    0.00057870 266 t-inv F
  0.000000  0.250000  0.416667    0.00057870 267 t-inv F
  0.083333  0.250000  0.416667    0.00057870 268 t-inv F
  0.166667  0.250000  0.416667    0.00057870 269 t-inv F
  0.250000  0.250000  0.416667    0.00057870 270 t-inv F
  0.333333  0.250000  0.416667    0.00057870 271 t-inv F
  0.416667  0.250000  0.416667    0.00057870 272 t-inv F
  0.500000  0.250000  0.416667    0.00057870 273 t-inv F
  0.000000  0.333333  0.416667    0.00057870 274 t-inv F
  0.083333  0.333333  0.416667    0.00057870 275 t-inv F
  0.166667  0.333333  0.416667    0.00057870 276 t-inv F
  0.250000  0.333333  0.416667    0.00057870 277 t-inv F
  0.333333  0.333333  0.416667    0.00057870 278 t-inv F
  0.416667  0.333333  0.416667    0.00057870 279 t-inv F
  0.500000  0.333333  0.416667    0.00057870 280 t-inv F
  0.000000  0.416667  0.416667    0.00057870 281 t-inv F
  0.083333  0.416667  0.416667    0.00057870 282 t-inv F
  0.166667  0.416667  0.416667    0.00057870 283 t-inv F
  0.250000  0.416667  0.416667    0.00057870 284 t-inv F
  0.333333  0.416667  0.416667    0.00057870 285 t-inv F
  0.416667  0.416667  0.416667    0.00057870 286 t-inv F
  0.500000  0.416667  0.416667    0.00057870 287 t-inv F
  0.000000  0.500000  0.416667    0.00057870 288 t-inv F
  0.083333  0.500000  0.416667    0.00057870 289 t-inv F
  0.166667  0.500000  0.416667    0.00057870 290 t-inv F
  0.250000  0.500000  0.416667    0.00057870 291 t-inv F
  0.333333  0.500000  0.416667    0.00057870 292 t-inv F
  0.416667  0.500000  0.416667    0.00057870 293 t-inv F
  0.500000  0.500000  0.416667    0.00057870 294 t-inv F
  0.000000  0.000000  0.500000    0.00057870 295 t-inv F
  0.083333  0.000000  0.500000    0.00057870 296 t-inv F
  0.166667  0.000000  0.500000    0.00057870 297 t-inv F
  0.250000 -0.000000  0.500000    0.00057870 298 t-inv F
  0.333333  0.000000  0.500000    0.00057870 299 t-inv F
  0.416667  0.000000  0.500000    0.00057870 300 t-inv F
  0.500000  0.000000  0.500000    0.00057870 301 t-inv F
  0.000000  0.083333  0.500000    0.00057870 302 t-inv F
  0.083333  0.083333  0.500000    0.00057870 303 t-inv F
  0.166667  0.083333  0.500000    0.00057870 304 t-inv F
  0.250000  0.083333  0.500000    0.00057870 305 t-inv F
  0.333333  0.083333  0.500000    0.00057870 306 t-inv F
  0.416667  0.083333  0.500000    0.00057870 307 t-inv F
  0.500000  0.083333  0.500000    0.00057870 308 t-inv F
  0.000000  0.166667  0.500000    0.00057870 309 t-inv F
  0.083333  0.166667  0.500000    0.00057870 310 t-inv F
  0.166667  0.166667  0.500000    0.00057870 311 t-inv F
  0.250000  0.166667  0.500000    0.00057870 312 t-inv F
  0.333333  0.166667  0.500000    0.00057870 313 t-inv F
  0.416667  0.166667  0.500000    0.00057870 314 t-inv F
  0.500000  0.166667  0.500000    0.00057870 315 t-inv F
  0.000000  0.250000  0.500000    0.00057870 316 t-inv F
  0.083333  0.250000  0.500000    0.00057870 317 t-inv F
  0.166667  0.250000  0.500000    0.00057870 318 t-inv F
  0.250000  0.250000  0.500000    0.00057870 319 t-inv F
  0.333333  0.250000  0.500000    0.00057870 320 t-inv F
  0.416667  0.250000  0.500000    0.00057870 321 t-inv F
  0.500000  0.250000  0.500000    0.00057870 322 t-inv F
  0.000000  0.333333  0.500000    0.00057870 323 t-inv F
  0.083333  0.333333  0.500000    0.00057870 324 t-inv F
  0.166667  0.333333  0.500000    0.00057870 325 t-inv F
  0.250000  0.333333  0.500000    0.00057870 326 t-inv F
  0.333333  0.333333  0.500000    0.00057870 327 t-inv F
  0.416667  0.333333  0.500000    0.00057870 328 t-inv F
  0.500000  0.333333  0.500000    0.00057870 329 t-inv F
  0.000000  0.416667  0.500000    0.00057870 330 t-inv F
  0.083333  0.416667  0.500000    0.00057870 331 t-inv F
  0.166667  0.416667  0.500000    0.00057870 332 t-inv F
  0.250000  0.416667  0.500000    0.00057870 333 t-inv F
  0.333333  0.416667  0.500000    0.00057870 334 t-inv F
  0.416667  0.416667  0.500000    0.00057870 335 t-inv F
  0.500000  0.416667  0.500000    0.00057870 336 t-inv F
  0.000000  0.500000  0.500000    0.00057870 337 t-inv F
  0.083333  0.500000  0.500000    0.00057870 338 t-inv F
  0.166667  0.500000  0.500000    0.00057870 339 t-inv F
  0.250000  0.500000  0.500000    0.00057870 340 t-inv F
  0.333333  0.500000  0.500000    0.00057870 341 t-inv F
  0.416667  0.500000  0.500000    0.00057870 342 t-inv F
  0.500000  0.500000  0.500000    0.00057870 343 t-inv F
 -0.083333 -0.000000  0.000000    0.00057870   2 t-inv F
 -0.166667 -0.000000  0.000000    0.00057870   3 t-inv F
 -0.250000 -0.000000  0.000000    0.00057870   4 t-inv F
 -0.333333  0.000000  0.000000    0.00057870   5 t-inv F
 -0.416667 -0.000000  0.000000    0.00057870   6 t-inv F
  0.000000 -0.083333  0.000000    0.00057870   8 t-inv F
 -0.083333 -0.083333  0.000000    0.00057870   9 t-inv F
  0.083333 -0.083333  0.000000    0.00057870   9 t-inv F
 -0.083333  0.083333  0.000000    0.00057870   9 t-inv F
 -0.166667 -0.083333  0.000000    0.00057870  10 t-inv F
  0.166667 -0.083333  0.000000    0.00057870  10 t-inv F
 -0.166667  0.083333  0.000000    0.00057870  10 t-inv F
 -0.250000 -0.083333  0.000000    0.00057870  11 t-inv F
  0.250000 -0.083333  0.000000    0.00057870  11 t-inv F
 -0.250000  0.083333  0.000000    0.00057870  11 t-inv F
 -0.333333 -0.083333  0.000000    0.00057870  12 t-inv F
  0.333333 -0.083333  0.000000    0.00057870  12 t-inv F
 -0.333333  0.083333  0.000000    0.00057870  12 t-inv F
 -0.416667 -0.083333  0.000000    0.00057870  13 t-inv F
  0.416667 -0.083333  0.000000    0.00057870  13 t-inv F
 -0.416667  0.083333  0.000000    0.00057870  13 t-inv F
 -0.500000 -0.083333  0.000000    0.00057870  14 t-inv F
  0.000000 -0.166667  0.000000    0.00057870  15 t-inv F
 -0.083333 -0.166667  0.000000    0.00057870  16 t-inv F
  0.083333 -0.166667  0.000000    0.00057870  16 t-inv F
 -0.083333  0.166667  0.000000    0.00057870  16 t-inv F
 -0.166667 -0.166667  0.000000    0.00057870  17 t-inv F
  0.166667 -0.166667  0.000000    0.00057870  17 t-inv F
 -0.166667  0.166667  0.000000    0.00057870  17 t-inv F
 -0.250000 -0.166667  0.000000    0.00057870  18 t-inv F
  0.250000 -0.166667  0.000000    0.00057870  18 t-inv F
 -0.250000  0.166667  0.000000    0.00057870  18 t-inv F
 -0.333333 -0.166667  0.000000    0.00057870  19 t-inv F
  0.333333 -0.166667  0.000000    0.00057870  19 t-inv F
 -0.333333  0.166667  0.000000    0.00057870  19 t-inv F
 -0.416667 -0.166667  0.000000    0.00057870  20 t-inv F
  0.416667 -0.166667  0.000000    0.00057870  20 t-inv F
 -0.416667  0.166667  0.000000    0.00057870  20 t-inv F
 -0.500000 -0.166667  0.000000    0.00057870  21 t-inv F
  0.000000 -0.250000  0.000000    0.00057870  22 t-inv F
 -0.083333 -0.250000  0.000000    0.00057870  23 t-inv F
  0.083333 -0.250000  0.000000    0.00057870  23 t-inv F
 -0.083333  0.250000  0.000000    0.00057870  23 t-inv F
 -0.166667 -0.250000  0.000000    0.00057870  24 t-inv F
  0.166667 -0.250000  0.000000    0.00057870  24 t-inv F
 -0.166667  0.250000  0.000000    0.00057870  24 t-inv F
 -0.250000 -0.250000  0.000000    0.00057870  25 t-inv F
  0.250000 -0.250000  0.000000    0.00057870  25 t-inv F
 -0.250000  0.250000  0.000000    0.00057870  25 t-inv F
 -0.333333 -0.250000  0.000000    0.00057870  26 t-inv F
  0.333333 -0.250000  0.000000    0.00057870  26 t-inv F
 -0.333333  0.250000  0.000000    0.00057870  26 t-inv F
 -0.416667 -0.250000  0.000000    0.00057870  27 t-inv F
  0.416667 -0.250000  0.000000    0.00057870  27 t-inv F
 -0.416667  0.250000  0.000000    0.00057870  27 t-inv F
 -0.500000 -0.250000  0.000000    0.00057870  28 t-inv F
  0.000000 -0.333333  0.000000    0.00057870  29 t-inv F
 -0.083333 -0.333333  0.000000    0.00057870  30 t-inv F
  0.083333 -0.333333  0.000000    0.00057870  30 t-inv F
 -0.083333  0.333333  0.000000    0.00057870  30 t-inv F
 -0.166667 -0.333333  0.000000    0.00057870  31 t-inv F
  0.166667 -0.333333  0.000000    0.00057870  31 t-inv F
 -0.166667  0.333333  0.000000    0.00057870  31 t-inv F
 -0.250000 -0.333333  0.000000    0.00057870  32 t-inv F
  0.250000 -0.333333  0.000000    0.00057870  32 t-inv F
 -0.250000  0.333333  0.000000    0.00057870  32 t-inv F
 -0.333333 -0.333333  0.000000    0.00057870  33 t-inv F
  0.333333 -0.333333  0.000000    0.00057870  33 t-inv F
 -0.333333  0.333333  0.000000    0.00057870  33 t-inv F
 -0.416667 -0.333333  0.000000    0.00057870  34 t-inv F
  0.416667 -0.333333  0.000000    0.00057870  34 t-inv F
 -0.416667  0.333333  0.000000    0.00057870  34 t-inv F
 -0.500000 -0.333333  0.000000    0.00057870  35 t-inv F
  0.000000 -0.416667  0.000000    0.00057870  36 t-inv F
 -0.083333 -0.416667  0.000000    0.00057870  37 t-inv F
  0.083333 -0.416667  0.000000    0.00057870  37 t-inv F
 -0.083333  0.416667  0.000000    0.00057870  37 t-inv F
 -0.166667 -0.416667  0.000000    0.00057870  38 t-inv F
  0.166667 -0.416667  0.000000    0.00057870  38 t-inv F
 -0.166667  0.416667  0.000000    0.00057870  38 t-inv F
 -0.250000 -0.416667  0.000000    0.00057870  39 t-inv F
  0.250000 -0.416667  0.000000    0.00057870  39 t-inv F
 -0.250000  0.416667  0.000000    0.00057870  39 t-inv F
 -0.333333 -0.416667  0.000000    0.00057870  40 t-inv F
  0.333333 -0.416667  0.000000    0.00057870  40 t-inv F
 -0.333333  0.416667  0.000000    0.00057870  40 t-inv F
 -0.416667 -0.416667  0.000000    0.00057870  41 t-inv F
  0.416667 -0.416667  0.000000    0.00057870  41 t-inv F
 -0.416667  0.416667  0.000000    0.00057870  41 t-inv F
 -0.500000 -0.416667  0.000000    0.00057870  42 t-inv F
 -0.083333 -0.500000  0.000000    0.00057870  44 t-inv F
 -0.166667 -0.500000  0.000000    0.00057870  45 t-inv F
 -0.250000 -0.500000  0.000000    0.00057870  46 t-inv F
 -0.333333 -0.500000  0.000000    0.00057870  47 t-inv F
 -0.416667 -0.500000  0.000000    0.00057870  48 t-inv F
 -0.000000 -0.000000 -0.083333    0.00057870  50 t-inv F
 -0.083333 -0.000000 -0.083333    0.00057870  51 t-inv F
  0.083333 -0.000000 -0.083333    0.00057870  51 t-inv F
 -0.083333  0.000000  0.083333    0.00057870  51 t-inv F
 -0.166667 -0.000000 -0.083333    0.00057870  52 t-inv F
  0.166667 -0.000000 -0.083333    0.00057870  52 t-inv F
 -0.166667  0.000000  0.083333    0.00057870  52 t-inv F
 -0.250000  0.000000 -0.083333    0.00057870  53 t-inv F
  0.250000  0.000000 -0.083333    0.00057870  53 t-inv F
 -0.250000 -0.000000  0.083333    0.00057870  53 t-inv F
 -0.333333  0.000000 -0.083333    0.00057870  54 t-inv F
  0.333333  0.000000 -0.083333    0.00057870  54 t-inv F
 -0.333333 -0.000000  0.083333    0.00057870  54 t-inv F
 -0.416667  0.000000 -0.083333    0.00057870  55 t-inv F
  0.416667  0.000000 -0.083333    0.00057870  55 t-inv F
 -0.416667 -0.000000  0.083333    0.00057870  55 t-inv F
 -0.500000 -0.000000 -0.083333    0.00057870  56 t-inv F
 -0.000000 -0.083333 -0.083333    0.00057870  57 t-inv F
 -0.000000 -0.083333  0.083333    0.00057870  57 t-inv F
  0.000000  0.083333 -0.083333    0.00057870  57 t-inv F
 -0.083333 -0.083333 -0.083333    0.00057870  58 t-inv F
  0.083333 -0.083333 -0.083333    0.00057870  58 t-inv F
 -0.083333  0.083333  0.083333    0.00057870  58 t-inv F
 -0.083333 -0.083333  0.083333    0.00057870  58 t-inv F
  0.083333  0.083333 -0.083333    0.00057870  58 t-inv F
 -0.083333  0.083333 -0.083333    0.00057870  58 t-inv F
  0.083333 -0.083333  0.083333    0.00057870  58 t-inv F
 -0.166667 -0.083333 -0.083333    0.00057870  59 t-inv F
  0.166667 -0.083333 -0.083333    0.00057870  59 t-inv F
 -0.166667  0.083333  0.083333    0.00057870  59 t-inv F
 -0.166667 -0.083333  0.083333    0.00057870  59 t-inv F
  0.166667  0.083333 -0.083333    0.00057870  59 t-inv F
 -0.166667  0.083333 -0.083333    0.00057870  59 t-inv F
  0.166667 -0.083333  0.083333    0.00057870  59 t-inv F
 -0.250000 -0.083333 -0.083333    0.00057870  60 t-inv F
  0.250000 -0.083333 -0.083333    0.00057870  60 t-inv F
 -0.250000  0.083333  0.083333    0.00057870  60 t-inv F
 -0.250000 -0.083333  0.083333    0.00057870  60 t-inv F
  0.250000  0.083333 -0.083333    0.00057870  60 t-inv F
 -0.250000  0.083333 -0.083333    0.00057870  60 t-inv F
  0.250000 -0.083333  0.083333    0.00057870  60 t-inv F
 -0.333333 -0.083333 -0.083333    0.00057870  61 t-inv F
  0.333333 -0.083333 -0.083333    0.00057870  61 t-inv F
 -0.333333  0.083333  0.083333    0.00057870  61 t-inv F
 -0.333333 -0.083333  0.083333    0.00057870  61 t-inv F
  0.333333  0.083333 -0.083333    0.00057870  61 t-inv F
 -0.333333  0.083333 -0.083333    0.00057870  61 t-inv F
  0.333333 -0.083333  0.083333    0.00057870  61 t-inv F
 -0.416667 -0.083333 -0.083333    0.00057870  62 t-inv F
  0.416667 -0.083333 -0.083333    0.00057870  62 t-inv F
 -0.416667  0.083333  0.083333    0.00057870  62 t-inv F
 -0.416667 -0.083333  0.083333    0.00057870  62 t-inv F
  0.416667  0.083333 -0.083333    0.00057870  62 t-inv F
 -0.416667  0.083333 -0.083333    0.00057870  62 t-inv F
  0.416667 -0.083333  0.083333    0.00057870  62 t-inv F
 -0.500000 -0.083333 -0.083333    0.00057870  63 t-inv F
 -0.500000 -0.083333  0.083333    0.00057870  63 t-inv F
  0.500000  0.083333 -0.083333    0.00057870  63 t-inv F
 -0.000000 -0.166667 -0.083333    0.00057870  64 t-inv F
 -0.000000 -0.166667  0.083333    0.00057870  64 t-inv F
  0.000000  0.166667 -0.083333    0.00057870  64 t-inv F
 -0.083333 -0.166667 -0.083333    0.00057870  65 t-inv F
  0.083333 -0.166667 -0.083333    0.00057870  65 t-inv F
 -0.083333  0.166667  0.083333    0.00057870  65 t-inv F
 -0.083333 -0.166667  0.083333    0.00057870  65 t-inv F
  0.083333  0.166667 -0.083333    0.00057870  65 t-inv F
 -0.083333  0.166667 -0.083333    0.00057870  65 t-inv F
  0.083333 -0.166667  0.083333    0.00057870  65 t-inv F
 -0.166667 -0.166667 -0.083333    0.00057870  66 t-inv F
  0.166667 -0.166667 -0.083333    0.00057870  66 t-inv F
 -0.166667  0.166667  0.083333    0.00057870  66 t-inv F
 -0.166667 -0.166667  0.083333    0.00057870  66 t-inv F
  0.166667  0.166667 -0.083333    0.00057870  66 t-inv F
 -0.166667  0.166667 -0.083333    0.00057870  66 t-inv F
  0.166667 -0.166667  0.083333    0.00057870  66 t-inv F
 -0.250000 -0.166667 -0.083333    0.00057870  67 t-inv F
  0.250000 -0.166667 -0.083333    0.00057870  67 t-inv F
 -0.250000  0.166667  0.083333    0.00057870  67 t-inv F
 -0.250000 -0.166667  0.083333    0.00057870  67 t-inv F
  0.250000  0.166667 -0.083333    0.00057870  67 t-inv F
 -0.250000  0.166667 -0.083333    0.00057870  67 t-inv F
  0.250000 -0.166667  0.083333    0.00057870  67 t-inv F
 -0.333333 -0.166667 -0.083333    0.00057870  68 t-inv F
  0.333333 -0.166667 -0.083333    0.00057870  68 t-inv F
 -0.333333  0.166667  0.083333    0.00057870  68 t-inv F
 -0.333333 -0.166667  0.083333    0.00057870  68 t-inv F
  0.333333  0.166667 -0.083333    0.00057870  68 t-inv F
 -0.333333  0.166667 -0.083333    0.00057870  68 t-inv F
  0.333333 -0.166667  0.083333    0.00057870  68 t-inv F
 -0.416667 -0.166667 -0.083333    0.00057870  69 t-inv F
  0.416667 -0.166667 -0.083333    0.00057870  69 t-inv F
 -0.416667  0.166667  0.083333    0.00057870  69 t-inv F
 -0.416667 -0.166667  0.083333    0.00057870  69 t-inv F
  0.416667  0.166667 -0.083333    0.00057870  69 t-inv F
 -0.416667  0.166667 -0.083333    0.00057870  69 t-inv F
  0.416667 -0.166667  0.083333    0.00057870  69 t-inv F
 -0.500000 -0.166667 -0.083333    0.00057870  70 t-inv F
 -0.500000 -0.166667  0.083333    0.00057870  70 t-inv F
  0.500000  0.166667 -0.083333    0.00057870  70 t-inv F
 -0.000000 -0.250000 -0.083333    0.00057870  71 t-inv F
 -0.000000 -0.250000  0.083333    0.00057870  71 t-inv F
  0.000000  0.250000 -0.083333    0.00057870  71 t-inv F
 -0.083333 -0.250000 -0.083333    0.00057870  72 t-inv F
  0.083333 -0.250000 -0.083333    0.00057870  72 t-inv F
 -0.083333  0.250000  0.083333    0.00057870  72 t-inv F
 -0.083333 -0.250000  0.083333    0.00057870  72 t-inv F
  0.083333  0.250000 -0.083333    0.00057870  72 t-inv F
 -0.083333  0.250000 -0.083333    0.00057870  72 t-inv F
  0.083333 -0.250000  0.083333    0.00057870  72 t-inv F
 -0.166667 -0.250000 -0.083333    0.00057870  73 t-inv F
  0.166667 -0.250000 -0.083333    0.00057870  73 t-inv F
 -0.166667  0.250000  0.083333    0.00057870  73 t-inv F
 -0.166667 -0.250000  0.083333    0.00057870  73 t-inv F
  0.166667  0.250000 -0.083333    0.00057870  73 t-inv F
 -0.166667  0.250000 -0.083333    0.00057870  73 t-inv F
  0.166667 -0.250000  0.083333    0.00057870  73 t-inv F
 -0.250000 -0.250000 -0.083333    0.00057870  74 t-inv F
  0.250000 -0.250000 -0.083333    0.00057870  74 t-inv F
 -0.250000  0.250000  0.083333    0.00057870  74 t-inv F
 -0.250000 -0.250000  0.083333    0.00057870  74 t-inv F
  0.250000  0.250000 -0.083333    0.00057870  74 t-inv F
 -0.250000  0.250000 -0.083333    0.00057870  74 t-inv F
  0.250000 -0.250000  0.083333    0.00057870  74 t-inv F
 -0.333333 -0.250000 -0.083333    0.00057870  75 t-inv F
  0.333333 -0.250000 -0.083333    0.00057870  75 t-inv F
 -0.333333  0.250000  0.083333    0.00057870  75 t-inv F
 -0.333333 -0.250000  0.083333    0.00057870  75 t-inv F
  0.333333  0.250000 -0.083333    0.00057870  75 t-inv F
 -0.333333  0.250000 -0.083333    0.00057870  75 t-inv F
  0.333333 -0.250000  0.083333    0.00057870  75 t-inv F
 -0.416667 -0.250000 -0.083333    0.00057870  76 t-inv F
  0.416667 -0.250000 -0.083333    0.00057870  76 t-inv F
 -0.416667  0.250000  0.083333    0.00057870  76 t-inv F
 -0.416667 -0.250000  0.083333    0.00057870  76 t-inv F
  0.416667  0.250000 -0.083333    0.00057870  76 t-inv F
 -0.416667  0.250000 -0.083333    0.00057870  76 t-inv F
  0.416667 -0.250000  0.083333    0.00057870  76 t-inv F
 -0.500000 -0.250000 -0.083333    0.00057870  77 t-inv F
 -0.500000 -0.250000  0.083333    0.00057870  77 t-inv F
  0.500000  0.250000 -0.083333    0.00057870  77 t-inv F
 -0.000000 -0.333333 -0.083333    0.00057870  78 t-inv F
 -0.000000 -0.333333  0.083333    0.00057870  78 t-inv F
  0.000000  0.333333 -0.083333    0.00057870  78 t-inv F
 -0.083333 -0.333333 -0.083333    0.00057870  79 t-inv F
  0.083333 -0.333333 -0.083333    0.00057870  79 t-inv F
 -0.083333  0.333333  0.083333    0.00057870  79 t-inv F
 -0.083333 -0.333333  0.083333    0.00057870  79 t-inv F
  0.083333  0.333333 -0.083333    0.00057870  79 t-inv F
 -0.083333  0.333333 -0.083333    0.00057870  79 t-inv F
  0.083333 -0.333333  0.083333    0.00057870  79 t-inv F
 -0.166667 -0.333333 -0.083333    0.00057870  80 t-inv F
  0.166667 -0.333333 -0.083333    0.00057870  80 t-inv F
 -0.166667  0.333333  0.083333    0.00057870  80 t-inv F
 -0.166667 -0.333333  0.083333    0.00057870  80 t-inv F
  0.166667  0.333333 -0.083333    0.00057870  80 t-inv F
 -0.166667  0.333333 -0.083333    0.00057870  80 t-inv F
  0.166667 -0.333333  0.083333    0.00057870  80 t-inv F
 -0.250000 -0.333333 -0.083333    0.00057870  81 t-inv F
  0.250000 -0.333333 -0.083333    0.00057870  81 t-inv F
 -0.250000  0.333333  0.083333    0.00057870  81 t-inv F
 -0.250000 -0.333333  0.083333    0.00057870  81 t-inv F
  0.250000  0.333333 -0.083333    0.00057870  81 t-inv F
 -0.250000  0.333333 -0.083333    0.00057870  81 t-inv F
  0.250000 -0.333333  0.083333    0.00057870  81 t-inv F
 -0.333333 -0.333333 -0.083333    0.00057870  82 t-inv F
  0.333333 -0.333333 -0.083333    0.00057870  82 t-inv F
 -0.333333  0.333333  0.083333    0.00057870  82 t-inv F
 -0.333333 -0.333333  0.083333    0.00057870  82 t-inv F
  0.333333  0.333333 -0.083333    0.00057870  82 t-inv F
 -0.333333  0.333333 -0.083333    0.00057870  82 t-inv F
  0.333333 -0.333333  0.083333    0.00057870  82 t-inv F
 -0.416667 -0.333333 -0.083333    0.00057870  83 t-inv F
  0.416667 -0.333333 -0.083333    0.00057870  83 t-inv F
 -0.416667  0.333333  0.083333    0.00057870  83 t-inv F
 -0.416667 -0.333333  0.083333    0.00057870  83 t-inv F
  0.416667  0.333333 -0.083333    0.00057870  83 t-inv F
 -0.416667  0.333333 -0.083333    0.00057870  83 t-inv F
  0.416667 -0.333333  0.083333    0.00057870  83 t-inv F
 -0.500000 -0.333333 -0.083333    0.00057870  84 t-inv F
 -0.500000 -0.333333  0.083333    0.00057870  84 t-inv F
  0.500000  0.333333 -0.083333    0.00057870  84 t-inv F
 -0.000000 -0.416667 -0.083333    0.00057870  85 t-inv F
 -0.000000 -0.416667  0.083333    0.00057870  85 t-inv F
  0.000000  0.416667 -0.083333    0.00057870  85 t-inv F
 -0.083333 -0.416667 -0.083333    0.00057870  86 t-inv F
  0.083333 -0.416667 -0.083333    0.00057870  86 t-inv F
 -0.083333  0.416667  0.083333    0.00057870  86 t-inv F
 -0.083333 -0.416667  0.083333    0.00057870  86 t-inv F
  0.083333  0.416667 -0.083333    0.00057870  86 t-inv F
 -0.083333  0.416667 -0.083333    0.00057870  86 t-inv F
  0.083333 -0.416667  0.083333    0.00057870  86 t-inv F
 -0.166667 -0.416667 -0.083333    0.00057870  87 t-inv F
  0.166667 -0.416667 -0.083333    0.00057870  87 t-inv F
 -0.166667  0.416667  0.083333    0.00057870  87 t-inv F
 -0.166667 -0.416667  0.083333    0.00057870  87 t-inv F
[...]
     40       6.9848      0.00000
     41       7.7615      0.00000
     42       7.7615      0.00000
     43       7.7615      0.00000
     44       7.7615      0.00000
     45       9.4567      0.00000
     46       9.4567      0.00000
     47       9.4567      0.00000
     48       9.4567      0.00000

 k-point   338 :       0.0833    0.5000    0.5000
  band No.  band energies     occupation 
      1     -16.5060      2.00000
      2     -16.5060      2.00000
      3     -16.5060      2.00000
      4     -16.5060      2.00000
      5     -14.1520      2.00000
      6     -14.1520      2.00000
      7     -14.1520      2.00000
      8     -14.1520      2.00000
      9      -5.7799      2.00000
     10      -5.7799      2.00000
     11      -5.7799      2.00000
     12      -5.7799      2.00000
     13      -4.3376      2.00000
     14      -4.3376      2.00000
     15      -4.3376      2.00000
     16      -4.3376      2.00000
     17      -3.4116      2.00000
     18      -3.4116      2.00000
     19      -3.4116      2.00000
     20      -3.4116      2.00000
     21      -1.7029      2.00000
     22      -1.7029      2.00000
     23      -1.7029      2.00000
     24      -1.7029      2.00000
     25      -1.4360      2.00000
     26      -1.4360      2.00000
     27      -1.4360      2.00000
     28      -1.4360      2.00000
     29       0.6425      0.00000
     30       0.6425      0.00000
     31       0.6425      0.00000
     32       0.6425      0.00000
     33       6.6885      0.00000
     34       6.6885      0.00000
     35       6.6885      0.00000
     36       6.6885      0.00000
     37       7.1950      0.00000
     38       7.1950      0.00000
     39       7.1950      0.00000
     40       7.1950      0.00000
     41       7.7954      0.00000
     42       7.7954      0.00000
     43       7.7954      0.00000
     44       7.7954      0.00000
     45       9.4874      0.00000
     46       9.4874      0.00000
     47       9.4874      0.00000
     48       9.4874      0.00000

 k-point   339 :       0.1667    0.5000    0.5000
  band No.  band energies     occupation 
      1     -16.5060      2.00000
      2     -16.5060      2.00000
      3     -16.5060      2.00000
      4     -16.5060      2.00000
      5     -14.1520      2.00000
      6     -14.1520      2.00000
      7     -14.1520      2.00000
      8     -14.1520      2.00000
      9      -5.7802      2.00000
     10      -5.7802      2.00000
     11      -5.7802      2.00000
     12      -5.7802      2.00000
     13      -4.3432      2.00000
     14      -4.3432      2.00000
     15      -4.3432      2.00000
     16      -4.3432      2.00000
     17      -3.4007      2.00000
     18      -3.4007      2.00000
     19      -3.4007      2.00000
     20      -3.4007      2.00000
     21      -1.7116      2.00000
     22      -1.7116      2.00000
     23      -1.7116      2.00000
     24      -1.7116      2.00000
     25      -1.4298      2.00000
     26      -1.4298      2.00000
     27      -1.4298      2.00000
     28      -1.4298      2.00000
     29       0.6424      0.00000
     30       0.6424      0.00000
     31       0.6424      0.00000
     32       0.6424      0.00000
     33       6.4549      0.00000
     34       6.4549      0.00000
     35       6.4549      0.00000
     36       6.4549      0.00000
     37       7.2979      0.00000
     38       7.2979      0.00000
     39       7.2979      0.00000
     40       7.2979      0.00000
     41       7.9708      0.00000
     42       7.9708      0.00000
     43       7.9708      0.00000
     44       7.9708      0.00000
     45       9.5581      0.00000
     46       9.5581      0.00000
     47       9.5581      0.00000
     48       9.5581      0.00000

 k-point   340 :       0.2500    0.5000    0.5000
  band No.  band energies     occupation 
      1     -16.5060      2.00000
      2     -16.5060      2.00000
      3     -16.5060      2.00000
      4     -16.5060      2.00000
      5     -14.1520      2.00000
      6     -14.1520      2.00000
      7     -14.1520      2.00000
      8     -14.1520      2.00000
      9      -5.7805      2.00000
     10      -5.7805      2.00000
     11      -5.7805      2.00000
     12      -5.7805      2.00000
     13      -4.3506      2.00000
     14      -4.3506      2.00000
     15      -4.3506      2.00000
     16      -4.3506      2.00000
     17      -3.3859      2.00000
     18      -3.3859      2.00000
     19      -3.3859      2.00000
     20      -3.3859      2.00000
     21      -1.7230      2.00000
     22      -1.7230      2.00000
     23      -1.7230      2.00000
     24      -1.7230      2.00000
     25      -1.4219      2.00000
     26      -1.4219      2.00000
     27      -1.4219      2.00000
     28      -1.4219      2.00000
     29       0.6423      0.00000
     30       0.6423      0.00000
     31       0.6423      0.00000
     32       0.6423      0.00000
     33       6.2655      0.00000
     34       6.2655      0.00000
     35       6.2655      0.00000
     36       6.2655      0.00000
     37       7.2659      0.00000
     38       7.2659      0.00000
     39       7.2659      0.00000
     40       7.2659      0.00000
     41       8.2913      0.00000
     42       8.2913      0.00000
     43       8.2913      0.00000
     44       8.2913      0.00000
     45       9.6222      0.00000
     46       9.6222      0.00000
     47       9.6222      0.00000
     48       9.6222      0.00000

 k-point   341 :       0.3333    0.5000    0.5000
  band No.  band energies     occupation 
      1     -16.5059      2.00000
      2     -16.5059      2.00000
      3     -16.5059      2.00000
      4     -16.5059      2.00000
      5     -14.1521      2.00000
      6     -14.1521      2.00000
      7     -14.1521      2.00000
      8     -14.1521      2.00000
      9      -5.7808      2.00000
     10      -5.7808      2.00000
     11      -5.7808      2.00000
     12      -5.7808      2.00000
     13      -4.3579      2.00000
     14      -4.3579      2.00000
     15      -4.3579      2.00000
     16      -4.3579      2.00000
     17      -3.3711      2.00000
     18      -3.3711      2.00000
     19      -3.3711      2.00000
     20      -3.3711      2.00000
     21      -1.7340      2.00000
     22      -1.7340      2.00000
     23      -1.7340      2.00000
     24      -1.7340      2.00000
     25      -1.4146      2.00000
     26      -1.4146      2.00000
     27      -1.4146      2.00000
     28      -1.4146      2.00000
     29       0.6422      0.00000
     30       0.6422      0.00000
     31       0.6422      0.00000
     32       0.6422      0.00000
     33       6.1275      0.00000
     34       6.1275      0.00000
     35       6.1275      0.00000
     36       6.1275      0.00000
     37       7.1992      0.00000
     38       7.1992      0.00000
     39       7.1992      0.00000
     40       7.1992      0.00000
     41       8.6581      0.00000
     42       8.6581      0.00000
     43       8.6581      0.00000
     44       8.6581      0.00000
     45       9.6368      0.00000
     46       9.6368      0.00000
     47       9.6368      0.00000
     48       9.6368      0.00000

 k-point   342 :       0.4167    0.5000    0.5000
  band No.  band energies     occupation 
      1     -16.5059      2.00000
      2     -16.5059      2.00000
      3     -16.5059      2.00000
      4     -16.5059      2.00000
      5     -14.1521      2.00000
      6     -14.1521      2.00000
      7     -14.1521      2.00000
      8     -14.1521      2.00000
      9      -5.7811      2.00000
     10      -5.7811      2.00000
     11      -5.7811      2.00000
     12      -5.7811      2.00000
     13      -4.3631      2.00000
     14      -4.3631      2.00000
     15      -4.3631      2.00000
     16      -4.3631      2.00000
     17      -3.3604      2.00000
     18      -3.3604      2.00000
     19      -3.3604      2.00000
     20      -3.3604      2.00000
     21      -1.7418      2.00000
     22      -1.7418      2.00000
     23      -1.7418      2.00000
     24      -1.7418      2.00000
     25      -1.4095      2.00000
     26      -1.4095      2.00000
     27      -1.4095      2.00000
     28      -1.4095      2.00000
     29       0.6421      0.00000
     30       0.6421      0.00000
     31       0.6421      0.00000
     32       0.6421      0.00000
     33       6.0439      0.00000
     34       6.0439      0.00000
     35       6.0439      0.00000
     36       6.0439      0.00000
     37       7.1466      0.00000
     38       7.1466      0.00000
     39       7.1466      0.00000
     40       7.1466      0.00000
     41       8.9975      0.00000
     42       8.9975      0.00000
     43       8.9975      0.00000
     44       8.9975      0.00000
     45       9.5797      0.00000
     46       9.5797      0.00000
     47       9.5797      0.00000
     48       9.5797      0.00000

 k-point   343 :       0.5000    0.5000    0.5000
  band No.  band energies     occupation 
      1     -16.5059      2.00000
      2     -16.5059      2.00000
      3     -16.5059      2.00000
      4     -16.5059      2.00000
      5     -14.1521      2.00000
      6     -14.1521      2.00000
      7     -14.1521      2.00000
      8     -14.1521      2.00000
      9      -5.7812      2.00000
     10      -5.7812      2.00000
     11      -5.7812      2.00000
     12      -5.7812      2.00000
     13      -4.3650      2.00000
     14      -4.3650      2.00000
     15      -4.3650      2.00000
     16      -4.3650      2.00000
     17      -3.3565      2.00000
     18      -3.3565      2.00000
     19      -3.3565      2.00000
     20      -3.3565      2.00000
     21      -1.7446      2.00000
     22      -1.7446      2.00000
     23      -1.7446      2.00000
     24      -1.7446      2.00000
     25      -1.4077      2.00000
     26      -1.4077      2.00000
     27      -1.4077      2.00000
     28      -1.4077      2.00000
     29       0.6421      0.00000
     30       0.6421      0.00000
     31       0.6421      0.00000
     32       0.6421      0.00000
     33       6.0159      0.00000
     34       6.0159      0.00000
     35       6.0159      0.00000
     36       6.0159      0.00000
     37       7.1274      0.00000
     38       7.1274      0.00000
     39       7.1274      0.00000
     40       7.1274      0.00000
     41       9.1790      0.00000
     42       9.1790      0.00000
     43       9.1790      0.00000
     44       9.1790      0.00000
     45       9.5047      0.00000
     46       9.5047      0.00000
     47       9.5047      0.00000
     48       9.5047      0.00000


--------------------------------------------------------------------------------------------------------


 soft charge-density along one line, spin component           1
         0         1         2         3         4         5         6         7         8         9
 total charge-density along one line
 
 pseudopotential strength for first ion, spin component:           1
 36.482  37.905   0.034   0.047   0.000   0.044   0.062   0.000
 37.905  39.387   0.035   0.049   0.000   0.046   0.064  -0.000
  0.034   0.035   8.344   0.017  -0.000  10.787   0.022  -0.000
  0.047   0.049   0.017   8.371   0.000   0.022  10.822   0.000
  0.000   0.000  -0.000   0.000   8.329  -0.000   0.000  10.768
  0.044   0.046  10.787   0.022  -0.000  13.969   0.028  -0.000
  0.062   0.064   0.022  10.822   0.000   0.028  14.012   0.000
  0.000  -0.000  -0.000   0.000  10.768  -0.000   0.000  13.943
 -0.000  -0.000  -0.000   0.000   0.008  -0.000   0.000   0.010
  0.027   0.028   0.012   0.008   0.000   0.015   0.010   0.000
  0.031   0.033  -0.005   0.013   0.000  -0.006   0.017   0.000
  0.000   0.000   0.000   0.000   0.012   0.000  -0.000   0.015
 -0.012  -0.013  -0.008   0.000   0.000  -0.010   0.000  -0.000
 total augmentation occupancy for first ion, spin component:           1
  9.039  -6.464  -1.415  -2.299  -0.000   0.416   0.820   0.000   0.000  -0.257  -0.257  -0.000   0.085
 -6.464   5.935   1.287   2.102   0.000  -0.394  -0.777  -0.000  -0.000   0.257   0.262   0.000  -0.088
 -1.415   1.287   2.224   0.224   0.000  -0.260  -0.259  -0.000   0.000   0.073   0.038   0.000  -0.038
 -2.299   2.102   0.224   2.577   0.000  -0.260  -0.665  -0.000  -0.000   0.123   0.141   0.000  -0.017
 -0.000   0.000   0.000   0.000   2.080  -0.000  -0.000  -0.065   0.024   0.000   0.000   0.038  -0.000
  0.416  -0.394  -0.260  -0.260  -0.000   0.105   0.092   0.000  -0.000  -0.026  -0.011  -0.000   0.011
  0.820  -0.777  -0.259  -0.665  -0.000   0.092   0.246   0.000   0.000  -0.041  -0.048  -0.000   0.007
  0.000  -0.000  -0.000  -0.000  -0.065   0.000   0.000   0.046  -0.009  -0.000  -0.000  -0.016   0.000
  0.000  -0.000   0.000  -0.000   0.024  -0.000   0.000  -0.009   0.002   0.000  -0.000   0.004  -0.000
 -0.257   0.257   0.073   0.123   0.000  -0.026  -0.041  -0.000   0.000   0.020   0.009   0.000  -0.006
 -0.257   0.262   0.038   0.141   0.000  -0.011  -0.048  -0.000  -0.000   0.009   0.018   0.000  -0.001
 -0.000   0.000   0.000   0.000   0.038  -0.000  -0.000  -0.016   0.004   0.000   0.000   0.008  -0.000
  0.085  -0.088  -0.038  -0.017  -0.000   0.011   0.007   0.000  -0.000  -0.006  -0.001  -0.000   0.003


------------------------ aborting loop because EDIFF is reached ----------------------------------------


    CHARGE:  cpu time      0.0638: real time      0.0637
    FORLOC:  cpu time      0.0003: real time      0.0003
    FORNL :  cpu time      0.8203: real time      0.8202
    STRESS:  cpu time      4.1373: real time      4.1365
    FORCOR:  cpu time      0.0041: real time      0.0042
    FORHAR:  cpu time      0.0010: real time      0.0011
    MIXING:  cpu time      0.0006: real time      0.0006
    OFIELD:  cpu time      0.0000: real time      0.0000

  FORCE on cell =-STRESS in cart. coord.  units (eV):
  Direction    XX          YY          ZZ          XY          YZ          ZX
  --------------------------------------------------------------------------------------
  Alpha Z    92.95148    92.95148    92.95148
  Ewald   -1299.33291  -657.47155  -261.92297     0.00000    -0.00000    -0.00000
  Hartree   -77.43465   263.81743   399.52758    -0.00000    -0.00000    -0.00000
  E(xc)    -209.42941  -207.08631  -204.12926     0.00000     0.00000    -0.00000
  Local     287.24702  -642.12227 -1082.22761    -0.00000     0.00000    -0.00000
  n-local   410.33075   402.59288   389.52522    -0.05120    -0.81612    -0.01050
  augment   -55.27978   -50.11503   -41.19424     0.00000     0.00000    -0.00000
  Kinetic   851.09404   797.58092   707.56383    -0.35292    -1.23014    -0.02510
  Fock        0.00000     0.00000     0.00000     0.00000     0.00000     0.00000
  -------------------------------------------------------------------------------------
  Total       0.14656     0.14756     0.09403     0.00000     0.00000     0.00000
  in kB       0.74730     0.75240     0.47945     0.00000     0.00000     0.00000
  external pressure =        0.66 kB  Pullay stress =        0.00 kB


 VOLUME and BASIS-vectors are now :
 -----------------------------------------------------------------------------
  energy-cutoff  :      281.17
  volume of cell :      314.22
      direct lattice vectors                 reciprocal lattice vectors
     8.228600000  0.000000000  0.000000000     0.121527356 -0.000000000  0.000000000
     0.000000000  4.227310000  0.000000000     0.000000000  0.236557054  0.000000000
     0.000000000  0.000000000  9.033230000    -0.000000000 -0.000000000  0.110702373

  length of vectors
     8.228600000  4.227310000  9.033230000     0.121527356  0.236557054  0.110702373


 FORCES acting on ions
    electron-ion (+dipol)            ewald-force                    non-local-force                 convergence-correction
 -----------------------------------------------------------------------------------------------
   0.299E-13 0.250E+02 0.384E+02   -.523E-14 -.272E+02 -.411E+02   0.333E-15 0.201E+01 0.256E+01   -.254E-14 -.919E-03 -.112E-02
   -.134E-13 -.250E+02 0.384E+02   -.298E-14 0.272E+02 -.411E+02   -.333E-15 -.201E+01 0.256E+01   -.469E-14 0.919E-03 -.112E-02
   0.406E-13 0.250E+02 -.384E+02   -.502E-14 -.272E+02 0.411E+02   0.332E-15 0.201E+01 -.256E+01   -.706E-14 -.919E-03 0.112E-02
   -.200E-14 -.250E+02 -.384E+02   -.140E-14 0.272E+02 0.411E+02   -.332E-15 -.201E+01 -.256E+01   -.615E-14 0.919E-03 0.112E-02
   0.542E-13 0.250E+02 0.384E+02   0.645E-15 -.272E+02 -.411E+02   0.333E-15 0.201E+01 0.256E+01   0.320E-14 -.919E-03 -.112E-02
   0.139E-13 -.250E+02 0.384E+02   0.596E-14 0.272E+02 -.411E+02   -.333E-15 -.201E+01 0.256E+01   0.478E-14 0.919E-03 -.112E-02
   0.690E-13 0.250E+02 -.384E+02   0.213E-14 -.272E+02 0.411E+02   0.333E-15 0.201E+01 -.256E+01   0.230E-14 -.919E-03 0.112E-02
   0.277E-13 -.250E+02 -.384E+02   0.594E-14 0.272E+02 0.411E+02   -.333E-15 -.201E+01 -.256E+01   0.112E-14 0.919E-03 0.112E-02
 -----------------------------------------------------------------------------------------------
   0.220E-12 0.161E-09 -.514E-10   0.518E-16 -.355E-14 0.142E-13   0.109E-21 0.444E-15 -.888E-15   -.903E-14 -.406E-13 -.382E-13
 
 
 POSITION                                       TOTAL-FORCE (eV/Angst)
 -----------------------------------------------------------------------------------
      0.00000      1.58837      7.97490        -0.000000     -0.106946     -0.141855
      0.00000      0.52529      3.45828         0.000000      0.106946     -0.141855
      0.00000      3.70202      5.57495        -0.000000     -0.106946      0.141855
      0.00000      2.63894      1.05833         0.000000      0.106946      0.141855
      4.11430      3.70202      7.97490        -0.000000     -0.106946     -0.141855
      4.11430      2.63894      3.45828         0.000000      0.106946     -0.141855
      4.11430      1.58837      5.57495        -0.000000     -0.106946      0.141855
      4.11430      0.52529      1.05833         0.000000      0.106946      0.141855
 -----------------------------------------------------------------------------------
    total drift:                                0.000000      0.000000     -0.000000


--------------------------------------------------------------------------------------------------------



  FREE ENERGIE OF THE ION-ELECTRON SYSTEM (eV)
  ---------------------------------------------------
  free  energy   TOTEN  =       -13.02766392 eV

  energy  without entropy=      -13.02766392  energy(sigma->0) =      -13.02766392
 


--------------------------------------------------------------------------------------------------------


    POTLOK:  cpu time      0.0066: real time      0.0066


--------------------------------------------------------------------------------------------------------


 writing wavefunctions
     LOOP+:  cpu time     54.5313: real time     54.5471
    4ORBIT:  cpu time      0.0000: real time      0.0000

 total amount of memory used by VASP MPI-rank0   173193. kBytes
=======================================================================

   base      :      30000. kBytes
   nonl-proj :     122006. kBytes
   fftplans  :        302. kBytes
   grid      :       1328. kBytes
   one-center:         64. kBytes
   wavefun   :      19493. kBytes
 
  
  
 General timing and accounting informations for this job:
 ========================================================
  
                  Total CPU time used (sec):       58.255
                            User time (sec):       57.128
                          System time (sec):        1.128
                         Elapsed time (sec):       58.683
  
                   Maximum memory used (kb):      613352.
                   Average memory used (kb):          N/A
  
                          Minor page faults:        32335
                          Major page faults:            0
                 Voluntary context switches:         4793
