Br                                      
           1
     8.228600    0.000000    0.000000
     0.000000    4.227310    0.000000
     0.000000    0.000000    9.033230
   Br
     8
Direct configuration=     1
   0.00000000  0.37574000  0.88284000
   0.00000000  0.12426000  0.38284000
   0.00000000  0.87574000  0.61716000
   0.00000000  0.62426000  0.11716000
   0.50000000  0.87574000  0.88284000
   0.50000000  0.62426000  0.38284000
   0.50000000  0.37574000  0.61716000
   0.50000000  0.12426000  0.11716000
