   8   8   0   0
  0.2964981E+02  0.6190190E-09  0.6190190E-09  0.6190190E-09  0.5000000E-15
  1.000000000000000E-004
  CAR 
 N                                       
     13.94771807    -27.44354875  301     -7.14458165      1.00000000
    -27.444  0.0000E+00  0.0000E+00
    -27.306  0.0000E+00  0.0000E+00
    -27.168  0.0000E+00  0.0000E+00
    -27.030  0.0000E+00  0.0000E+00
    -26.892  0.0000E+00  0.0000E+00
    -26.754  0.0000E+00  0.0000E+00
    -26.616  0.0000E+00  0.0000E+00
    -26.478  0.0000E+00  0.0000E+00
    -26.340  0.0000E+00  0.0000E+00
    -26.202  0.0000E+00  0.0000E+00
    -26.064  0.0000E+00  0.0000E+00
    -25.926  0.0000E+00  0.0000E+00
    -25.788  0.4684E-09  0.6462E-10
    -25.650  0.1178E+00  0.1626E-01
    -25.512  0.4867E+02  0.6731E+01
    -25.374  0.9196E+01  0.8000E+01
    -25.236  0.3039E-04  0.8000E+01
    -25.098  0.0000E+00  0.8000E+01
    -24.960  0.0000E+00  0.8000E+01
    -24.822  0.0000E+00  0.8000E+01
    -24.684  0.0000E+00  0.8000E+01
    -24.546  0.0000E+00  0.8000E+01
    -24.408  0.0000E+00  0.8000E+01
    -24.270  0.0000E+00  0.8000E+01
    -24.132  0.0000E+00  0.8000E+01
    -23.994  0.0000E+00  0.8000E+01
    -23.856  0.0000E+00  0.8000E+01
    -23.718  0.0000E+00  0.8000E+01
    -23.580  0.0000E+00  0.8000E+01
    -23.442  0.0000E+00  0.8000E+01
    -23.304  0.0000E+00  0.8000E+01
    -23.166  0.0000E+00  0.8000E+01
    -23.028  0.0000E+00  0.8000E+01
    -22.891  0.0000E+00  0.8000E+01
    -22.753  0.0000E+00  0.8000E+01
    -22.615  0.0000E+00  0.8000E+01
    -22.477  0.0000E+00  0.8000E+01
    -22.339  0.0000E+00  0.8000E+01
    -22.201  0.0000E+00  0.8000E+01
    -22.063  0.0000E+00  0.8000E+01
    -21.925  0.0000E+00  0.8000E+01
    -21.787  0.0000E+00  0.8000E+01
    -21.649  0.0000E+00  0.8000E+01
    -21.511  0.0000E+00  0.8000E+01
    -21.373  0.0000E+00  0.8000E+01
    -21.235  0.0000E+00  0.8000E+01
    -21.097  0.0000E+00  0.8000E+01
    -20.959  0.0000E+00  0.8000E+01
    -20.821  0.0000E+00  0.8000E+01
    -20.683  0.0000E+00  0.8000E+01
    -20.545  0.0000E+00  0.8000E+01
    -20.407  0.0000E+00  0.8000E+01
    -20.269  0.0000E+00  0.8000E+01
    -20.131  0.0000E+00  0.8000E+01
    -19.993  0.0000E+00  0.8000E+01
    -19.855  0.0000E+00  0.8000E+01
    -19.717  0.0000E+00  0.8000E+01
    -19.579  0.0000E+00  0.8000E+01
    -19.441  0.0000E+00  0.8000E+01
    -19.303  0.0000E+00  0.8000E+01
    -19.165  0.0000E+00  0.8000E+01
    -19.027  0.0000E+00  0.8000E+01
    -18.889  0.0000E+00  0.8000E+01
    -18.751  0.0000E+00  0.8000E+01
    -18.613  0.0000E+00  0.8000E+01
    -18.475  0.0000E+00  0.8000E+01
    -18.337  0.0000E+00  0.8000E+01
    -18.199  0.0000E+00  0.8000E+01
    -18.062  0.0000E+00  0.8000E+01
    -17.924  0.0000E+00  0.8000E+01
    -17.786  0.0000E+00  0.8000E+01
    -17.648  0.0000E+00  0.8000E+01
    -17.510  0.0000E+00  0.8000E+01
    -17.372  0.0000E+00  0.8000E+01
    -17.234  0.0000E+00  0.8000E+01
    -17.096  0.0000E+00  0.8000E+01
    -16.958  0.0000E+00  0.8000E+01
    -16.820  0.0000E+00  0.8000E+01
    -16.682  0.0000E+00  0.8000E+01
    -16.544  0.0000E+00  0.8000E+01
    -16.406  0.0000E+00  0.8000E+01
    -16.268  0.0000E+00  0.8000E+01
    -16.130  0.0000E+00  0.8000E+01
    -15.992  0.0000E+00  0.8000E+01
    -15.854  0.0000E+00  0.8000E+01
    -15.716  0.0000E+00  0.8000E+01
    -15.578  0.0000E+00  0.8000E+01
    -15.440  0.0000E+00  0.8000E+01
    -15.302  0.0000E+00  0.8000E+01
    -15.164  0.0000E+00  0.8000E+01
    -15.026  0.0000E+00  0.8000E+01
    -14.888  0.0000E+00  0.8000E+01
    -14.750  0.0000E+00  0.8000E+01
    -14.612  0.0000E+00  0.8000E+01
    -14.474  0.0000E+00  0.8000E+01
    -14.336  0.0000E+00  0.8000E+01
    -14.198  0.0000E+00  0.8000E+01
    -14.060  0.0000E+00  0.8000E+01
    -13.922  0.0000E+00  0.8000E+01
    -13.784  0.0000E+00  0.8000E+01
    -13.646  0.0000E+00  0.8000E+01
    -13.508  0.0000E+00  0.8000E+01
    -13.371  0.0000E+00  0.8000E+01
    -13.233  0.0000E+00  0.8000E+01
    -13.095  0.0000E+00  0.8000E+01
    -12.957  0.0000E+00  0.8000E+01
    -12.819  0.0000E+00  0.8000E+01
    -12.681  0.0000E+00  0.8000E+01
    -12.543  0.0000E+00  0.8000E+01
    -12.405  0.0000E+00  0.8000E+01
    -12.267  0.0000E+00  0.8000E+01
    -12.129  0.0000E+00  0.8000E+01
    -11.991  0.0000E+00  0.8000E+01
    -11.853  0.0000E+00  0.8000E+01
    -11.715  0.0000E+00  0.8000E+01
    -11.577  0.0000E+00  0.8000E+01
    -11.439  0.0000E+00  0.8000E+01
    -11.301  0.0000E+00  0.8000E+01
    -11.163  0.1478E-08  0.8000E+01
    -11.025  0.1828E+00  0.8025E+01
    -10.887  0.4825E+02  0.1468E+02
    -10.749  0.9551E+01  0.1600E+02
    -10.611  0.2497E-03  0.1600E+02
    -10.473  0.0000E+00  0.1600E+02
    -10.335  0.0000E+00  0.1600E+02
    -10.197  0.0000E+00  0.1600E+02
    -10.059  0.0000E+00  0.1600E+02
     -9.921  0.0000E+00  0.1600E+02
     -9.783  0.0000E+00  0.1600E+02
     -9.645  0.0000E+00  0.1600E+02
     -9.507  0.0000E+00  0.1600E+02
     -9.369  0.0000E+00  0.1600E+02
     -9.231  0.1013E-08  0.1600E+02
     -9.093  0.9056E-01  0.1601E+02
     -8.955  0.3694E+02  0.2111E+02
     -8.817  0.6246E+02  0.2973E+02
     -8.680  0.1647E+02  0.3200E+02
     -8.542  0.1393E-02  0.3200E+02
     -8.404  0.4014E-13  0.3200E+02
     -8.266  0.0000E+00  0.3200E+02
     -8.128  0.1598E-09  0.3200E+02
     -7.990  0.2573E-02  0.3200E+02
     -7.852  0.7397E+00  0.3210E+02
     -7.714  0.3846E+01  0.3263E+02
     -7.576  0.1233E+02  0.3433E+02
     -7.438  0.3485E+02  0.3914E+02
     -7.300  0.6214E+01  0.4000E+02
     -7.162  0.2121E-03  0.4000E+02
     -7.024  0.0000E+00  0.4000E+02
     -6.886  0.0000E+00  0.4000E+02
     -6.748  0.0000E+00  0.4000E+02
     -6.610  0.0000E+00  0.4000E+02
     -6.472  0.0000E+00  0.4000E+02
     -6.334  0.0000E+00  0.4000E+02
     -6.196  0.0000E+00  0.4000E+02
     -6.058  0.0000E+00  0.4000E+02
     -5.920  0.0000E+00  0.4000E+02
     -5.782  0.0000E+00  0.4000E+02
     -5.644  0.0000E+00  0.4000E+02
     -5.506  0.0000E+00  0.4000E+02
     -5.368  0.0000E+00  0.4000E+02
     -5.230  0.0000E+00  0.4000E+02
     -5.092  0.0000E+00  0.4000E+02
     -4.954  0.0000E+00  0.4000E+02
     -4.816  0.0000E+00  0.4000E+02
     -4.678  0.0000E+00  0.4000E+02
     -4.540  0.0000E+00  0.4000E+02
     -4.402  0.0000E+00  0.4000E+02
     -4.264  0.0000E+00  0.4000E+02
     -4.126  0.0000E+00  0.4000E+02
     -3.988  0.0000E+00  0.4000E+02
     -3.851  0.0000E+00  0.4000E+02
     -3.713  0.0000E+00  0.4000E+02
     -3.575  0.0000E+00  0.4000E+02
     -3.437  0.0000E+00  0.4000E+02
     -3.299  0.0000E+00  0.4000E+02
     -3.161  0.0000E+00  0.4000E+02
     -3.023  0.0000E+00  0.4000E+02
     -2.885  0.0000E+00  0.4000E+02
     -2.747  0.0000E+00  0.4000E+02
     -2.609  0.0000E+00  0.4000E+02
     -2.471  0.0000E+00  0.4000E+02
     -2.333  0.0000E+00  0.4000E+02
     -2.195  0.0000E+00  0.4000E+02
     -2.057  0.0000E+00  0.4000E+02
     -1.919  0.0000E+00  0.4000E+02
     -1.781  0.0000E+00  0.4000E+02
     -1.643  0.0000E+00  0.4000E+02
     -1.505  0.0000E+00  0.4000E+02
     -1.367  0.0000E+00  0.4000E+02
     -1.229  0.0000E+00  0.4000E+02
     -1.091  0.0000E+00  0.4000E+02
     -0.953  0.0000E+00  0.4000E+02
     -0.815  0.0000E+00  0.4000E+02
     -0.677  0.0000E+00  0.4000E+02
     -0.539  0.0000E+00  0.4000E+02
     -0.401  0.0000E+00  0.4000E+02
     -0.263  0.0000E+00  0.4000E+02
     -0.125  0.6057E-09  0.4000E+02
      0.013  0.1062E-01  0.4000E+02
      0.151  0.3069E+01  0.4042E+02
      0.289  0.1447E+02  0.4242E+02
      0.427  0.1845E+02  0.4497E+02
      0.565  0.3684E+02  0.5005E+02
      0.703  0.3763E+02  0.5524E+02
      0.840  0.5485E+01  0.5600E+02
      0.978  0.1898E-01  0.5600E+02
      1.116  0.1138E-08  0.5600E+02
      1.254  0.0000E+00  0.5600E+02
      1.392  0.0000E+00  0.5600E+02
      1.530  0.0000E+00  0.5600E+02
      1.668  0.0000E+00  0.5600E+02
      1.806  0.0000E+00  0.5600E+02
      1.944  0.0000E+00  0.5600E+02
      2.082  0.0000E+00  0.5600E+02
      2.220  0.0000E+00  0.5600E+02
      2.358  0.0000E+00  0.5600E+02
      2.496  0.7546E-12  0.5600E+02
      2.634  0.1820E-03  0.5600E+02
      2.772  0.2575E+00  0.5604E+02
      2.910  0.1254E+01  0.5621E+02
      3.048  0.1746E+01  0.5645E+02
      3.186  0.1960E+01  0.5672E+02
      3.324  0.2306E+01  0.5704E+02
      3.462  0.2561E+01  0.5739E+02
      3.600  0.2507E+01  0.5774E+02
      3.738  0.2993E+01  0.5815E+02
      3.876  0.3214E+01  0.5859E+02
      4.014  0.3276E+01  0.5905E+02
      4.152  0.3956E+01  0.5959E+02
      4.290  0.3926E+01  0.6013E+02
      4.428  0.4562E+01  0.6076E+02
      4.566  0.4089E+01  0.6133E+02
      4.704  0.3268E+01  0.6178E+02
      4.842  0.3752E+01  0.6230E+02
      4.980  0.2782E+01  0.6268E+02
      5.118  0.2828E+01  0.6307E+02
      5.256  0.2544E+01  0.6342E+02
      5.394  0.3903E+01  0.6396E+02
      5.531  0.4357E+01  0.6456E+02
      5.669  0.5191E+01  0.6528E+02
      5.807  0.5604E+01  0.6605E+02
      5.945  0.5011E+01  0.6674E+02
      6.083  0.4916E+01  0.6742E+02
      6.221  0.4831E+01  0.6809E+02
      6.359  0.5185E+01  0.6880E+02
      6.497  0.5598E+01  0.6957E+02
      6.635  0.5426E+01  0.7032E+02
      6.773  0.7071E+01  0.7130E+02
      6.911  0.5801E+01  0.7210E+02
      7.049  0.3364E+01  0.7256E+02
      7.187  0.3883E+01  0.7310E+02
      7.325  0.5535E+01  0.7386E+02
      7.463  0.4215E+01  0.7444E+02
      7.601  0.3540E+01  0.7493E+02
      7.739  0.4150E+01  0.7550E+02
      7.877  0.3632E+01  0.7601E+02
      8.015  0.2959E+01  0.7641E+02
      8.153  0.3396E+01  0.7688E+02
      8.291  0.3158E+01  0.7732E+02
      8.429  0.3715E+01  0.7783E+02
      8.567  0.4039E+01  0.7839E+02
      8.705  0.5084E+01  0.7909E+02
      8.843  0.5055E+01  0.7979E+02
      8.981  0.4961E+01  0.8047E+02
      9.119  0.5494E+01  0.8123E+02
      9.257  0.6893E+01  0.8218E+02
      9.395  0.7155E+01  0.8317E+02
      9.533  0.7899E+01  0.8426E+02
      9.671  0.7289E+01  0.8526E+02
      9.809  0.6143E+01  0.8611E+02
      9.947  0.8413E+01  0.8727E+02
     10.085  0.7002E+01  0.8824E+02
     10.223  0.6180E+01  0.8909E+02
     10.360  0.4224E+01  0.8967E+02
     10.498  0.5214E+01  0.9039E+02
     10.636  0.4676E+01  0.9104E+02
     10.774  0.4277E+01  0.9163E+02
     10.912  0.4571E+01  0.9226E+02
     11.050  0.3286E+01  0.9271E+02
     11.188  0.4354E+01  0.9331E+02
     11.326  0.5579E+01  0.9408E+02
     11.464  0.3836E+01  0.9461E+02
     11.602  0.3929E+01  0.9515E+02
     11.740  0.3033E+01  0.9557E+02
     11.878  0.2303E+01  0.9589E+02
     12.016  0.5948E+00  0.9597E+02
     12.154  0.2088E+00  0.9600E+02
     12.292  0.6694E-03  0.9600E+02
     12.430  0.8584E-11  0.9600E+02
     12.568  0.0000E+00  0.9600E+02
     12.706  0.0000E+00  0.9600E+02
     12.844  0.0000E+00  0.9600E+02
     12.982  0.0000E+00  0.9600E+02
     13.120  0.0000E+00  0.9600E+02
     13.258  0.0000E+00  0.9600E+02
     13.396  0.0000E+00  0.9600E+02
     13.534  0.0000E+00  0.9600E+02
     13.672  0.0000E+00  0.9600E+02
     13.810  0.0000E+00  0.9600E+02
     13.948  0.0000E+00  0.9600E+02
