K                                       
   1.00000000000000     
     5.285890    0.000000    0.000000
     0.000000    5.285890    0.000000
     0.000000    0.000000    5.285890
   K 
     2
Direct
  0.000000  0.000000  0.000000
  0.500000  0.500000  0.500000
 
   48   48   48
  705.35      696.52      666.79      609.69      522.74      413.14      297.25      193.80      115.61      65.224    
  36.520      20.594      12.012      7.4969      5.0849      3.7514      3.0245      2.6625      2.4873      2.3876    
  2.3352      2.3232      2.3176      2.2958      2.2812      2.2958      2.3176      2.3232      2.3352      2.3876    
  2.4873      2.6625      3.0245      3.7514      5.0849      7.4969      12.012      20.594      36.520      65.224    
  115.61      193.80      297.25      413.14      522.74      609.69      666.79      696.52      696.52      687.11    
  656.00      597.56      510.22      401.64      287.98      187.32      111.69      63.151      35.487      20.078    
  11.762      7.3747      5.0232      3.7204      3.0097      2.6554      2.4838      2.3863      2.3349      2.3228    
  2.3170      2.2957      2.2815      2.2957      2.3170      2.3228      2.3349      2.3863      2.4838      2.6554    
  3.0097      3.7204      5.0232      7.3747      11.762      20.078      35.487      63.151      111.69      187.32    
  287.98      401.64      510.22      597.56      656.00      687.11      666.79      656.00      621.67      560.41    
  473.00      368.19      261.51      169.06      100.76      57.386      32.585      18.626      11.056      7.0272    
  4.8469      3.6313      2.9670      2.6351      2.4738      2.3825      2.3344      2.3218      2.3152      2.2956    
  2.2828      2.2956      2.3152      2.3218      2.3344      2.3825      2.4738      2.6351      2.9670      3.6313    
  4.8469      7.0272      11.056      18.626      32.585      57.386      100.76      169.06      261.51      368.19    
  473.00      560.41      621.67      656.00      609.69      597.56      560.41      497.75      413.16      316.46    
  221.79      142.30      85.012      49.125      28.346      16.496      10.010      6.5056      4.5792      3.4957    
  2.9021      2.6042      2.4587      2.3770      2.3337      2.3205      2.3128      2.2957      2.2850      2.2957    
  2.3128      2.3205      2.3337      2.3770      2.4587      2.6042      2.9021      3.4957      4.5792      6.5056    
  10.010      16.496      28.346      49.125      85.012      142.30      221.79      316.46      413.16      497.75    
  560.41      597.56      522.74      510.22      473.00      413.16      336.52      253.14      174.98      111.73    
  67.398      39.854      23.475      14.028      8.7776      5.8791      4.2532      3.3294      2.8225      2.5666    
  2.4405      2.3706      2.3330      2.3190      2.3103      2.2963      2.2882      2.2963      2.3103      2.3190    
  2.3330      2.3706      2.4405      2.5666      2.8225      3.3294      4.2532      5.8791      8.7776      14.028    
  23.475      39.854      67.398      111.73      174.98      253.14      336.52      413.16      473.00      510.22    
  413.14      401.64      368.19      316.46      253.14      187.36      128.30      82.225      50.670      30.816    
  18.649      11.547      7.5099      5.2188      3.9041      3.1504      2.7367      2.5263      2.4215      2.3639    
  2.3323      2.3178      2.3084      2.2978      2.2923      2.2978      2.3084      2.3178      2.3323      2.3639    
  2.4215      2.5263      2.7367      3.1504      3.9041      5.2188      7.5099      11.547      18.649      30.816    
  50.670      82.225      128.30      187.36      253.14      316.46      368.19      401.64      297.25      287.98    
  261.51      221.79      174.98      128.30      87.967      57.417      36.542      22.874      14.364      9.2936    
  6.3239      4.5843      3.5636      2.9751      2.6525      2.4871      2.4034      2.3574      2.3311      2.3168    
  2.3076      2.3001      2.2968      2.3001      2.3076      2.3168      2.3311      2.3574      2.4034      2.4871    
  2.6525      2.9751      3.5636      4.5843      6.3239      9.2936      14.364      22.874      36.542      57.417    
  87.967      128.30      174.98      221.79      261.51      287.98      193.80      187.32      169.06      142.30    
  111.73      82.225      57.417      38.722      25.438      16.521      10.868      7.3980      5.2916      4.0173    
  3.2560      2.8165      2.5764      2.4519      2.3874      2.3513      2.3294      2.3161      2.3079      2.3030    
  2.3013      2.3030      2.3079      2.3161      2.3294      2.3513      2.3874      2.4519      2.5764      2.8165    
  3.2560      4.0173      5.2916      7.3980      10.868      16.521      25.438      38.722      57.417      82.225    
  111.73      142.30      169.06      187.32      115.61      111.69      100.76      85.012      67.398      50.670    
  36.542      25.438      17.335      11.805      8.1944      5.8933      4.4432      3.5416      2.9968      2.6831    
  2.5123      2.4225      2.3740      2.3455      2.3272      2.3155      2.3090      2.3062      2.3056      2.3062    
  2.3090      2.3155      2.3272      2.3455      2.3740      2.4225      2.5123      2.6831      2.9968      3.5416    
  4.4432      5.8933      8.1944      11.805      17.335      25.438      36.542      50.670      67.398      85.012    
  100.76      111.69      65.224      63.151      57.386      49.125      39.854      30.816      22.874      16.521    
  11.805      8.4903      6.2426      4.7512      3.7801      3.1649      2.7921      2.5785      2.4622      2.3993    
  2.3632      2.3403      2.3248      2.3152      2.3105      2.3093      2.3092      2.3093      2.3105      2.3152    
  2.3248      2.3403      2.3632      2.3993      2.4622      2.5785      2.7921      3.1649      3.7801      4.7512    
  6.2426      8.4903      11.805      16.521      22.874      30.816      39.854      49.125      57.386      63.151    
  36.520      35.487      32.585      28.346      23.475      18.649      14.364      10.868      8.1944      6.2426    
  4.8641      3.9168      3.2861      2.8836      2.6404      2.5016      2.4251      2.3818      2.3545      2.3357    
  2.3227      2.3150      2.3120      2.3118      2.3121      2.3118      2.3120      2.3150      2.3227      2.3357    
  2.3545      2.3818      2.4251      2.5016      2.6404      2.8836      3.2861      3.9168      4.8641      6.2426    
  8.1944      10.868      14.364      18.649      23.475      28.346      32.585      35.487      20.594      20.078    
  18.626      16.496      14.028      11.547      9.2936      7.3980      5.8933      4.7512      3.9168      3.3304    
  2.9363      2.6854      2.5345      2.4480      2.3986      2.3684      2.3473      2.3317      2.3209      2.3150    
  2.3132      2.3135      2.3139      2.3135      2.3132      2.3150      2.3209      2.3317      2.3473      2.3684    
  2.3986      2.4480      2.5345      2.6854      2.9363      3.3304      3.9168      4.7512      5.8933      7.3980    
  9.2936      11.547      14.028      16.496      18.626      20.078      12.012      11.762      11.056      10.010    
  8.7776      7.5099      6.3239      5.2916      4.4432      3.7801      3.2861      2.9363      2.7020      2.5536    
  2.4642      2.4115      2.3793      2.3575      2.3409      2.3283      2.3196      2.3151      2.3138      2.3141    
  2.3145      2.3141      2.3138      2.3151      2.3196      2.3283      2.3409      2.3575      2.3793      2.4115    
  2.4642      2.5536      2.7020      2.9363      3.2861      3.7801      4.4432      5.2916      6.3239      7.5099    
  8.7776      10.010      11.056      11.762      7.4969      7.3747      7.0272      6.5056      5.8791      5.2188    
  4.5843      4.0173      3.5416      3.1649      2.8836      2.6854      2.5536      2.4701      2.4185      2.3861    
  2.3641      2.3477      2.3349      2.3251      2.3184      2.3149      2.3137      2.3137      2.3139      2.3137    
  2.3137      2.3149      2.3184      2.3251      2.3349      2.3477      2.3641      2.3861      2.4185      2.4701    
  2.5536      2.6854      2.8836      3.1649      3.5416      4.0173      4.5843      5.2188      5.8791      6.5056    
  7.0272      7.3747      5.0849      5.0232      4.8469      4.5792      4.2532      3.9041      3.5636      3.2560    
  2.9968      2.7921      2.6404      2.5345      2.4642      2.4185      2.3883      2.3671      2.3511      2.3387    
  2.3290      2.3219      2.3171      2.3142      2.3128      2.3122      2.3121      2.3122      2.3128      2.3142    
  2.3171      2.3219      2.3290      2.3387      2.3511      2.3671      2.3883      2.4185      2.4642      2.5345    
  2.6404      2.7921      2.9968      3.2560      3.5636      3.9041      4.2532      4.5792      4.8469      5.0232    
  3.7514      3.7204      3.6313      3.4957      3.3294      3.1504      2.9751      2.8165      2.6831      2.5785    
  2.5016      2.4480      2.4115      2.3861      2.3671      2.3520      2.3398      2.3304      2.3235      2.3187    
  2.3154      2.3129      2.3109      2.3097      2.3092      2.3097      2.3109      2.3129      2.3154      2.3187    
  2.3235      2.3304      2.3398      2.3520      2.3671      2.3861      2.4115      2.4480      2.5016      2.5785    
  2.6831      2.8165      2.9751      3.1504      3.3294      3.4957      3.6313      3.7204      3.0245      3.0097    
  2.9670      2.9021      2.8225      2.7367      2.6525      2.5764      2.5123      2.4622      2.4251      2.3986    
  2.3793      2.3641      2.3511      2.3398      2.3305      2.3236      2.3188      2.3157      2.3131      2.3107    
  2.3082      2.3063      2.3056      2.3063      2.3082      2.3107      2.3131      2.3157      2.3188      2.3236    
  2.3305      2.3398      2.3511      2.3641      2.3793      2.3986      2.4251      2.4622      2.5123      2.5764    
  2.6525      2.7367      2.8225      2.9021      2.9670      3.0097      2.6625      2.6554      2.6351      2.6042    
  2.5666      2.5263      2.4871      2.4519      2.4225      2.3993      2.3818      2.3684      2.3575      2.3477    
  2.3387      2.3304      2.3236      2.3186      2.3152      2.3128      2.3104      2.3076      2.3046      2.3022    
  2.3013      2.3022      2.3046      2.3076      2.3104      2.3128      2.3152      2.3186      2.3236      2.3304    
  2.3387      2.3477      2.3575      2.3684      2.3818      2.3993      2.4225      2.4519      2.4871      2.5263    
  2.5666      2.6042      2.6351      2.6554      2.4873      2.4838      2.4738      2.4587      2.4405      2.4215    
  2.4034      2.3874      2.3740      2.3632      2.3545      2.3473      2.3409      2.3349      2.3290      2.3235    
  2.3188      2.3152      2.3125      2.3100      2.3072      2.3039      2.3004      2.2978      2.2968      2.2978    
  2.3004      2.3039      2.3072      2.3100      2.3125      2.3152      2.3188      2.3235      2.3290      2.3349    
  2.3409      2.3473      2.3545      2.3632      2.3740      2.3874      2.4034      2.4215      2.4405      2.4587    
  2.4738      2.4838      2.3876      2.3863      2.3825      2.3770      2.3706      2.3639      2.3574      2.3513    
  2.3455      2.3403      2.3357      2.3317      2.3283      2.3251      2.3219      2.3187      2.3157      2.3128    
  2.3100      2.3069      2.3034      2.2996      2.2959      2.2933      2.2923      2.2933      2.2959      2.2996    
  2.3034      2.3069      2.3100      2.3128      2.3157      2.3187      2.3219      2.3251      2.3283      2.3317    
  2.3357      2.3403      2.3455      2.3513      2.3574      2.3639      2.3706      2.3770      2.3825      2.3863    
  2.3352      2.3349      2.3344      2.3337      2.3330      2.3323      2.3311      2.3294      2.3272      2.3248    
  2.3227      2.3209      2.3196      2.3184      2.3171      2.3154      2.3131      2.3104      2.3072      2.3034    
  2.2993      2.2952      2.2916      2.2891      2.2882      2.2891      2.2916      2.2952      2.2993      2.3034    
  2.3072      2.3104      2.3131      2.3154      2.3171      2.3184      2.3196      2.3209      2.3227      2.3248    
  2.3272      2.3294      2.3311      2.3323      2.3330      2.3337      2.3344      2.3349      2.3232      2.3228    
  2.3218      2.3205      2.3190      2.3178      2.3168      2.3161      2.3155      2.3152      2.3150      2.3150    
  2.3151      2.3149      2.3142      2.3129      2.3107      2.3076      2.3039      2.2996      2.2952      2.2912    
  2.2879      2.2857      2.2850      2.2857      2.2879      2.2912      2.2952      2.2996      2.3039      2.3076    
  2.3107      2.3129      2.3142      2.3149      2.3151      2.3150      2.3150      2.3152      2.3155      2.3161    
  2.3168      2.3178      2.3190      2.3205      2.3218      2.3228      2.3176      2.3170      2.3152      2.3128    
  2.3103      2.3084      2.3076      2.3079      2.3090      2.3105      2.3120      2.3132      2.3138      2.3137    
  2.3128      2.3109      2.3082      2.3046      2.3004      2.2959      2.2916      2.2879      2.2851      2.2834    
  2.2828      2.2834      2.2851      2.2879      2.2916      2.2959      2.3004      2.3046      2.3082      2.3109    
  2.3128      2.3137      2.3138      2.3132      2.3120      2.3105      2.3090      2.3079      2.3076      2.3084    
  2.3103      2.3128      2.3152      2.3170      2.2958      2.2957      2.2956      2.2957      2.2963      2.2978    
  2.3001      2.3030      2.3062      2.3093      2.3118      2.3135      2.3141      2.3137      2.3122      2.3097    
  2.3063      2.3022      2.2978      2.2933      2.2891      2.2857      2.2834      2.2820      2.2815      2.2820    
  2.2834      2.2857      2.2891      2.2933      2.2978      2.3022      2.3063      2.3097      2.3122      2.3137    
  2.3141      2.3135      2.3118      2.3093      2.3062      2.3030      2.3001      2.2978      2.2963      2.2957    
  2.2956      2.2957      2.2812      2.2815      2.2828      2.2850      2.2882      2.2923      2.2968      2.3013    
  2.3056      2.3092      2.3121      2.3139      2.3145      2.3139      2.3121      2.3092      2.3056      2.3013    
  2.2968      2.2923      2.2882      2.2850      2.2828      2.2815      2.2812      2.2815      2.2828      2.2850    
  2.2882      2.2923      2.2968      2.3013      2.3056      2.3092      2.3121      2.3139      2.3145      2.3139    
  2.3121      2.3092      2.3056      2.3013      2.2968      2.2923      2.2882      2.2850      2.2828      2.2815    
  2.2958      2.2957      2.2956      2.2957      2.2963      2.2978      2.3001      2.3030      2.3062      2.3093    
  2.3118      2.3135      2.3141      2.3137      2.3122      2.3097      2.3063      2.3022      2.2978      2.2933    
  2.2891      2.2857      2.2834      2.2820      2.2815      2.2820      2.2834      2.2857      2.2891      2.2933    
  2.2978      2.3022      2.3063      2.3097      2.3122      2.3137      2.3141      2.3135      2.3118      2.3093    
  2.3062      2.3030      2.3001      2.2978      2.2963      2.2957      2.2956      2.2957      2.3176      2.3170    
  2.3152      2.3128      2.3103      2.3084      2.3076      2.3079      2.3090      2.3105      2.3120      2.3132    
  2.3138      2.3137      2.3128      2.3109      2.3082      2.3046      2.3004      2.2959      2.2916      2.2879    
  2.2851      2.2834      2.2828      2.2834      2.2851      2.2879      2.2916      2.2959      2.3004      2.3046    
  2.3082      2.3109      2.3128      2.3137      2.3138      2.3132      2.3120      2.3105      2.3090      2.3079    
  2.3076      2.3084      2.3103      2.3128      2.3152      2.3170      2.3232      2.3228      2.3218      2.3205    
  2.3190      2.3178      2.3168      2.3161      2.3155      2.3152      2.3150      2.3150      2.3151      2.3149    
  2.3142      2.3129      2.3107      2.3076      2.3039      2.2996      2.2952      2.2912      2.2879      2.2857    
  2.2850      2.2857      2.2879      2.2912      2.2952      2.2996      2.3039      2.3076      2.3107      2.3129    
  2.3142      2.3149      2.3151      2.3150      2.3150      2.3152      2.3155      2.3161      2.3168      2.3178    
  2.3190      2.3205      2.3218      2.3228      2.3352      2.3349      2.3344      2.3337      2.3330      2.3323    
  2.3311      2.3294      2.3272      2.3248      2.3227      2.3209      2.3196      2.3184      2.3171      2.3154    
  2.3131      2.3104      2.3072      2.3034      2.2993      2.2952      2.2916      2.2891      2.2882      2.2891    
  2.2916      2.2952      2.2993      2.3034      2.3072      2.3104      2.3131      2.3154      2.3171      2.3184    
  2.3196      2.3209      2.3227      2.3248      2.3272      2.3294      2.3311      2.3323      2.3330      2.3337    
  2.3344      2.3349      2.3876      2.3863      2.3825      2.3770      2.3706      2.3639      2.3574      2.3513    
  2.3455      2.3403      2.3357      2.3317      2.3283      2.3251      2.3219      2.3187      2.3157      2.3128    
  2.3100      2.3069      2.3034      2.2996      2.2959      2.2933      2.2923      2.2933      2.2959      2.2996    
  2.3034      2.3069      2.3100      2.3128      2.3157      2.3187      2.3219      2.3251      2.3283      2.3317    
  2.3357      2.3403      2.3455      2.3513      2.3574      2.3639      2.3706      2.3770      2.3825      2.3863    
  2.4873      2.4838      2.4738      2.4587      2.4405      2.4215      2.4034      2.3874      2.3740      2.3632    
  2.3545      2.3473      2.3409      2.3349      2.3290      2.3235      2.3188      2.3152      2.3125      2.3100    
  2.3072      2.3039      2.3004      2.2978      2.2968      2.2978      2.3004      2.3039      2.3072      2.3100    
  2.3125      2.3152      2.3188      2.3235      2.3290      2.3349      2.3409      2.3473      2.3545      2.3632    
  2.3740      2.3874      2.4034      2.4215      2.4405      2.4587      2.4738      2.4838      2.6625      2.6554    
  2.6351      2.6042      2.5666      2.5263      2.4871      2.4519      2.4225      2.3993      2.3818      2.3684    
  2.3575      2.3477      2.3387      2.3304      2.3236      2.3186      2.3152      2.3128      2.3104      2.3076    
  2.3046      2.3022      2.3013      2.3022      2.3046      2.3076      2.3104      2.3128      2.3152      2.3186    
  2.3236      2.3304      2.3387      2.3477      2.3575      2.3684      2.3818      2.3993      2.4225      2.4519    
  2.4871      2.5263      2.5666      2.6042      2.6351      2.6554      3.0245      3.0097      2.9670      2.9021    
  2.8225      2.7367      2.6525      2.5764      2.5123      2.4622      2.4251      2.3986      2.3793      2.3641    
  2.3511      2.3398      2.3305      2.3236      2.3188      2.3157      2.3131      2.3107      2.3082      2.3063    
  2.3056      2.3063      2.3082      2.3107      2.3131      2.3157      2.3188      2.3236      2.3305      2.3398    
  2.3511      2.3641      2.3793      2.3986      2.4251      2.4622      2.5123      2.5764      2.6525      2.7367    
  2.8225      2.9021      2.9670      3.0097      3.7514      3.7204      3.6313      3.4957      3.3294      3.1504    
  2.9751      2.8165      2.6831      2.5785      2.5016      2.4480      2.4115      2.3861      2.3671      2.3520    
  2.3398      2.3304      2.3235      2.3187      2.3154      2.3129      2.3109      2.3097      2.3092      2.3097    
  2.3109      2.3129      2.3154      2.3187      2.3235      2.3304      2.3398      2.3520      2.3671      2.3861    
  2.4115      2.4480      2.5016      2.5785      2.6831      2.8165      2.9751      3.1504      3.3294      3.4957    
  3.6313      3.7204      5.0849      5.0232      4.8469      4.5792      4.2532      3.9041      3.5636      3.2560    
  2.9968      2.7921      2.6404      2.5345      2.4642      2.4185      2.3883      2.3671      2.3511      2.3387    
  2.3290      2.3219      2.3171      2.3142      2.3128      2.3122      2.3121      2.3122      2.3128      2.3142    
  2.3171      2.3219      2.3290      2.3387      2.3511      2.3671      2.3883      2.4185      2.4642      2.5345    
  2.6404      2.7921      2.9968      3.2560      3.5636      3.9041      4.2532      4.5792      4.8469      5.0232    
  7.4969      7.3747      7.0272      6.5056      5.8791      5.2188      4.5843      4.0173      3.5416      3.1649    
  2.8836      2.6854      2.5536      2.4701      2.4185      2.3861      2.3641      2.3477      2.3349      2.3251    
  2.3184      2.3149      2.3137      2.3137      2.3139      2.3137      2.3137      2.3149      2.3184      2.3251    
  2.3349      2.3477      2.3641      2.3861      2.4185      2.4701      2.5536      2.6854      2.8836      3.1649    
  3.5416      4.0173      4.5843      5.2188      5.8791      6.5056      7.0272      7.3747      12.012      11.762    
  11.056      10.010      8.7776      7.5099      6.3239      5.2916      4.4432      3.7801      3.2861      2.9363    
  2.7020      2.5536      2.4642      2.4115      2.3793      2.3575      2.3409      2.3283      2.3196      2.3151    
  2.3138      2.3141      2.3145      2.3141      2.3138      2.3151      2.3196      2.3283      2.3409      2.3575    
  2.3793      2.4115      2.4642      2.5536      2.7020      2.9363      3.2861      3.7801      4.4432      5.2916    
  6.3239      7.5099      8.7776      10.010      11.056      11.762      20.594      20.078      18.626      16.496    
  14.028      11.547      9.2936      7.3980      5.8933      4.7512      3.9168      3.3304      2.9363      2.6854    
  2.5345      2.4480      2.3986      2.3684      2.3473      2.3317      2.3209      2.3150      2.3132      2.3135    
  2.3139      2.3135      2.3132      2.3150      2.3209      2.3317      2.3473      2.3684      2.3986      2.4480    
  2.5345      2.6854      2.9363      3.3304      3.9168      4.7512      5.8933      7.3980      9.2936      11.547    
  14.028      16.496      18.626      20.078      36.520      35.487      32.585      28.346      23.475      18.649    
  14.364      10.868      8.1944      6.2426      4.8641      3.9168      3.2861      2.8836      2.6404      2.5016    
  2.4251      2.3818      2.3545      2.3357      2.3227      2.3150      2.3120      2.3118      2.3121      2.3118    
  2.3120      2.3150      2.3227      2.3357      2.3545      2.3818      2.4251      2.5016      2.6404      2.8836    
  3.2861      3.9168      4.8641      6.2426      8.1944      10.868      14.364      18.649      23.475      28.346    
  32.585      35.487      65.224      63.151      57.386      49.125      39.854      30.816      22.874      16.521    
  11.805      8.4903      6.2426      4.7512      3.7801      3.1649      2.7921      2.5785      2.4622      2.3993    
  2.3632      2.3403      2.3248      2.3152      2.3105      2.3093      2.3092      2.3093      2.3105      2.3152    
  2.3248      2.3403      2.3632      2.3993      2.4622      2.5785      2.7921      3.1649      3.7801      4.7512    
  6.2426      8.4903      11.805      16.521      22.874      30.816      39.854      49.125      57.386      63.151    
  115.61      111.69      100.76      85.012      67.398      50.670      36.542      25.438      17.335      11.805    
  8.1944      5.8933      4.4432      3.5416      2.9968      2.6831      2.5123      2.4225      2.3740      2.3455    
  2.3272      2.3155      2.3090      2.3062      2.3056      2.3062      2.3090      2.3155      2.3272      2.3455    
  2.3740      2.4225      2.5123      2.6831      2.9968      3.5416      4.4432      5.8933      8.1944      11.805    
  17.335      25.438      36.542      50.670      67.398      85.012      100.76      111.69      193.80      187.32    
  169.06      142.30      111.73      82.225      57.417      38.722      25.438      16.521      10.868      7.3980    
  5.2916      4.0173      3.2560      2.8165      2.5764      2.4519      2.3874      2.3513      2.3294      2.3161    
  2.3079      2.3030      2.3013      2.3030      2.3079      2.3161      2.3294      2.3513      2.3874      2.4519    
  2.5764      2.8165      3.2560      4.0173      5.2916      7.3980      10.868      16.521      25.438      38.722    
  57.417      82.225      111.73      142.30      169.06      187.32      297.25      287.98      261.51      221.79    
  174.98      128.30      87.967      57.417      36.542      22.874      14.364      9.2936      6.3239      4.5843    
  3.5636      2.9751      2.6525      2.4871      2.4034      2.3574      2.3311      2.3168      2.3076      2.3001    
  2.2968      2.3001      2.3076      2.3168      2.3311      2.3574      2.4034      2.4871      2.6525      2.9751    
  3.5636      4.5843      6.3239      9.2936      14.364      22.874      36.542      57.417      87.967      128.30    
  174.98      221.79      261.51      287.98      413.14      401.64      368.19      316.46      253.14      187.36    
  128.30      82.225      50.670      30.816      18.649      11.547      7.5099      5.2188      3.9041      3.1504    
  2.7367      2.5263      2.4215      2.3639      2.3323      2.3178      2.3084      2.2978      2.2923      2.2978    
  2.3084      2.3178      2.3323      2.3639      2.4215      2.5263      2.7367      3.1504      3.9041      5.2188    
  7.5099      11.547      18.649      30.816      50.670      82.225      128.30      187.36      253.14      316.46    
  368.19      401.64      522.74      510.22      473.00      413.16      336.52      253.14      174.98      111.73    
  67.398      39.854      23.475      14.028      8.7776      5.8791      4.2532      3.3294      2.8225      2.5666    
  2.4405      2.3706      2.3330      2.3190      2.3103      2.2963      2.2882      2.2963      2.3103      2.3190    
  2.3330      2.3706      2.4405      2.5666      2.8225      3.3294      4.2532      5.8791      8.7776      14.028    
  23.475      39.854      67.398      111.73      174.98      253.14      336.52      413.16      473.00      510.22    
  609.69      597.56      560.41      497.75      413.16      316.46      221.79      142.30      85.012      49.125    
  28.346      16.496      10.010      6.5056      4.5792      3.4957      2.9021      2.6042      2.4587      2.3770    
  2.3337      2.3205      2.3128      2.2957      2.2850      2.2957      2.3128      2.3205      2.3337      2.3770    
  2.4587      2.6042      2.9021      3.4957      4.5792      6.5056      10.010      16.496      28.346      49.125    
  85.012      142.30      221.79      316.46      413.16      497.75      560.41      597.56      666.79      656.00    
  621.67      560.41      473.00      368.19      261.51      169.06      100.76      57.386      32.585      18.626    
  11.056      7.0272      4.8469      3.6313      2.9670      2.6351      2.4738      2.3825      2.3344      2.3218    
  2.3152      2.2956      2.2828      2.2956      2.3152      2.3218      2.3344      2.3825      2.4738      2.6351    
  2.9670      3.6313      4.8469      7.0272      11.056      18.626      32.585      57.386      100.76      169.06    
  261.51      368.19      473.00      560.41      621.67      656.00      696.52      687.11      656.00      597.56    
  510.22      401.64      287.98      187.32      111.69      63.151      35.487      20.078      11.762      7.3747    
  5.0232      3.7204      3.0097      2.6554      2.4838      2.3863      2.3349      2.3228      2.3170      2.2957    
  2.2815      2.2957      2.3170      2.3228      2.3349      2.3863      2.4838      2.6554      3.0097      3.7204    
  5.0232      7.3747      11.762      20.078      35.487      63.151      111.69      187.32      287.98      401.64    
  510.22      597.56      656.00      687.11      696.52      687.11      656.00      597.56      510.22      401.64    
  287.98      187.32      111.69      63.151      35.487      20.078      11.762      7.3747      5.0232      3.7204    
  3.0097      2.6554      2.4838      2.3863      2.3349      2.3228      2.3170      2.2957      2.2815      2.2957    
  2.3170      2.3228      2.3349      2.3863      2.4838      2.6554      3.0097      3.7204      5.0232      7.3747    
  11.762      20.078      35.487      63.151      111.69      187.32      287.98      401.64      510.22      597.56    
  656.00      687.11      687.11      677.19      644.86      585.29      497.74      390.30      278.94      181.04    
  107.91      61.155      34.487      19.578      11.519      7.2558      4.9630      3.6900      2.9951      2.6484    
  2.4804      2.3849      2.3347      2.3225      2.3164      2.2957      2.2820      2.2957      2.3164      2.3225    
  2.3347      2.3849      2.4804      2.6484      2.9951      3.6900      4.9630      7.2558      11.519      19.578    
  34.487      61.155      107.91      181.04      278.94      390.30      497.74      585.29      644.86      677.19    
  656.00      644.86      609.73      547.89      460.77      357.44      253.13      163.35      97.370      55.607    
  31.680      18.172      10.834      6.9173      4.7906      3.6028      2.9533      2.6285      2.4705      2.3813    
  2.3343      2.3216      2.3148      2.2957      2.2834      2.2957      2.3148      2.3216      2.3343      2.3813    
  2.4705      2.6285      2.9533      3.6028      4.7906      6.9173      10.834      18.172      31.680      55.607    
  97.370      163.35      253.13      357.44      460.77      547.89      609.73      644.86      597.56      585.29    