K                                       
   1.00000000000000     
     5.285890    0.000000    0.000000
     0.000000    5.285890    0.000000
     0.000000    0.000000    5.285890
   K 
     2
Direct
  0.000000  0.000000  0.000000
  0.500000  0.500000  0.500000
 
   48   48   48
 0.70535371303E+03 0.69651940247E+03 0.66678692672E+03 0.60968600903E+03 0.52273963594E+03
 0.41314266946E+03 0.29724546316E+03 0.19379567633E+03 0.11561049061E+03 0.65223538354E+02
 0.36520124464E+02 0.20594279857E+02 0.12011648398E+02 0.74968725811E+01 0.50848810509E+01
 0.37514165019E+01 0.30245424069E+01 0.26624512473E+01 0.24873493908E+01 0.23876108685E+01
 0.23351715913E+01 0.23232140858E+01 0.23175910325E+01 0.22957728716E+01 0.22811521095E+01
 0.22957728716E+01 0.23175910325E+01 0.23232140858E+01 0.23351715913E+01 0.23876108685E+01
 0.24873493908E+01 0.26624512473E+01 0.30245424069E+01 0.37514165019E+01 0.50848810509E+01
 0.74968725811E+01 0.12011648398E+02 0.20594279857E+02 0.36520124464E+02 0.65223538354E+02
 0.11561049061E+03 0.19379567633E+03 0.29724546316E+03 0.41314266946E+03 0.52273963594E+03
 0.60968600903E+03 0.66678692672E+03 0.69651940247E+03 0.69651940247E+03 0.68711121886E+03
 0.65599955255E+03 0.59756084223E+03 0.51021742607E+03 0.40163561453E+03 0.28798123057E+03
 0.18731856016E+03 0.11169344223E+03 0.63150592376E+02 0.35486699375E+02 0.20078076619E+02
 0.11761867552E+02 0.73747387181E+01 0.50232372443E+01 0.37203698501E+01 0.30096734018E+01
 0.26553664347E+01 0.24838251749E+01 0.23862612094E+01 0.23349461196E+01 0.23228478840E+01
 0.23169652295E+01 0.22956937524E+01 0.22815464363E+01 0.22956937524E+01 0.23169652295E+01
 0.23228478840E+01 0.23349461196E+01 0.23862612094E+01 0.24838251749E+01 0.26553664347E+01
 0.30096734018E+01 0.37203698501E+01 0.50232372443E+01 0.73747387181E+01 0.11761867552E+02
 0.20078076619E+02 0.35486699375E+02 0.63150592376E+02 0.11169344223E+03 0.18731856016E+03
 0.28798123057E+03 0.40163561453E+03 0.51021742607E+03 0.59756084223E+03 0.65599955255E+03
 0.68711121886E+03 0.66678692672E+03 0.65599955255E+03 0.62166751324E+03 0.56041499253E+03
 0.47299555349E+03 0.36819426878E+03 0.26151308544E+03 0.16905612280E+03 0.10075726609E+03
 0.57386459952E+02 0.32584708184E+02 0.18626076737E+02 0.11055879737E+02 0.70272477537E+01
 0.48468615768E+01 0.36313323052E+01 0.29670392846E+01 0.26350729506E+01 0.24737793079E+01
 0.23824858973E+01 0.23343796682E+01 0.23218487451E+01 0.23152311767E+01 0.22955634443E+01
 0.22827923764E+01 0.22955634443E+01 0.23152311767E+01 0.23218487451E+01 0.23343796682E+01
 0.23824858973E+01 0.24737793079E+01 0.26350729506E+01 0.29670392846E+01 0.36313323052E+01
 0.48468615768E+01 0.70272477537E+01 0.11055879737E+02 0.18626076737E+02 0.32584708184E+02
 0.57386459952E+02 0.10075726609E+03 0.16905612280E+03 0.26151308544E+03 0.36819426878E+03
 0.47299555349E+03 0.56041499253E+03 0.62166751324E+03 0.65599955255E+03 0.60968600903E+03
 0.59756084223E+03 0.56041499253E+03 0.49775453496E+03 0.41315832191E+03 0.31645689704E+03
 0.22178594496E+03 0.14229647114E+03 0.85011614328E+02 0.49125411089E+02 0.28346328861E+02
 0.16496443112E+02 0.10009852996E+02 0.65055839132E+01 0.45792486115E+01 0.34956532298E+01
 0.29020811519E+01 0.26042287073E+01 0.24586650886E+01 0.23769814933E+01 0.23336991035E+01
 0.23204745655E+01 0.23128075852E+01 0.22956602418E+01 0.22850094552E+01 0.22956602418E+01
 0.23128075852E+01 0.23204745655E+01 0.23336991035E+01 0.23769814933E+01 0.24586650886E+01
 0.26042287073E+01 0.29020811519E+01 0.34956532298E+01 0.45792486115E+01 0.65055839132E+01
 0.10009852996E+02 0.16496443112E+02 0.28346328861E+02 0.49125411089E+02 0.85011614328E+02
 0.14229647114E+03 0.22178594496E+03 0.31645689704E+03 0.41315832191E+03 0.49775453496E+03
 0.56041499253E+03 0.59756084223E+03 0.52273963594E+03 0.51021742607E+03 0.47299555349E+03
 0.41315832191E+03 0.33651862041E+03 0.25313759914E+03 0.17498126335E+03 0.11172993636E+03
 0.67398079257E+02 0.39853993784E+02 0.23475293168E+02 0.14028227421E+02 0.87776047108E+01
 0.58791095739E+01 0.42532254990E+01 0.33294372118E+01 0.28224830234E+01 0.25665975042E+01
 0.24405164218E+01 0.23705738053E+01 0.23330313500E+01 0.23190359990E+01 0.23103193015E+01
 0.22963180261E+01 0.22882239876E+01 0.22963180261E+01 0.23103193015E+01 0.23190359990E+01
 0.23330313500E+01 0.23705738053E+01 0.24405164218E+01 0.25665975042E+01 0.28224830234E+01
 0.33294372118E+01 0.42532254990E+01 0.58791095739E+01 0.87776047108E+01 0.14028227421E+02
 0.23475293168E+02 0.39853993784E+02 0.67398079257E+02 0.11172993636E+03 0.17498126335E+03
 0.25313759914E+03 0.33651862041E+03 0.41315832191E+03 0.47299555349E+03 0.51021742607E+03
 0.41314266946E+03 0.40163561453E+03 0.36819426878E+03 0.31645689704E+03 0.25313759914E+03
 0.18735599905E+03 0.12829548239E+03 0.82224826053E+02 0.50669926531E+02 0.30815756409E+02
 0.18649328298E+02 0.11546926404E+02 0.75098737841E+01 0.52188003759E+01 0.39040754146E+01
 0.31504140621E+01 0.27366775974E+01 0.25262963643E+01 0.24214817226E+01 0.23639331098E+01
 0.23322681539E+01 0.23177745059E+01 0.23084240969E+01 0.22977791051E+01 0.22922624559E+01
 0.22977791051E+01 0.23084240969E+01 0.23177745059E+01 0.23322681539E+01 0.23639331098E+01
 0.24214817226E+01 0.25262963643E+01 0.27366775974E+01 0.31504140621E+01 0.39040754146E+01
 0.52188003759E+01 0.75098737841E+01 0.11546926404E+02 0.18649328298E+02 0.30815756409E+02
 0.50669926531E+02 0.82224826053E+02 0.12829548239E+03 0.18735599905E+03 0.25313759914E+03
 0.31645689704E+03 0.36819426878E+03 0.40163561453E+03 0.29724546316E+03 0.28798123057E+03
 0.26151308544E+03 0.22178594496E+03 0.17498126335E+03 0.12829548239E+03 0.87966667805E+02
 0.57416516141E+02 0.36541813022E+02 0.22873863735E+02 0.14363869492E+02 0.92935554609E+01
 0.63239362168E+01 0.45842642363E+01 0.35635585073E+01 0.29750566404E+01 0.26525246533E+01
 0.24870969563E+01 0.24033770991E+01 0.23574467421E+01 0.23311392022E+01 0.23167914572E+01
 0.23075768545E+01 0.23000790997E+01 0.22967698730E+01 0.23000790997E+01 0.23075768545E+01
 0.23167914572E+01 0.23311392022E+01 0.23574467421E+01 0.24033770991E+01 0.24870969563E+01
 0.26525246533E+01 0.29750566404E+01 0.35635585073E+01 0.45842642363E+01 0.63239362168E+01
 0.92935554609E+01 0.14363869492E+02 0.22873863735E+02 0.36541813022E+02 0.57416516141E+02
 0.87966667805E+02 0.12829548239E+03 0.17498126335E+03 0.22178594496E+03 0.26151308544E+03
 0.28798123057E+03 0.19379567633E+03 0.18731856016E+03 0.16905612280E+03 0.14229647114E+03
 0.11172993636E+03 0.82224826053E+02 0.57416516141E+02 0.38722063382E+02 0.25438492687E+02
 0.16520595018E+02 0.10868000396E+02 0.73979810188E+01 0.52915699579E+01 0.40173347909E+01
 0.32560331620E+01 0.28164588211E+01 0.25763519016E+01 0.24519111521E+01 0.23873946064E+01
 0.23512768314E+01 0.23294405591E+01 0.23160680075E+01 0.23078624405E+01 0.23030185032E+01
 0.23013274526E+01 0.23030185032E+01 0.23078624405E+01 0.23160680075E+01 0.23294405591E+01
 0.23512768314E+01 0.23873946064E+01 0.24519111521E+01 0.25763519016E+01 0.28164588211E+01
 0.32560331620E+01 0.40173347909E+01 0.52915699579E+01 0.73979810188E+01 0.10868000396E+02
 0.16520595018E+02 0.25438492687E+02 0.38722063382E+02 0.57416516141E+02 0.82224826053E+02
 0.11172993636E+03 0.14229647114E+03 0.16905612280E+03 0.18731856016E+03 0.11561049061E+03
 0.11169344223E+03 0.10075726609E+03 0.85011614328E+02 0.67398079257E+02 0.50669926531E+02
 0.36541813022E+02 0.25438492687E+02 0.17335292479E+02 0.11804528880E+02 0.81943996589E+01
 0.58932944294E+01 0.44432150514E+01 0.35415578753E+01 0.29967843803E+01 0.26831075460E+01
 0.25123326088E+01 0.24224894261E+01 0.23740354849E+01 0.23455105402E+01 0.23272315100E+01
 0.23155478106E+01 0.23090067808E+01 0.23062280769E+01 0.23055691518E+01 0.23062280769E+01
 0.23090067808E+01 0.23155478106E+01 0.23272315100E+01 0.23455105402E+01 0.23740354849E+01
 0.24224894261E+01 0.25123326088E+01 0.26831075460E+01 0.29967843803E+01 0.35415578753E+01
 0.44432150514E+01 0.58932944294E+01 0.81943996589E+01 0.11804528880E+02 0.17335292479E+02
 0.25438492687E+02 0.36541813022E+02 0.50669926531E+02 0.67398079257E+02 0.85011614328E+02
 0.10075726609E+03 0.11169344223E+03 0.65223538354E+02 0.63150592376E+02 0.57386459952E+02
 0.49125411089E+02 0.39853993784E+02 0.30815756409E+02 0.22873863735E+02 0.16520595018E+02
 0.11804528880E+02 0.84903011136E+01 0.62426135869E+01 0.47512288428E+01 0.37800601325E+01
 0.31649342743E+01 0.27920749758E+01 0.25785097327E+01 0.24621621946E+01 0.23993221010E+01
 0.23632311083E+01 0.23402648570E+01 0.23248385449E+01 0.23152058417E+01 0.23105491812E+01
 0.23092816543E+01 0.23092178971E+01 0.23092816543E+01 0.23105491812E+01 0.23152058417E+01
 0.23248385449E+01 0.23402648570E+01 0.23632311083E+01 0.23993221010E+01 0.24621621946E+01
 0.25785097327E+01 0.27920749758E+01 0.31649342743E+01 0.37800601325E+01 0.47512288428E+01
 0.62426135869E+01 0.84903011136E+01 0.11804528880E+02 0.16520595018E+02 0.22873863735E+02
 0.30815756409E+02 0.39853993784E+02 0.49125411089E+02 0.57386459952E+02 0.63150592376E+02
 0.36520124464E+02 0.35486699375E+02 0.32584708184E+02 0.28346328861E+02 0.23475293168E+02
 0.18649328298E+02 0.14363869492E+02 0.10868000396E+02 0.81943996589E+01 0.62426135869E+01
 0.48640723812E+01 0.39168206070E+01 0.32860792136E+01 0.28835888006E+01 0.26403935825E+01
 0.25016202290E+01 0.24251185303E+01 0.23817569439E+01 0.23545395377E+01 0.23356634273E+01
 0.23226629657E+01 0.23150461125E+01 0.23120473104E+01 0.23117943400E+01 0.23120500082E+01
 0.23117943400E+01 0.23120473104E+01 0.23150461125E+01 0.23226629657E+01 0.23356634273E+01
 0.23545395377E+01 0.23817569439E+01 0.24251185303E+01 0.25016202290E+01 0.26403935825E+01
 0.28835888006E+01 0.32860792136E+01 0.39168206070E+01 0.48640723812E+01 0.62426135869E+01
 0.81943996589E+01 0.10868000396E+02 0.14363869492E+02 0.18649328298E+02 0.23475293168E+02
 0.28346328861E+02 0.32584708184E+02 0.35486699375E+02 0.20594279857E+02 0.20078076619E+02
 0.18626076737E+02 0.16496443112E+02 0.14028227421E+02 0.11546926404E+02 0.92935554609E+01
 0.73979810188E+01 0.58932944294E+01 0.47512288428E+01 0.39168206070E+01 0.33303526552E+01
 0.29363389271E+01 0.26854025376E+01 0.25345327275E+01 0.24479990738E+01 0.23986305137E+01
 0.23683565998E+01 0.23473279513E+01 0.23317237489E+01 0.23209403809E+01 0.23150389735E+01
 0.23131885261E+01 0.23134744325E+01 0.23138608182E+01 0.23134744325E+01 0.23131885261E+01
 0.23150389735E+01 0.23209403809E+01 0.23317237489E+01 0.23473279513E+01 0.23683565998E+01
 0.23986305137E+01 0.24479990738E+01 0.25345327275E+01 0.26854025376E+01 0.29363389271E+01
 0.33303526552E+01 0.39168206070E+01 0.47512288428E+01 0.58932944294E+01 0.73979810188E+01
 0.92935554609E+01 0.11546926404E+02 0.14028227421E+02 0.16496443112E+02 0.18626076737E+02
 0.20078076619E+02 0.12011648398E+02 0.11761867552E+02 0.11055879737E+02 0.10009852996E+02
 0.87776047108E+01 0.75098737841E+01 0.63239362168E+01 0.52915699579E+01 0.44432150514E+01
 0.37800601325E+01 0.32860792136E+01 0.29363389271E+01 0.27019659567E+01 0.25535720082E+01
 0.24641698800E+01 0.24114974904E+01 0.23793075123E+01 0.23574528433E+01 0.23409391418E+01
 0.23282850886E+01 0.23196232486E+01 0.23150591264E+01 0.23137795525E+01 0.23141375775E+01
 0.23144861269E+01 0.23141375775E+01 0.23137795525E+01 0.23150591264E+01 0.23196232486E+01
 0.23282850886E+01 0.23409391418E+01 0.23574528433E+01 0.23793075123E+01 0.24114974904E+01
 0.24641698800E+01 0.25535720082E+01 0.27019659567E+01 0.29363389271E+01 0.32860792136E+01
 0.37800601325E+01 0.44432150514E+01 0.52915699579E+01 0.63239362168E+01 0.75098737841E+01
 0.87776047108E+01 0.10009852996E+02 0.11055879737E+02 0.11761867552E+02 0.74968725811E+01
 0.73747387181E+01 0.70272477537E+01 0.65055839132E+01 0.58791095739E+01 0.52188003759E+01
 0.45842642363E+01 0.40173347909E+01 0.35415578753E+01 0.31649342743E+01 0.28835888006E+01
 0.26854025376E+01 0.25535720082E+01 0.24700569483E+01 0.24184938459E+01 0.23860607296E+01
 0.23641021178E+01 0.23477368609E+01 0.23348795125E+01 0.23250781297E+01 0.23184469543E+01
 0.23148789318E+01 0.23136810801E+01 0.23137042479E+01 0.23138608182E+01 0.23137042479E+01
 0.23136810801E+01 0.23148789318E+01 0.23184469543E+01 0.23250781297E+01 0.23348795125E+01
 0.23477368609E+01 0.23641021178E+01 0.23860607296E+01 0.24184938459E+01 0.24700569483E+01
 0.25535720082E+01 0.26854025376E+01 0.28835888006E+01 0.31649342743E+01 0.35415578753E+01
 0.40173347909E+01 0.45842642363E+01 0.52188003759E+01 0.58791095739E+01 0.65055839132E+01
 0.70272477537E+01 0.73747387181E+01 0.50848810509E+01 0.50232372443E+01 0.48468615768E+01
 0.45792486115E+01 0.42532254990E+01 0.39040754146E+01 0.35635585073E+01 0.32560331620E+01
 0.29967843803E+01 0.27920749758E+01 0.26403935825E+01 0.25345327275E+01 0.24641698800E+01
 0.24184938459E+01 0.23883015730E+01 0.23671015003E+01 0.23511341094E+01 0.23386509828E+01
 0.23289954601E+01 0.23218976285E+01 0.23171002701E+01 0.23142250931E+01 0.23127689685E+01
 0.23121881503E+01 0.23120500082E+01 0.23121881503E+01 0.23127689685E+01 0.23142250931E+01
 0.23171002701E+01 0.23218976285E+01 0.23289954601E+01 0.23386509828E+01 0.23511341094E+01
 0.23671015003E+01 0.23883015730E+01 0.24184938459E+01 0.24641698800E+01 0.25345327275E+01
 0.26403935825E+01 0.27920749758E+01 0.29967843803E+01 0.32560331620E+01 0.35635585073E+01
 0.39040754146E+01 0.42532254990E+01 0.45792486115E+01 0.48468615768E+01 0.50232372443E+01
 0.37514165019E+01 0.37203698501E+01 0.36313323052E+01 0.34956532298E+01 0.33294372118E+01
 0.31504140621E+01 0.29750566404E+01 0.28164588211E+01 0.26831075460E+01 0.25785097327E+01
 0.25016202290E+01 0.24479990738E+01 0.24114974904E+01 0.23860607296E+01 0.23671015003E+01
 0.23520208802E+01 0.23398478818E+01 0.23303983864E+01 0.23235119734E+01 0.23187231786E+01
 0.23153652823E+01 0.23128630027E+01 0.23109499635E+01 0.23096742767E+01 0.23092178971E+01
 0.23096742767E+01 0.23109499635E+01 0.23128630027E+01 0.23153652823E+01 0.23187231786E+01
 0.23235119734E+01 0.23303983864E+01 0.23398478818E+01 0.23520208802E+01 0.23671015003E+01
 0.23860607296E+01 0.24114974904E+01 0.24479990738E+01 0.25016202290E+01 0.25785097327E+01
 0.26831075460E+01 0.28164588211E+01 0.29750566404E+01 0.31504140621E+01 0.33294372118E+01
 0.34956532298E+01 0.36313323052E+01 0.37203698501E+01 0.30245424069E+01 0.30096734018E+01
 0.29670392846E+01 0.29020811519E+01 0.28224830234E+01 0.27366775974E+01 0.26525246533E+01
 0.25763519016E+01 0.25123326088E+01 0.24621621946E+01 0.24251185303E+01 0.23986305137E+01
 0.23793075123E+01 0.23641021178E+01 0.23511341094E+01 0.23398478818E+01 0.23305323127E+01
 0.23235643001E+01 0.23188376896E+01 0.23156680245E+01 0.23131478108E+01 0.23106618668E+01
 0.23082047800E+01 0.23062971425E+01 0.23055691518E+01 0.23062971425E+01 0.23082047800E+01
 0.23106618668E+01 0.23131478108E+01 0.23156680245E+01 0.23188376896E+01 0.23235643001E+01
 0.23305323127E+01 0.23398478818E+01 0.23511341094E+01 0.23641021178E+01 0.23793075123E+01
 0.23986305137E+01 0.24251185303E+01 0.24621621946E+01 0.25123326088E+01 0.25763519016E+01
 0.26525246533E+01 0.27366775974E+01 0.28224830234E+01 0.29020811519E+01 0.29670392846E+01
 0.30096734018E+01 0.26624512473E+01 0.26553664347E+01 0.26350729506E+01 0.26042287073E+01
 0.25665975042E+01 0.25262963643E+01 0.24870969563E+01 0.24519111521E+01 0.24224894261E+01
 0.23993221010E+01 0.23817569439E+01 0.23683565998E+01 0.23574528433E+01 0.23477368609E+01
 0.23386509828E+01 0.23303983864E+01 0.23235643001E+01 0.23185588918E+01 0.23152147401E+01
 0.23127965237E+01 0.23104225905E+01 0.23076182678E+01 0.23046234404E+01 0.23022417384E+01
 0.23013274526E+01 0.23022417384E+01 0.23046234404E+01 0.23076182678E+01 0.23104225905E+01
 0.23127965237E+01 0.23152147401E+01 0.23185588918E+01 0.23235643001E+01 0.23303983864E+01
 0.23386509828E+01 0.23477368609E+01 0.23574528433E+01 0.23683565998E+01 0.23817569439E+01
 0.23993221010E+01 0.24224894261E+01 0.24519111521E+01 0.24870969563E+01 0.25262963643E+01
 0.25665975042E+01 0.26042287073E+01 0.26350729506E+01 0.26553664347E+01 0.24873493908E+01
 0.24838251749E+01 0.24737793079E+01 0.24586650886E+01 0.24405164218E+01 0.24214817226E+01
 0.24033770991E+01 0.23873946064E+01 0.23740354849E+01 0.23632311083E+01 0.23545395377E+01
 0.23473279513E+01 0.23409391418E+01 0.23348795125E+01 0.23289954601E+01 0.23235119734E+01
 0.23188376896E+01 0.23152147401E+01 0.23124545571E+01 0.23099797415E+01 0.23071798971E+01
 0.23038524225E+01 0.23004223052E+01 0.22977724919E+01 0.22967698730E+01 0.22977724919E+01
 0.23004223052E+01 0.23038524225E+01 0.23071798971E+01 0.23099797415E+01 0.23124545571E+01
 0.23152147401E+01 0.23188376896E+01 0.23235119734E+01 0.23289954601E+01 0.23348795125E+01
 0.23409391418E+01 0.23473279513E+01 0.23545395377E+01 0.23632311083E+01 0.23740354849E+01
 0.23873946064E+01 0.24033770991E+01 0.24214817226E+01 0.24405164218E+01 0.24586650886E+01
 0.24737793079E+01 0.24838251749E+01 0.23876108685E+01 0.23862612094E+01 0.23824858973E+01
 0.23769814933E+01 0.23705738053E+01 0.23639331098E+01 0.23574467421E+01 0.23512768314E+01
 0.23455105402E+01 0.23402648570E+01 0.23356634273E+01 0.23317237489E+01 0.23282850886E+01
 0.23250781297E+01 0.23218976285E+01 0.23187231786E+01 0.23156680245E+01 0.23127965237E+01
 0.23099797415E+01 0.23069343299E+01 0.23034420763E+01 0.22996038328E+01 0.22959427604E+01
 0.22932551500E+01 0.22922624559E+01 0.22932551500E+01 0.22959427604E+01 0.22996038328E+01
 0.23034420763E+01 0.23069343299E+01 0.23099797415E+01 0.23127965237E+01 0.23156680245E+01
 0.23187231786E+01 0.23218976285E+01 0.23250781297E+01 0.23282850886E+01 0.23317237489E+01
 0.23356634273E+01 0.23402648570E+01 0.23455105402E+01 0.23512768314E+01 0.23574467421E+01
 0.23639331098E+01 0.23705738053E+01 0.23769814933E+01 0.23824858973E+01 0.23862612094E+01
 0.23351715913E+01 0.23349461196E+01 0.23343796682E+01 0.23336991035E+01 0.23330313500E+01
 0.23322681539E+01 0.23311392022E+01 0.23294405591E+01 0.23272315100E+01 0.23248385449E+01
 0.23226629657E+01 0.23209403809E+01 0.23196232486E+01 0.23184469543E+01 0.23171002701E+01
 0.23153652823E+01 0.23131478108E+01 0.23104225905E+01 0.23071798971E+01 0.23034420763E+01
 0.22993467288E+01 0.22952281820E+01 0.22916164343E+01 0.22891189276E+01 0.22882239876E+01
 0.22891189276E+01 0.22916164343E+01 0.22952281820E+01 0.22993467288E+01 0.23034420763E+01
 0.23071798971E+01 0.23104225905E+01 0.23131478108E+01 0.23153652823E+01 0.23171002701E+01
 0.23184469543E+01 0.23196232486E+01 0.23209403809E+01 0.23226629657E+01 0.23248385449E+01
 0.23272315100E+01 0.23294405591E+01 0.23311392022E+01 0.23322681539E+01 0.23330313500E+01
 0.23336991035E+01 0.23343796682E+01 0.23349461196E+01 0.23232140858E+01 0.23228478840E+01
 0.23218487451E+01 0.23204745655E+01 0.23190359990E+01 0.23177745059E+01 0.23167914572E+01
 0.23160680075E+01 0.23155478106E+01 0.23152058417E+01 0.23150461125E+01 0.23150389735E+01
 0.23150591264E+01 0.23148789318E+01 0.23142250931E+01 0.23128630027E+01 0.23106618668E+01
 0.23076182678E+01 0.23038524225E+01 0.22996038328E+01 0.22952281820E+01 0.22911681540E+01
 0.22878809249E+01 0.22857475435E+01 0.22850094552E+01 0.22857475435E+01 0.22878809249E+01
 0.22911681540E+01 0.22952281820E+01 0.22996038328E+01 0.23038524225E+01 0.23076182678E+01
 0.23106618668E+01 0.23128630027E+01 0.23142250931E+01 0.23148789318E+01 0.23150591264E+01
 0.23150389735E+01 0.23150461125E+01 0.23152058417E+01 0.23155478106E+01 0.23160680075E+01
 0.23167914572E+01 0.23177745059E+01 0.23190359990E+01 0.23204745655E+01 0.23218487451E+01
 0.23228478840E+01 0.23175910325E+01 0.23169652295E+01 0.23152311767E+01 0.23128075852E+01
 0.23103193015E+01 0.23084240969E+01 0.23075768545E+01 0.23078624405E+01 0.23090067808E+01
 0.23105491812E+01 0.23120473104E+01 0.23131885261E+01 0.23137795525E+01 0.23136810801E+01
 0.23127689685E+01 0.23109499635E+01 0.23082047800E+01 0.23046234404E+01 0.23004223052E+01
 0.22959427604E+01 0.22916164343E+01 0.22878809249E+01 0.22850719383E+01 0.22833618785E+01
 0.22827923764E+01 0.22833618785E+01 0.22850719383E+01 0.22878809249E+01 0.22916164343E+01
 0.22959427604E+01 0.23004223052E+01 0.23046234404E+01 0.23082047800E+01 0.23109499635E+01
 0.23127689685E+01 0.23136810801E+01 0.23137795525E+01 0.23131885261E+01 0.23120473104E+01
 0.23105491812E+01 0.23090067808E+01 0.23078624405E+01 0.23075768545E+01 0.23084240969E+01
 0.23103193015E+01 0.23128075852E+01 0.23152311767E+01 0.23169652295E+01 0.22957728716E+01
 0.22956937524E+01 0.22955634443E+01 0.22956602418E+01 0.22963180261E+01 0.22977791051E+01
 0.23000790997E+01 0.23030185032E+01 0.23062280769E+01 0.23092816543E+01 0.23117943400E+01
 0.23134744325E+01 0.23141375775E+01 0.23137042479E+01 0.23121881503E+01 0.23096742767E+01
 0.23062971425E+01 0.23022417384E+01 0.22977724919E+01 0.22932551500E+01 0.22891189276E+01
 0.22857475435E+01 0.22833618785E+01 0.22819881634E+01 0.22815464363E+01 0.22819881634E+01
 0.22833618785E+01 0.22857475435E+01 0.22891189276E+01 0.22932551500E+01 0.22977724919E+01
 0.23022417384E+01 0.23062971425E+01 0.23096742767E+01 0.23121881503E+01 0.23137042479E+01
 0.23141375775E+01 0.23134744325E+01 0.23117943400E+01 0.23092816543E+01 0.23062280769E+01
 0.23030185032E+01 0.23000790997E+01 0.22977791051E+01 0.22963180261E+01 0.22956602418E+01
 0.22955634443E+01 0.22956937524E+01 0.22811521095E+01 0.22815464363E+01 0.22827923764E+01
 0.22850094552E+01 0.22882239876E+01 0.22922624559E+01 0.22967698730E+01 0.23013274526E+01
 0.23055691518E+01 0.23092178971E+01 0.23120500082E+01 0.23138608182E+01 0.23144861269E+01
 0.23138608182E+01 0.23120500082E+01 0.23092178971E+01 0.23055691518E+01 0.23013274526E+01
 0.22967698730E+01 0.22922624559E+01 0.22882239876E+01 0.22850094552E+01 0.22827923764E+01
 0.22815464363E+01 0.22811521095E+01 0.22815464363E+01 0.22827923764E+01 0.22850094552E+01
 0.22882239876E+01 0.22922624559E+01 0.22967698730E+01 0.23013274526E+01 0.23055691518E+01
 0.23092178971E+01 0.23120500082E+01 0.23138608182E+01 0.23144861269E+01 0.23138608182E+01
 0.23120500082E+01 0.23092178971E+01 0.23055691518E+01 0.23013274526E+01 0.22967698730E+01
 0.22922624559E+01 0.22882239876E+01 0.22850094552E+01 0.22827923764E+01 0.22815464363E+01
 0.22957728716E+01 0.22956937524E+01 0.22955634443E+01 0.22956602418E+01 0.22963180261E+01
 0.22977791051E+01 0.23000790997E+01 0.23030185032E+01 0.23062280769E+01 0.23092816543E+01
 0.23117943400E+01 0.23134744325E+01 0.23141375775E+01 0.23137042479E+01 0.23121881503E+01
 0.23096742767E+01 0.23062971425E+01 0.23022417384E+01 0.22977724919E+01 0.22932551500E+01
 0.22891189276E+01 0.22857475435E+01 0.22833618785E+01 0.22819881634E+01 0.22815464363E+01
 0.22819881634E+01 0.22833618785E+01 0.22857475435E+01 0.22891189276E+01 0.22932551500E+01
 0.22977724919E+01 0.23022417384E+01 0.23062971425E+01 0.23096742767E+01 0.23121881503E+01
 0.23137042479E+01 0.23141375775E+01 0.23134744325E+01 0.23117943400E+01 0.23092816543E+01
 0.23062280769E+01 0.23030185032E+01 0.23000790997E+01 0.22977791051E+01 0.22963180261E+01
 0.22956602418E+01 0.22955634443E+01 0.22956937524E+01 0.23175910325E+01 0.23169652295E+01
 0.23152311767E+01 0.23128075852E+01 0.23103193015E+01 0.23084240969E+01 0.23075768545E+01
 0.23078624405E+01 0.23090067808E+01 0.23105491812E+01 0.23120473104E+01 0.23131885261E+01
 0.23137795525E+01 0.23136810801E+01 0.23127689685E+01 0.23109499635E+01 0.23082047800E+01
 0.23046234404E+01 0.23004223052E+01 0.22959427604E+01 0.22916164343E+01 0.22878809249E+01
 0.22850719383E+01 0.22833618785E+01 0.22827923764E+01 0.22833618785E+01 0.22850719383E+01
 0.22878809249E+01 0.22916164343E+01 0.22959427604E+01 0.23004223052E+01 0.23046234404E+01
 0.23082047800E+01 0.23109499635E+01 0.23127689685E+01 0.23136810801E+01 0.23137795525E+01
 0.23131885261E+01 0.23120473104E+01 0.23105491812E+01 0.23090067808E+01 0.23078624405E+01
 0.23075768545E+01 0.23084240969E+01 0.23103193015E+01 0.23128075852E+01 0.23152311767E+01
 0.23169652295E+01 0.23232140858E+01 0.23228478840E+01 0.23218487451E+01 0.23204745655E+01
 0.23190359990E+01 0.23177745059E+01 0.23167914572E+01 0.23160680075E+01 0.23155478106E+01
 0.23152058417E+01 0.23150461125E+01 0.23150389735E+01 0.23150591264E+01 0.23148789318E+01
 0.23142250931E+01 0.23128630027E+01 0.23106618668E+01 0.23076182678E+01 0.23038524225E+01
 0.22996038328E+01 0.22952281820E+01 0.22911681540E+01 0.22878809249E+01 0.22857475435E+01
 0.22850094552E+01 0.22857475435E+01 0.22878809249E+01 0.22911681540E+01 0.22952281820E+01
 0.22996038328E+01 0.23038524225E+01 0.23076182678E+01 0.23106618668E+01 0.23128630027E+01
 0.23142250931E+01 0.23148789318E+01 0.23150591264E+01 0.23150389735E+01 0.23150461125E+01
 0.23152058417E+01 0.23155478106E+01 0.23160680075E+01 0.23167914572E+01 0.23177745059E+01
 0.23190359990E+01 0.23204745655E+01 0.23218487451E+01 0.23228478840E+01 0.23351715913E+01
 0.23349461196E+01 0.23343796682E+01 0.23336991035E+01 0.23330313500E+01 0.23322681539E+01
 0.23311392022E+01 0.23294405591E+01 0.23272315100E+01 0.23248385449E+01 0.23226629657E+01
 0.23209403809E+01 0.23196232486E+01 0.23184469543E+01 0.23171002701E+01 0.23153652823E+01
 0.23131478108E+01 0.23104225905E+01 0.23071798971E+01 0.23034420763E+01 0.22993467288E+01
 0.22952281820E+01 0.22916164343E+01 0.22891189276E+01 0.22882239876E+01 0.22891189276E+01
 0.22916164343E+01 0.22952281820E+01 0.22993467288E+01 0.23034420763E+01 0.23071798971E+01
 0.23104225905E+01 0.23131478108E+01 0.23153652823E+01 0.23171002701E+01 0.23184469543E+01
 0.23196232486E+01 0.23209403809E+01 0.23226629657E+01 0.23248385449E+01 0.23272315100E+01
 0.23294405591E+01 0.23311392022E+01 0.23322681539E+01 0.23330313500E+01 0.23336991035E+01
 0.23343796682E+01 0.23349461196E+01 0.23876108685E+01 0.23862612094E+01 0.23824858973E+01
 0.23769814933E+01 0.23705738053E+01 0.23639331098E+01 0.23574467421E+01 0.23512768314E+01
 0.23455105402E+01 0.23402648570E+01 0.23356634273E+01 0.23317237489E+01 0.23282850886E+01
 0.23250781297E+01 0.23218976285E+01 0.23187231786E+01 0.23156680245E+01 0.23127965237E+01
 0.23099797415E+01 0.23069343299E+01 0.23034420763E+01 0.22996038328E+01 0.22959427604E+01
 0.22932551500E+01 0.22922624559E+01 0.22932551500E+01 0.22959427604E+01 0.22996038328E+01
 0.23034420763E+01 0.23069343299E+01 0.23099797415E+01 0.23127965237E+01 0.23156680245E+01
 0.23187231786E+01 0.23218976285E+01 0.23250781297E+01 0.23282850886E+01 0.23317237489E+01
 0.23356634273E+01 0.23402648570E+01 0.23455105402E+01 0.23512768314E+01 0.23574467421E+01
 0.23639331098E+01 0.23705738053E+01 0.23769814933E+01 0.23824858973E+01 0.23862612094E+01
 0.24873493908E+01 0.24838251749E+01 0.24737793079E+01 0.24586650886E+01 0.24405164218E+01
 0.24214817226E+01 0.24033770991E+01 0.23873946064E+01 0.23740354849E+01 0.23632311083E+01
 0.23545395377E+01 0.23473279513E+01 0.23409391418E+01 0.23348795125E+01 0.23289954601E+01
 0.23235119734E+01 0.23188376896E+01 0.23152147401E+01 0.23124545571E+01 0.23099797415E+01
 0.23071798971E+01 0.23038524225E+01 0.23004223052E+01 0.22977724919E+01 0.22967698730E+01
 0.22977724919E+01 0.23004223052E+01 0.23038524225E+01 0.23071798971E+01 0.23099797415E+01
 0.23124545571E+01 0.23152147401E+01 0.23188376896E+01 0.23235119734E+01 0.23289954601E+01
 0.23348795125E+01 0.23409391418E+01 0.23473279513E+01 0.23545395377E+01 0.23632311083E+01
 0.23740354849E+01 0.23873946064E+01 0.24033770991E+01 0.24214817226E+01 0.24405164218E+01
 0.24586650886E+01 0.24737793079E+01 0.24838251749E+01 0.26624512473E+01 0.26553664347E+01
 0.26350729506E+01 0.26042287073E+01 0.25665975042E+01 0.25262963643E+01 0.24870969563E+01
 0.24519111521E+01 0.24224894261E+01 0.23993221010E+01 0.23817569439E+01 0.23683565998E+01
 0.23574528433E+01 0.23477368609E+01 0.23386509828E+01 0.23303983864E+01 0.23235643001E+01
 0.23185588918E+01 0.23152147401E+01 0.23127965237E+01 0.23104225905E+01 0.23076182678E+01
 0.23046234404E+01 0.23022417384E+01 0.23013274526E+01 0.23022417384E+01 0.23046234404E+01
 0.23076182678E+01 0.23104225905E+01 0.23127965237E+01 0.23152147401E+01 0.23185588918E+01
 0.23235643001E+01 0.23303983864E+01 0.23386509828E+01 0.23477368609E+01 0.23574528433E+01
 0.23683565998E+01 0.23817569439E+01 0.23993221010E+01 0.24224894261E+01 0.24519111521E+01
 0.24870969563E+01 0.25262963643E+01 0.25665975042E+01 0.26042287073E+01 0.26350729506E+01
 0.26553664347E+01 0.30245424069E+01 0.30096734018E+01 0.29670392846E+01 0.29020811519E+01
 0.28224830234E+01 0.27366775974E+01 0.26525246533E+01 0.25763519016E+01 0.25123326088E+01
 0.24621621946E+01 0.24251185303E+01 0.23986305137E+01 0.23793075123E+01 0.23641021178E+01
 0.23511341094E+01 0.23398478818E+01 0.23305323127E+01 0.23235643001E+01 0.23188376896E+01
 0.23156680245E+01 0.23131478108E+01 0.23106618668E+01 0.23082047800E+01 0.23062971425E+01
 0.23055691518E+01 0.23062971425E+01 0.23082047800E+01 0.23106618668E+01 0.23131478108E+01
 0.23156680245E+01 0.23188376896E+01 0.23235643001E+01 0.23305323127E+01 0.23398478818E+01
 0.23511341094E+01 0.23641021178E+01 0.23793075123E+01 0.23986305137E+01 0.24251185303E+01
 0.24621621946E+01 0.25123326088E+01 0.25763519016E+01 0.26525246533E+01 0.27366775974E+01
 0.28224830234E+01 0.29020811519E+01 0.29670392846E+01 0.30096734018E+01 0.37514165019E+01
 0.37203698501E+01 0.36313323052E+01 0.34956532298E+01 0.33294372118E+01 0.31504140621E+01
 0.29750566404E+01 0.28164588211E+01 0.26831075460E+01 0.25785097327E+01 0.25016202290E+01
 0.24479990738E+01 0.24114974904E+01 0.23860607296E+01 0.23671015003E+01 0.23520208802E+01
 0.23398478818E+01 0.23303983864E+01 0.23235119734E+01 0.23187231786E+01 0.23153652823E+01
 0.23128630027E+01 0.23109499635E+01 0.23096742767E+01 0.23092178971E+01 0.23096742767E+01
 0.23109499635E+01 0.23128630027E+01 0.23153652823E+01 0.23187231786E+01 0.23235119734E+01
 0.23303983864E+01 0.23398478818E+01 0.23520208802E+01 0.23671015003E+01 0.23860607296E+01
 0.24114974904E+01 0.24479990738E+01 0.25016202290E+01 0.25785097327E+01 0.26831075460E+01
 0.28164588211E+01 0.29750566404E+01 0.31504140621E+01 0.33294372118E+01 0.34956532298E+01