   2   2   0   0
  0.7384556E+02  0.5285890E-09  0.5285890E-09  0.5285890E-09  0.5000000E-15
  1.000000000000000E-004
  CAR 
 K                                       
     22.85035739    -34.88871652  301     -0.06875716      1.00000000
    -34.889  0.0000E+00  0.0000E+00
    -34.696  0.0000E+00  0.0000E+00
    -34.504  0.0000E+00  0.0000E+00
    -34.311  0.0000E+00  0.0000E+00
    -34.119  0.0000E+00  0.0000E+00
    -33.926  0.0000E+00  0.0000E+00
    -33.734  0.0000E+00  0.0000E+00
    -33.541  0.0000E+00  0.0000E+00
    -33.349  0.0000E+00  0.0000E+00
    -33.157  0.0000E+00  0.0000E+00
    -32.964  0.0000E+00  0.0000E+00
    -32.772  0.0000E+00  0.0000E+00
    -32.579  0.0000E+00  0.0000E+00
    -32.387  0.3676E-02  0.7074E-03
    -32.194  0.2014E+02  0.3876E+01
    -32.002  0.6422E+00  0.4000E+01
    -31.809  0.0000E+00  0.4000E+01
    -31.617  0.0000E+00  0.4000E+01
    -31.424  0.0000E+00  0.4000E+01
    -31.232  0.0000E+00  0.4000E+01
    -31.039  0.0000E+00  0.4000E+01
    -30.847  0.0000E+00  0.4000E+01
    -30.655  0.0000E+00  0.4000E+01
    -30.462  0.0000E+00  0.4000E+01
    -30.270  0.0000E+00  0.4000E+01
    -30.077  0.0000E+00  0.4000E+01
    -29.885  0.0000E+00  0.4000E+01
    -29.692  0.0000E+00  0.4000E+01
    -29.500  0.0000E+00  0.4000E+01
    -29.307  0.0000E+00  0.4000E+01
    -29.115  0.0000E+00  0.4000E+01
    -28.922  0.0000E+00  0.4000E+01
    -28.730  0.0000E+00  0.4000E+01
    -28.537  0.0000E+00  0.4000E+01
    -28.345  0.0000E+00  0.4000E+01
    -28.152  0.0000E+00  0.4000E+01
    -27.960  0.0000E+00  0.4000E+01
    -27.768  0.0000E+00  0.4000E+01
    -27.575  0.0000E+00  0.4000E+01
    -27.383  0.0000E+00  0.4000E+01
    -27.190  0.0000E+00  0.4000E+01
    -26.998  0.0000E+00  0.4000E+01
    -26.805  0.0000E+00  0.4000E+01
    -26.613  0.0000E+00  0.4000E+01
    -26.420  0.0000E+00  0.4000E+01
    -26.228  0.0000E+00  0.4000E+01
    -26.035  0.0000E+00  0.4000E+01
    -25.843  0.0000E+00  0.4000E+01
    -25.650  0.0000E+00  0.4000E+01
    -25.458  0.0000E+00  0.4000E+01
    -25.266  0.0000E+00  0.4000E+01
    -25.073  0.0000E+00  0.4000E+01
    -24.881  0.0000E+00  0.4000E+01
    -24.688  0.0000E+00  0.4000E+01
    -24.496  0.0000E+00  0.4000E+01
    -24.303  0.0000E+00  0.4000E+01
    -24.111  0.0000E+00  0.4000E+01
    -23.918  0.0000E+00  0.4000E+01
    -23.726  0.0000E+00  0.4000E+01
    -23.533  0.0000E+00  0.4000E+01
    -23.341  0.0000E+00  0.4000E+01
    -23.148  0.0000E+00  0.4000E+01
    -22.956  0.0000E+00  0.4000E+01
    -22.764  0.0000E+00  0.4000E+01
    -22.571  0.0000E+00  0.4000E+01
    -22.379  0.0000E+00  0.4000E+01
    -22.186  0.0000E+00  0.4000E+01
    -21.994  0.0000E+00  0.4000E+01
    -21.801  0.0000E+00  0.4000E+01
    -21.609  0.0000E+00  0.4000E+01
    -21.416  0.0000E+00  0.4000E+01
    -21.224  0.0000E+00  0.4000E+01
    -21.031  0.0000E+00  0.4000E+01
    -20.839  0.0000E+00  0.4000E+01
    -20.646  0.0000E+00  0.4000E+01
    -20.454  0.0000E+00  0.4000E+01
    -20.261  0.0000E+00  0.4000E+01
    -20.069  0.0000E+00  0.4000E+01
    -19.877  0.0000E+00  0.4000E+01
    -19.684  0.0000E+00  0.4000E+01
    -19.492  0.0000E+00  0.4000E+01
    -19.299  0.0000E+00  0.4000E+01
    -19.107  0.0000E+00  0.4000E+01
    -18.914  0.0000E+00  0.4000E+01
    -18.722  0.0000E+00  0.4000E+01
    -18.529  0.0000E+00  0.4000E+01
    -18.337  0.0000E+00  0.4000E+01
    -18.144  0.0000E+00  0.4000E+01
    -17.952  0.0000E+00  0.4000E+01
    -17.759  0.0000E+00  0.4000E+01
    -17.567  0.0000E+00  0.4000E+01
    -17.375  0.0000E+00  0.4000E+01
    -17.182  0.0000E+00  0.4000E+01
    -16.990  0.0000E+00  0.4000E+01
    -16.797  0.0000E+00  0.4000E+01
    -16.605  0.0000E+00  0.4000E+01
    -16.412  0.0000E+00  0.4000E+01
    -16.220  0.0000E+00  0.4000E+01
    -16.027  0.2830E-11  0.4000E+01
    -15.835  0.6346E+00  0.4122E+01
    -15.642  0.6135E+02  0.1593E+02
    -15.450  0.3694E+00  0.1600E+02
    -15.257  0.0000E+00  0.1600E+02
    -15.065  0.0000E+00  0.1600E+02
    -14.873  0.0000E+00  0.1600E+02
    -14.680  0.0000E+00  0.1600E+02
    -14.488  0.0000E+00  0.1600E+02
    -14.295  0.0000E+00  0.1600E+02
    -14.103  0.0000E+00  0.1600E+02
    -13.910  0.0000E+00  0.1600E+02
    -13.718  0.0000E+00  0.1600E+02
    -13.525  0.0000E+00  0.1600E+02
    -13.333  0.0000E+00  0.1600E+02
    -13.140  0.0000E+00  0.1600E+02
    -12.948  0.0000E+00  0.1600E+02
    -12.755  0.0000E+00  0.1600E+02
    -12.563  0.0000E+00  0.1600E+02
    -12.370  0.0000E+00  0.1600E+02
    -12.178  0.0000E+00  0.1600E+02
    -11.986  0.0000E+00  0.1600E+02
    -11.793  0.0000E+00  0.1600E+02
    -11.601  0.0000E+00  0.1600E+02
    -11.408  0.0000E+00  0.1600E+02
    -11.216  0.0000E+00  0.1600E+02
    -11.023  0.0000E+00  0.1600E+02
    -10.831  0.0000E+00  0.1600E+02
    -10.638  0.0000E+00  0.1600E+02
    -10.446  0.0000E+00  0.1600E+02
    -10.253  0.0000E+00  0.1600E+02
    -10.061  0.0000E+00  0.1600E+02
     -9.868  0.0000E+00  0.1600E+02
     -9.676  0.0000E+00  0.1600E+02
     -9.484  0.0000E+00  0.1600E+02
     -9.291  0.0000E+00  0.1600E+02
     -9.099  0.0000E+00  0.1600E+02
     -8.906  0.0000E+00  0.1600E+02
     -8.714  0.0000E+00  0.1600E+02
     -8.521  0.0000E+00  0.1600E+02
     -8.329  0.0000E+00  0.1600E+02
     -8.136  0.0000E+00  0.1600E+02
     -7.944  0.0000E+00  0.1600E+02
     -7.751  0.0000E+00  0.1600E+02
     -7.559  0.0000E+00  0.1600E+02
     -7.366  0.0000E+00  0.1600E+02
     -7.174  0.0000E+00  0.1600E+02
     -6.981  0.0000E+00  0.1600E+02
     -6.789  0.0000E+00  0.1600E+02
     -6.597  0.0000E+00  0.1600E+02
     -6.404  0.0000E+00  0.1600E+02
     -6.212  0.0000E+00  0.1600E+02
     -6.019  0.0000E+00  0.1600E+02
     -5.827  0.0000E+00  0.1600E+02
     -5.634  0.0000E+00  0.1600E+02
     -5.442  0.0000E+00  0.1600E+02
     -5.249  0.0000E+00  0.1600E+02
     -5.057  0.0000E+00  0.1600E+02
     -4.864  0.0000E+00  0.1600E+02
     -4.672  0.0000E+00  0.1600E+02
     -4.479  0.0000E+00  0.1600E+02
     -4.287  0.0000E+00  0.1600E+02
     -4.095  0.0000E+00  0.1600E+02
     -3.902  0.0000E+00  0.1600E+02
     -3.710  0.0000E+00  0.1600E+02
     -3.517  0.0000E+00  0.1600E+02
     -3.325  0.0000E+00  0.1600E+02
     -3.132  0.0000E+00  0.1600E+02
     -2.940  0.0000E+00  0.1600E+02
     -2.747  0.0000E+00  0.1600E+02
     -2.555  0.4056E-16  0.1600E+02
     -2.362  0.1606E-03  0.1600E+02
     -2.170  0.9672E-01  0.1602E+02
     -1.977  0.3914E+00  0.1609E+02
     -1.785  0.5154E+00  0.1619E+02
     -1.593  0.6468E+00  0.1632E+02
     -1.400  0.7666E+00  0.1647E+02
     -1.208  0.1026E+01  0.1666E+02
     -1.015  0.9056E+00  0.1684E+02
     -0.823  0.8073E+00  0.1699E+02
     -0.630  0.1590E+01  0.1730E+02
     -0.438  0.1275E+01  0.1754E+02
     -0.245  0.1330E+01  0.1780E+02
     -0.053  0.1216E+01  0.1803E+02
      0.140  0.1994E+01  0.1842E+02
      0.332  0.2376E+01  0.1887E+02
      0.525  0.9025E+00  0.1905E+02
      0.717  0.2592E+01  0.1955E+02
      0.910  0.2340E+01  0.2000E+02
      1.102  0.2468E+01  0.2047E+02
      1.294  0.2484E+01  0.2095E+02
      1.487  0.3481E+01  0.2162E+02
      1.679  0.1919E+01  0.2199E+02
      1.872  0.4203E+01  0.2280E+02
      2.064  0.1673E+01  0.2312E+02
      2.257  0.2647E+01  0.2363E+02
      2.449  0.3334E+01  0.2427E+02
      2.642  0.2237E+01  0.2470E+02
      2.834  0.4224E+01  0.2552E+02
      3.027  0.3028E+01  0.2610E+02
      3.219  0.3529E+01  0.2678E+02
      3.412  0.5472E+01  0.2783E+02
      3.604  0.2551E+01  0.2832E+02
      3.796  0.2461E+01  0.2880E+02
      3.989  0.2544E+01  0.2929E+02
      4.181  0.3848E+01  0.3003E+02
      4.374  0.3601E+01  0.3072E+02
      4.566  0.4933E+01  0.3167E+02
      4.759  0.5938E+01  0.3281E+02
      4.951  0.4610E+01  0.3370E+02
      5.144  0.6084E+01  0.3487E+02
      5.336  0.5067E+01  0.3584E+02
      5.529  0.9593E+01  0.3769E+02
      5.721  0.8719E+01  0.3937E+02
      5.914  0.1998E+01  0.3975E+02
      6.106  0.1088E+01  0.3996E+02
      6.298  0.2824E+01  0.4051E+02
      6.491  0.1201E+02  0.4282E+02
      6.683  0.8215E+01  0.4440E+02
      6.876  0.4603E+01  0.4528E+02
      7.068  0.6854E+01  0.4660E+02
      7.261  0.7878E+01  0.4812E+02
      7.453  0.6648E+01  0.4940E+02
      7.646  0.3729E+01  0.5012E+02
      7.838  0.2372E+01  0.5057E+02
      8.031  0.1974E+01  0.5095E+02
      8.223  0.2451E+01  0.5142E+02
      8.416  0.1747E+01  0.5176E+02
      8.608  0.1148E+01  0.5198E+02
      8.801  0.7225E+00  0.5212E+02
      8.993  0.1701E+01  0.5245E+02
      9.185  0.1760E+01  0.5279E+02
      9.378  0.3632E+01  0.5349E+02
      9.570  0.6316E+01  0.5470E+02
      9.763  0.6168E+01  0.5589E+02
      9.955  0.2580E+01  0.5639E+02
     10.148  0.4637E+01  0.5728E+02
     10.340  0.5072E+01  0.5825E+02
     10.533  0.3868E+01  0.5900E+02
     10.725  0.5949E+01  0.6014E+02
     10.918  0.5952E+01  0.6129E+02
     11.110  0.2652E+01  0.6180E+02
     11.303  0.3815E+01  0.6253E+02
     11.495  0.3842E+01  0.6327E+02
     11.687  0.4485E+01  0.6414E+02
     11.880  0.2677E+01  0.6465E+02
     12.072  0.5801E+01  0.6577E+02
     12.265  0.5510E+01  0.6683E+02
     12.457  0.1841E+01  0.6718E+02
     12.650  0.3793E+01  0.6791E+02
     12.842  0.3256E+01  0.6854E+02
     13.035  0.6084E+01  0.6971E+02
     13.227  0.4563E+01  0.7059E+02
     13.420  0.3361E+01  0.7124E+02
     13.612  0.5707E+01  0.7233E+02
     13.805  0.4307E+01  0.7316E+02
     13.997  0.3154E+01  0.7377E+02
     14.189  0.4618E+01  0.7466E+02
     14.382  0.4571E+01  0.7554E+02
     14.574  0.1942E+01  0.7591E+02
     14.767  0.2083E+01  0.7631E+02
     14.959  0.6029E+01  0.7747E+02
     15.152  0.2828E+01  0.7802E+02
     15.344  0.5214E+01  0.7902E+02
     15.537  0.3170E+01  0.7963E+02
     15.729  0.2675E+01  0.8015E+02
     15.922  0.7249E+01  0.8154E+02
     16.114  0.7099E+01  0.8291E+02
     16.307  0.7080E+01  0.8427E+02
     16.499  0.2714E+01  0.8479E+02
     16.692  0.5633E+01  0.8588E+02
     16.884  0.6903E+01  0.8721E+02
     17.076  0.5714E+01  0.8831E+02
     17.269  0.5206E+01  0.8931E+02
     17.461  0.1237E+01  0.8955E+02
     17.654  0.2263E+01  0.8998E+02
     17.846  0.4379E+01  0.9082E+02
     18.039  0.4796E+01  0.9175E+02
     18.231  0.6180E+01  0.9294E+02
     18.424  0.4723E+01  0.9385E+02
     18.616  0.3120E+01  0.9445E+02
     18.809  0.2929E+01  0.9501E+02
     19.001  0.1819E+01  0.9536E+02
     19.194  0.7905E+00  0.9551E+02
     19.386  0.9754E+00  0.9570E+02
     19.578  0.1075E+01  0.9591E+02
     19.771  0.1024E+00  0.9593E+02
     19.963  0.2296E-01  0.9593E+02
     20.156  0.1241E+00  0.9595E+02
     20.348  0.2377E+00  0.9600E+02
     20.541  0.6431E-04  0.9600E+02
     20.733  0.0000E+00  0.9600E+02
     20.926  0.0000E+00  0.9600E+02
     21.118  0.0000E+00  0.9600E+02
     21.311  0.0000E+00  0.9600E+02
     21.503  0.0000E+00  0.9600E+02
     21.696  0.0000E+00  0.9600E+02
     21.888  0.0000E+00  0.9600E+02
     22.081  0.0000E+00  0.9600E+02
     22.273  0.0000E+00  0.9600E+02
     22.465  0.0000E+00  0.9600E+02
     22.658  0.0000E+00  0.9600E+02
     22.850  0.0000E+00  0.9600E+02
