K                                       
           1
     5.285890    0.000000    0.000000
     0.000000    5.285890    0.000000
     0.000000    0.000000    5.285890
   K 
     2
Direct configuration=     1
   0.00000000  0.00000000  0.00000000
   0.50000000  0.50000000  0.50000000
