 DBCSR| CPU Multiplication driver                                           BLAS (U)
 DBCSR| Multrec recursion limit                                              512 (U)
 DBCSR| Multiplication stack size                                           1000 (D)
 DBCSR| Maximum elements for images                                    UNLIMITED (U)
 DBCSR| Multiplicative factor virtual images                                   1 (U)
 DBCSR| Use multiplication densification                                       T (D)
 DBCSR| Multiplication size stacks                                             3 (U)
 DBCSR| Use memory pool for CPU allocation                                     F (U)
 DBCSR| Number of 3D layers                                               SINGLE (U)
 DBCSR| Use MPI memory allocation                                              F (U)
 DBCSR| Use RMA algorithm                                                      F (U)
 DBCSR| Use Communication thread                                               T (U)
 DBCSR| Communication thread load                                             45 (D)
 DBCSR| MPI: My process id                                                     0
 DBCSR| MPI: Number of processes                                               8
 DBCSR| OMP: Current number of threads                                        12
 DBCSR| OMP: Max number of threads                                            12
 DBCSR| Split modifier for TAS multiplication algorithm                  1.0E+00 (U)


  **** **** ******  **  PROGRAM STARTED AT               2025-08-03 21:26:55.856
 ***** ** ***  *** **   PROGRAM STARTED ON                          i03r10c06s05
 **    ****   ******    PROGRAM STARTED BY                               di38fab
 ***** **    ** ** **   PROGRAM PROCESS ID                                331775
  **** **  *******  **  PROGRAM STARTED IN /hppfs/scratch/04/di38fab/09_GTH/Delt
                                           a_Set/H/TZVP-MOLOPT-PBE-GTH/8x8x8

 CP2K| version string:                 CP2K version 2025.1 (Development Version)
 CP2K| source code revision number:                                  git:3130539
 CP2K| cp2kflags: omp libint fftw3 libxc parallel scalapack max_contr=4         
 CP2K| is freely available from                            https://www.cp2k.org/
 CP2K| Program compiled at                         Tue Jun  3 16:14:32 CEST 2025
 CP2K| Program compiled on                                               login01
 CP2K| Program compiled for                                        Supermuc-foss
 CP2K| Data directory path                  /hppfs/work/pn36zo/di38fab/cp2k/data
 CP2K| Input file name                                                    GW.inp

 GLOBAL| Force Environment number                                              1
 GLOBAL| Basis set file name            /hppfs/scratch/04/di38fab/09_GTH/BASIS_A
 GLOBAL| Potential file name            /hppfs/work/pn36zo/di38fab/cp2k/data/GTH
 GLOBAL| MM Potential file name                                     MM_POTENTIAL
 GLOBAL| Coordinate file name                                              H.cif
 GLOBAL| Method name                                                        CP2K
 GLOBAL| Project name                                                       WSe2
 GLOBAL| Run type                                                         ENERGY
 GLOBAL| FFT library                                                       FFTW3
 GLOBAL| Diagonalization library                                       ScaLAPACK
 GLOBAL| Cholesky decomposition library                                ScaLAPACK
 GLOBAL| DGEMM library                                                      BLAS
 GLOBAL| Orthonormality check for eigenvectors                          DISABLED
 GLOBAL| Matrix multiplication library                                 ScaLAPACK
 GLOBAL| All-to-all communication in single precision                          F
 GLOBAL| FFTs using library dependent lengths                                  F
 GLOBAL| Grid backend                                                       AUTO
 GLOBAL| Global print level                                               MEDIUM
 GLOBAL| MPI I/O enabled                                                       T
 GLOBAL| Total number of message passing processes                             8
 GLOBAL| Number of threads for this process                                   12
 GLOBAL| This output is from process                                           0
 GLOBAL| OpenMP stack size per thread (OMP_STACKSIZE)                    default
 GLOBAL| CPU model name             Intel(R) Xeon(R) Platinum 8174 CPU @ 3.10GHz

 MEMORY| system memory details [Kb]
 MEMORY|                        rank 0           min           max       average
 MEMORY| MemTotal             98436660      98436660      98436664      98436662
 MEMORY| MemFree              85343572      84986248      85343572      85164910
 MEMORY| Buffers                     0             0             0             0
 MEMORY| Cached                2367072       2367072       2374320       2370696
 MEMORY| Slab                  1183820       1183820       1226772       1205296
 MEMORY| SReclaimable           267216        267196        267216        267206
 MEMORY| MemLikelyFree        87977860      87627764      87977860      87802812


 *** Fundamental physical constants (SI units) ***

 *** Literature: B. J. Mohr and B. N. Taylor,
 ***             CODATA recommended values of the fundamental physical
 ***             constants: 2006, Web Version 5.1
 ***             http://physics.nist.gov/constants

 Speed of light in vacuum [m/s]                             2.99792458000000E+08
 Magnetic constant or permeability of vacuum [N/A**2]       1.25663706143592E-06
 Electric constant or permittivity of vacuum [F/m]          8.85418781762039E-12
 Planck constant (h) [J*s]                                  6.62606896000000E-34
 Planck constant (h-bar) [J*s]                              1.05457162825177E-34
 Elementary charge [C]                                      1.60217648700000E-19
 Electron mass [kg]                                         9.10938215000000E-31
 Electron g factor [ ]                                     -2.00231930436220E+00
 Proton mass [kg]                                           1.67262163700000E-27
 Fine-structure constant                                    7.29735253760000E-03
 Rydberg constant [1/m]                                     1.09737315685270E+07
 Avogadro constant [1/mol]                                  6.02214179000000E+23
 Boltzmann constant [J/K]                                   1.38065040000000E-23
 Atomic mass unit [kg]                                      1.66053878200000E-27
 Bohr radius [m]                                            5.29177208590000E-11

 *** Conversion factors ***

 [u] -> [a.u.]                                              1.82288848426455E+03
 [Angstrom] -> [Bohr] = [a.u.]                              1.88972613288564E+00
 [a.u.] = [Bohr] -> [Angstrom]                              5.29177208590000E-01
 [a.u.] -> [s]                                              2.41888432650478E-17
 [a.u.] -> [fs]                                             2.41888432650478E-02
 [a.u.] -> [J]                                              4.35974393937059E-18
 [a.u.] -> [N]                                              8.23872205491840E-08
 [a.u.] -> [K]                                              3.15774647902944E+05
 [a.u.] -> [kJ/mol]                                         2.62549961709828E+03
 [a.u.] -> [kcal/mol]                                       6.27509468713739E+02
 [a.u.] -> [Pa]                                             2.94210107994716E+13
 [a.u.] -> [bar]                                            2.94210107994716E+08
 [a.u.] -> [atm]                                            2.90362800883016E+08
 [a.u.] -> [eV]                                             2.72113838565563E+01
 [a.u.] -> [Hz]                                             6.57968392072181E+15
 [a.u.] -> [1/cm] (wave numbers)                            2.19474631370540E+05
 [a.u./Bohr**2] -> [1/cm]                                   5.14048714338585E+03
 

 CELL_TOP| Volume [angstrom^3]:                                        69.587908
 CELL_TOP| Vector a [angstrom     4.008     0.000     0.000   |a| =     4.007590
 CELL_TOP| Vector b [angstrom    -2.004     3.471     0.000   |b| =     4.007590
 CELL_TOP| Vector c [angstrom     0.000     0.000     5.003   |c| =     5.003070
 CELL_TOP| Angle (b,c), alpha [degree]:                                90.000000
 CELL_TOP| Angle (a,c), beta  [degree]:                                90.000000
 CELL_TOP| Angle (a,b), gamma [degree]:                               120.000000
 CELL_TOP| Numerically orthorhombic:                                          NO
 CELL_TOP| Periodicity                                                       XYZ

 CELL_CIF| Volume [angstrom^3]:                                        69.587908
 CELL_CIF| Vector a [angstrom     4.008     0.000     0.000   |a| =     4.007590
 CELL_CIF| Vector b [angstrom    -2.004     3.471     0.000   |b| =     4.007590
 CELL_CIF| Vector c [angstrom     0.000     0.000     5.003   |c| =     5.003070
 CELL_CIF| Angle (b,c), alpha [degree]:                                90.000000
 CELL_CIF| Angle (a,c), beta  [degree]:                                90.000000
 CELL_CIF| Angle (a,b), gamma [degree]:                               120.000000
 CELL_CIF| Numerically orthorhombic:                                          NO
 CELL_CIF| Periodicity                                                       XYZ

 GENERATE|  Preliminary Number of Bonds generated:                             0
 GENERATE|  Achieved consistency in connectivity generation.

 CELL| Volume [angstrom^3]:                                            69.587908
 CELL| Vector a [angstrom]:       4.008     0.000     0.000   |a| =     4.007590
 CELL| Vector b [angstrom]:      -2.004     3.471     0.000   |b| =     4.007590
 CELL| Vector c [angstrom]:       0.000     0.000     5.003   |c| =     5.003070
 CELL| Angle (b,c), alpha [degree]:                                    90.000000
 CELL| Angle (a,c), beta  [degree]:                                    90.000000
 CELL| Angle (a,b), gamma [degree]:                                   120.000000
 CELL| Numerically orthorhombic:                                              NO
 CELL| Periodicity                                                           XYZ

 CELL_REF| Volume [angstrom^3]:                                        69.587908
 CELL_REF| Vector a [angstrom     4.008     0.000     0.000   |a| =     4.007590
 CELL_REF| Vector b [angstrom    -2.004     3.471     0.000   |b| =     4.007590
 CELL_REF| Vector c [angstrom     0.000     0.000     5.003   |c| =     5.003070
 CELL_REF| Angle (b,c), alpha [degree]:                                90.000000
 CELL_REF| Angle (a,c), beta  [degree]:                                90.000000
 CELL_REF| Angle (a,b), gamma [degree]:                               120.000000
 CELL_REF| Numerically orthorhombic:                                          NO
 CELL_REF| Periodicity                                                       XYZ

 *** WARNING in cryssym.F:180 :: Symmetry library SPGLIB not available ***


 *******************************************************************************
                                    Kpoints
 *******************************************************************************
 BRILLOUIN| K-point scheme                                        Monkhorst-Pack
 BRILLOUIN| K-Point grid                                             8    8    8
 BRILLOUIN| Accuracy in Symmetry determination                      0.100000E-05
 BRILLOUIN| K-Point point group symmetrization                               OFF
 BRILLOUIN| Wavefunction type                                            COMPLEX
 BRILLOUIN| List of Kpoints [2 Pi/Bohr]                                      256
 BRILLOUIN| Number           Weight            X              Y              Z
 BRILLOUIN|     1           0.00391       -0.43750       -0.43750       -0.43750
 BRILLOUIN|     2           0.00391       -0.43750       -0.43750       -0.31250
 BRILLOUIN|     3           0.00391       -0.43750       -0.43750       -0.18750
 BRILLOUIN|     4           0.00391       -0.43750       -0.43750       -0.06250
 BRILLOUIN|     5           0.00391       -0.43750       -0.43750        0.06250
 BRILLOUIN|     6           0.00391       -0.43750       -0.43750        0.18750
 BRILLOUIN|     7           0.00391       -0.43750       -0.43750        0.31250
 BRILLOUIN|     8           0.00391       -0.43750       -0.43750        0.43750
 BRILLOUIN|     9           0.00391       -0.43750       -0.31250       -0.43750
 BRILLOUIN|    10           0.00391       -0.43750       -0.31250       -0.31250
 BRILLOUIN|    11           0.00391       -0.43750       -0.31250       -0.18750
 BRILLOUIN|    12           0.00391       -0.43750       -0.31250       -0.06250
 BRILLOUIN|    13           0.00391       -0.43750       -0.31250        0.06250
 BRILLOUIN|    14           0.00391       -0.43750       -0.31250        0.18750
 BRILLOUIN|    15           0.00391       -0.43750       -0.31250        0.31250
 BRILLOUIN|    16           0.00391       -0.43750       -0.31250        0.43750
 BRILLOUIN|    17           0.00391       -0.43750       -0.18750       -0.43750
 BRILLOUIN|    18           0.00391       -0.43750       -0.18750       -0.31250
 BRILLOUIN|    19           0.00391       -0.43750       -0.18750       -0.18750
 BRILLOUIN|    20           0.00391       -0.43750       -0.18750       -0.06250
 BRILLOUIN|    21           0.00391       -0.43750       -0.18750        0.06250
 BRILLOUIN|    22           0.00391       -0.43750       -0.18750        0.18750
 BRILLOUIN|    23           0.00391       -0.43750       -0.18750        0.31250
 BRILLOUIN|    24           0.00391       -0.43750       -0.18750        0.43750
 BRILLOUIN|    25           0.00391       -0.43750       -0.06250       -0.43750
 BRILLOUIN|    26           0.00391       -0.43750       -0.06250       -0.31250
 BRILLOUIN|    27           0.00391       -0.43750       -0.06250       -0.18750
 BRILLOUIN|    28           0.00391       -0.43750       -0.06250       -0.06250
 BRILLOUIN|    29           0.00391       -0.43750       -0.06250        0.06250
 BRILLOUIN|    30           0.00391       -0.43750       -0.06250        0.18750
 BRILLOUIN|    31           0.00391       -0.43750       -0.06250        0.31250
 BRILLOUIN|    32           0.00391       -0.43750       -0.06250        0.43750
 BRILLOUIN|    33           0.00391       -0.43750        0.06250       -0.43750
 BRILLOUIN|    34           0.00391       -0.43750        0.06250       -0.31250
 BRILLOUIN|    35           0.00391       -0.43750        0.06250       -0.18750
 BRILLOUIN|    36           0.00391       -0.43750        0.06250       -0.06250
 BRILLOUIN|    37           0.00391       -0.43750        0.06250        0.06250
 BRILLOUIN|    38           0.00391       -0.43750        0.06250        0.18750
 BRILLOUIN|    39           0.00391       -0.43750        0.06250        0.31250
 BRILLOUIN|    40           0.00391       -0.43750        0.06250        0.43750
 BRILLOUIN|    41           0.00391       -0.43750        0.18750       -0.43750
 BRILLOUIN|    42           0.00391       -0.43750        0.18750       -0.31250
 BRILLOUIN|    43           0.00391       -0.43750        0.18750       -0.18750
 BRILLOUIN|    44           0.00391       -0.43750        0.18750       -0.06250
 BRILLOUIN|    45           0.00391       -0.43750        0.18750        0.06250
 BRILLOUIN|    46           0.00391       -0.43750        0.18750        0.18750
 BRILLOUIN|    47           0.00391       -0.43750        0.18750        0.31250
 BRILLOUIN|    48           0.00391       -0.43750        0.18750        0.43750
 BRILLOUIN|    49           0.00391       -0.43750        0.31250       -0.43750
 BRILLOUIN|    50           0.00391       -0.43750        0.31250       -0.31250
 BRILLOUIN|    51           0.00391       -0.43750        0.31250       -0.18750
 BRILLOUIN|    52           0.00391       -0.43750        0.31250       -0.06250
 BRILLOUIN|    53           0.00391       -0.43750        0.31250        0.06250
 BRILLOUIN|    54           0.00391       -0.43750        0.31250        0.18750
 BRILLOUIN|    55           0.00391       -0.43750        0.31250        0.31250
 BRILLOUIN|    56           0.00391       -0.43750        0.31250        0.43750
 BRILLOUIN|    57           0.00391       -0.43750        0.43750       -0.43750
 BRILLOUIN|    58           0.00391       -0.43750        0.43750       -0.31250
 BRILLOUIN|    59           0.00391       -0.43750        0.43750       -0.18750
 BRILLOUIN|    60           0.00391       -0.43750        0.43750       -0.06250
 BRILLOUIN|    61           0.00391       -0.43750        0.43750        0.06250
 BRILLOUIN|    62           0.00391       -0.43750        0.43750        0.18750
 BRILLOUIN|    63           0.00391       -0.43750        0.43750        0.31250
 BRILLOUIN|    64           0.00391       -0.43750        0.43750        0.43750
 BRILLOUIN|    65           0.00391       -0.31250       -0.43750       -0.43750
 BRILLOUIN|    66           0.00391       -0.31250       -0.43750       -0.31250
 BRILLOUIN|    67           0.00391       -0.31250       -0.43750       -0.18750
 BRILLOUIN|    68           0.00391       -0.31250       -0.43750       -0.06250
 BRILLOUIN|    69           0.00391       -0.31250       -0.43750        0.06250
 BRILLOUIN|    70           0.00391       -0.31250       -0.43750        0.18750
 BRILLOUIN|    71           0.00391       -0.31250       -0.43750        0.31250
 BRILLOUIN|    72           0.00391       -0.31250       -0.43750        0.43750
 BRILLOUIN|    73           0.00391       -0.31250       -0.31250       -0.43750
 BRILLOUIN|    74           0.00391       -0.31250       -0.31250       -0.31250
 BRILLOUIN|    75           0.00391       -0.31250       -0.31250       -0.18750
 BRILLOUIN|    76           0.00391       -0.31250       -0.31250       -0.06250
 BRILLOUIN|    77           0.00391       -0.31250       -0.31250        0.06250
 BRILLOUIN|    78           0.00391       -0.31250       -0.31250        0.18750
 BRILLOUIN|    79           0.00391       -0.31250       -0.31250        0.31250
 BRILLOUIN|    80           0.00391       -0.31250       -0.31250        0.43750
 BRILLOUIN|    81           0.00391       -0.31250       -0.18750       -0.43750
 BRILLOUIN|    82           0.00391       -0.31250       -0.18750       -0.31250
 BRILLOUIN|    83           0.00391       -0.31250       -0.18750       -0.18750
 BRILLOUIN|    84           0.00391       -0.31250       -0.18750       -0.06250
 BRILLOUIN|    85           0.00391       -0.31250       -0.18750        0.06250
 BRILLOUIN|    86           0.00391       -0.31250       -0.18750        0.18750
 BRILLOUIN|    87           0.00391       -0.31250       -0.18750        0.31250
 BRILLOUIN|    88           0.00391       -0.31250       -0.18750        0.43750
 BRILLOUIN|    89           0.00391       -0.31250       -0.06250       -0.43750
 BRILLOUIN|    90           0.00391       -0.31250       -0.06250       -0.31250
 BRILLOUIN|    91           0.00391       -0.31250       -0.06250       -0.18750
 BRILLOUIN|    92           0.00391       -0.31250       -0.06250       -0.06250
 BRILLOUIN|    93           0.00391       -0.31250       -0.06250        0.06250
 BRILLOUIN|    94           0.00391       -0.31250       -0.06250        0.18750
 BRILLOUIN|    95           0.00391       -0.31250       -0.06250        0.31250
 BRILLOUIN|    96           0.00391       -0.31250       -0.06250        0.43750
 BRILLOUIN|    97           0.00391       -0.31250        0.06250       -0.43750
 BRILLOUIN|    98           0.00391       -0.31250        0.06250       -0.31250
 BRILLOUIN|    99           0.00391       -0.31250        0.06250       -0.18750
 BRILLOUIN|   100           0.00391       -0.31250        0.06250       -0.06250
 BRILLOUIN|   101           0.00391       -0.31250        0.06250        0.06250
 BRILLOUIN|   102           0.00391       -0.31250        0.06250        0.18750
 BRILLOUIN|   103           0.00391       -0.31250        0.06250        0.31250
 BRILLOUIN|   104           0.00391       -0.31250        0.06250        0.43750
 BRILLOUIN|   105           0.00391       -0.31250        0.18750       -0.43750
 BRILLOUIN|   106           0.00391       -0.31250        0.18750       -0.31250
 BRILLOUIN|   107           0.00391       -0.31250        0.18750       -0.18750
 BRILLOUIN|   108           0.00391       -0.31250        0.18750       -0.06250
 BRILLOUIN|   109           0.00391       -0.31250        0.18750        0.06250
 BRILLOUIN|   110           0.00391       -0.31250        0.18750        0.18750
 BRILLOUIN|   111           0.00391       -0.31250        0.18750        0.31250
 BRILLOUIN|   112           0.00391       -0.31250        0.18750        0.43750
 BRILLOUIN|   113           0.00391       -0.31250        0.31250       -0.43750
 BRILLOUIN|   114           0.00391       -0.31250        0.31250       -0.31250
 BRILLOUIN|   115           0.00391       -0.31250        0.31250       -0.18750
 BRILLOUIN|   116           0.00391       -0.31250        0.31250       -0.06250
 BRILLOUIN|   117           0.00391       -0.31250        0.31250        0.06250
 BRILLOUIN|   118           0.00391       -0.31250        0.31250        0.18750
 BRILLOUIN|   119           0.00391       -0.31250        0.31250        0.31250
 BRILLOUIN|   120           0.00391       -0.31250        0.31250        0.43750
 BRILLOUIN|   121           0.00391       -0.31250        0.43750       -0.43750
 BRILLOUIN|   122           0.00391       -0.31250        0.43750       -0.31250
 BRILLOUIN|   123           0.00391       -0.31250        0.43750       -0.18750
 BRILLOUIN|   124           0.00391       -0.31250        0.43750       -0.06250
 BRILLOUIN|   125           0.00391       -0.31250        0.43750        0.06250
 BRILLOUIN|   126           0.00391       -0.31250        0.43750        0.18750
 BRILLOUIN|   127           0.00391       -0.31250        0.43750        0.31250
 BRILLOUIN|   128           0.00391       -0.31250        0.43750        0.43750
 BRILLOUIN|   129           0.00391       -0.18750       -0.43750       -0.43750
 BRILLOUIN|   130           0.00391       -0.18750       -0.43750       -0.31250
 BRILLOUIN|   131           0.00391       -0.18750       -0.43750       -0.18750
 BRILLOUIN|   132           0.00391       -0.18750       -0.43750       -0.06250
 BRILLOUIN|   133           0.00391       -0.18750       -0.43750        0.06250
 BRILLOUIN|   134           0.00391       -0.18750       -0.43750        0.18750
 BRILLOUIN|   135           0.00391       -0.18750       -0.43750        0.31250
 BRILLOUIN|   136           0.00391       -0.18750       -0.43750        0.43750
 BRILLOUIN|   137           0.00391       -0.18750       -0.31250       -0.43750
 BRILLOUIN|   138           0.00391       -0.18750       -0.31250       -0.31250
 BRILLOUIN|   139           0.00391       -0.18750       -0.31250       -0.18750
 BRILLOUIN|   140           0.00391       -0.18750       -0.31250       -0.06250
 BRILLOUIN|   141           0.00391       -0.18750       -0.31250        0.06250
 BRILLOUIN|   142           0.00391       -0.18750       -0.31250        0.18750
 BRILLOUIN|   143           0.00391       -0.18750       -0.31250        0.31250
 BRILLOUIN|   144           0.00391       -0.18750       -0.31250        0.43750
 BRILLOUIN|   145           0.00391       -0.18750       -0.18750       -0.43750
 BRILLOUIN|   146           0.00391       -0.18750       -0.18750       -0.31250
 BRILLOUIN|   147           0.00391       -0.18750       -0.18750       -0.18750
 BRILLOUIN|   148           0.00391       -0.18750       -0.18750       -0.06250
 BRILLOUIN|   149           0.00391       -0.18750       -0.18750        0.06250
 BRILLOUIN|   150           0.00391       -0.18750       -0.18750        0.18750
 BRILLOUIN|   151           0.00391       -0.18750       -0.18750        0.31250
 BRILLOUIN|   152           0.00391       -0.18750       -0.18750        0.43750
 BRILLOUIN|   153           0.00391       -0.18750       -0.06250       -0.43750
 BRILLOUIN|   154           0.00391       -0.18750       -0.06250       -0.31250
 BRILLOUIN|   155           0.00391       -0.18750       -0.06250       -0.18750
 BRILLOUIN|   156           0.00391       -0.18750       -0.06250       -0.06250
 BRILLOUIN|   157           0.00391       -0.18750       -0.06250        0.06250
 BRILLOUIN|   158           0.00391       -0.18750       -0.06250        0.18750
 BRILLOUIN|   159           0.00391       -0.18750       -0.06250        0.31250
 BRILLOUIN|   160           0.00391       -0.18750       -0.06250        0.43750
 BRILLOUIN|   161           0.00391       -0.18750        0.06250       -0.43750
 BRILLOUIN|   162           0.00391       -0.18750        0.06250       -0.31250
 BRILLOUIN|   163           0.00391       -0.18750        0.06250       -0.18750
 BRILLOUIN|   164           0.00391       -0.18750        0.06250       -0.06250
 BRILLOUIN|   165           0.00391       -0.18750        0.06250        0.06250
 BRILLOUIN|   166           0.00391       -0.18750        0.06250        0.18750
 BRILLOUIN|   167           0.00391       -0.18750        0.06250        0.31250
 BRILLOUIN|   168           0.00391       -0.18750        0.06250        0.43750
 BRILLOUIN|   169           0.00391       -0.18750        0.18750       -0.43750
 BRILLOUIN|   170           0.00391       -0.18750        0.18750       -0.31250
 BRILLOUIN|   171           0.00391       -0.18750        0.18750       -0.18750
 BRILLOUIN|   172           0.00391       -0.18750        0.18750       -0.06250
 BRILLOUIN|   173           0.00391       -0.18750        0.18750        0.06250
 BRILLOUIN|   174           0.00391       -0.18750        0.18750        0.18750
 BRILLOUIN|   175           0.00391       -0.18750        0.18750        0.31250
 BRILLOUIN|   176           0.00391       -0.18750        0.18750        0.43750
 BRILLOUIN|   177           0.00391       -0.18750        0.31250       -0.43750
 BRILLOUIN|   178           0.00391       -0.18750        0.31250       -0.31250
 BRILLOUIN|   179           0.00391       -0.18750        0.31250       -0.18750
 BRILLOUIN|   180           0.00391       -0.18750        0.31250       -0.06250
 BRILLOUIN|   181           0.00391       -0.18750        0.31250        0.06250
 BRILLOUIN|   182           0.00391       -0.18750        0.31250        0.18750
 BRILLOUIN|   183           0.00391       -0.18750        0.31250        0.31250
 BRILLOUIN|   184           0.00391       -0.18750        0.31250        0.43750
 BRILLOUIN|   185           0.00391       -0.18750        0.43750       -0.43750
 BRILLOUIN|   186           0.00391       -0.18750        0.43750       -0.31250
 BRILLOUIN|   187           0.00391       -0.18750        0.43750       -0.18750
 BRILLOUIN|   188           0.00391       -0.18750        0.43750       -0.06250
 BRILLOUIN|   189           0.00391       -0.18750        0.43750        0.06250
 BRILLOUIN|   190           0.00391       -0.18750        0.43750        0.18750
 BRILLOUIN|   191           0.00391       -0.18750        0.43750        0.31250
 BRILLOUIN|   192           0.00391       -0.18750        0.43750        0.43750
 BRILLOUIN|   193           0.00391       -0.06250       -0.43750       -0.43750
 BRILLOUIN|   194           0.00391       -0.06250       -0.43750       -0.31250
 BRILLOUIN|   195           0.00391       -0.06250       -0.43750       -0.18750
 BRILLOUIN|   196           0.00391       -0.06250       -0.43750       -0.06250
 BRILLOUIN|   197           0.00391       -0.06250       -0.43750        0.06250
 BRILLOUIN|   198           0.00391       -0.06250       -0.43750        0.18750
 BRILLOUIN|   199           0.00391       -0.06250       -0.43750        0.31250
 BRILLOUIN|   200           0.00391       -0.06250       -0.43750        0.43750
 BRILLOUIN|   201           0.00391       -0.06250       -0.31250       -0.43750
 BRILLOUIN|   202           0.00391       -0.06250       -0.31250       -0.31250
 BRILLOUIN|   203           0.00391       -0.06250       -0.31250       -0.18750
 BRILLOUIN|   204           0.00391       -0.06250       -0.31250       -0.06250
 BRILLOUIN|   205           0.00391       -0.06250       -0.31250        0.06250
 BRILLOUIN|   206           0.00391       -0.06250       -0.31250        0.18750
 BRILLOUIN|   207           0.00391       -0.06250       -0.31250        0.31250
 BRILLOUIN|   208           0.00391       -0.06250       -0.31250        0.43750
 BRILLOUIN|   209           0.00391       -0.06250       -0.18750       -0.43750
 BRILLOUIN|   210           0.00391       -0.06250       -0.18750       -0.31250
 BRILLOUIN|   211           0.00391       -0.06250       -0.18750       -0.18750
 BRILLOUIN|   212           0.00391       -0.06250       -0.18750       -0.06250
 BRILLOUIN|   213           0.00391       -0.06250       -0.18750        0.06250
 BRILLOUIN|   214           0.00391       -0.06250       -0.18750        0.18750
 BRILLOUIN|   215           0.00391       -0.06250       -0.18750        0.31250
 BRILLOUIN|   216           0.00391       -0.06250       -0.18750        0.43750
 BRILLOUIN|   217           0.00391       -0.06250       -0.06250       -0.43750
 BRILLOUIN|   218           0.00391       -0.06250       -0.06250       -0.31250
 BRILLOUIN|   219           0.00391       -0.06250       -0.06250       -0.18750
 BRILLOUIN|   220           0.00391       -0.06250       -0.06250       -0.06250
 BRILLOUIN|   221           0.00391       -0.06250       -0.06250        0.06250
 BRILLOUIN|   222           0.00391       -0.06250       -0.06250        0.18750
 BRILLOUIN|   223           0.00391       -0.06250       -0.06250        0.31250
 BRILLOUIN|   224           0.00391       -0.06250       -0.06250        0.43750
 BRILLOUIN|   225           0.00391       -0.06250        0.06250       -0.43750
 BRILLOUIN|   226           0.00391       -0.06250        0.06250       -0.31250
 BRILLOUIN|   227           0.00391       -0.06250        0.06250       -0.18750
 BRILLOUIN|   228           0.00391       -0.06250        0.06250       -0.06250
 BRILLOUIN|   229           0.00391       -0.06250        0.06250        0.06250
 BRILLOUIN|   230           0.00391       -0.06250        0.06250        0.18750
 BRILLOUIN|   231           0.00391       -0.06250        0.06250        0.31250
 BRILLOUIN|   232           0.00391       -0.06250        0.06250        0.43750
 BRILLOUIN|   233           0.00391       -0.06250        0.18750       -0.43750
 BRILLOUIN|   234           0.00391       -0.06250        0.18750       -0.31250
 BRILLOUIN|   235           0.00391       -0.06250        0.18750       -0.18750
 BRILLOUIN|   236           0.00391       -0.06250        0.18750       -0.06250
 BRILLOUIN|   237           0.00391       -0.06250        0.18750        0.06250
 BRILLOUIN|   238           0.00391       -0.06250        0.18750        0.18750
 BRILLOUIN|   239           0.00391       -0.06250        0.18750        0.31250
 BRILLOUIN|   240           0.00391       -0.06250        0.18750        0.43750
 BRILLOUIN|   241           0.00391       -0.06250        0.31250       -0.43750
 BRILLOUIN|   242           0.00391       -0.06250        0.31250       -0.31250
 BRILLOUIN|   243           0.00391       -0.06250        0.31250       -0.18750
 BRILLOUIN|   244           0.00391       -0.06250        0.31250       -0.06250
 BRILLOUIN|   245           0.00391       -0.06250        0.31250        0.06250
 BRILLOUIN|   246           0.00391       -0.06250        0.31250        0.18750
 BRILLOUIN|   247           0.00391       -0.06250        0.31250        0.31250
 BRILLOUIN|   248           0.00391       -0.06250        0.31250        0.43750
 BRILLOUIN|   249           0.00391       -0.06250        0.43750       -0.43750
 BRILLOUIN|   250           0.00391       -0.06250        0.43750       -0.31250
 BRILLOUIN|   251           0.00391       -0.06250        0.43750       -0.18750
 BRILLOUIN|   252           0.00391       -0.06250        0.43750       -0.06250
 BRILLOUIN|   253           0.00391       -0.06250        0.43750        0.06250
 BRILLOUIN|   254           0.00391       -0.06250        0.43750        0.18750
 BRILLOUIN|   255           0.00391       -0.06250        0.43750        0.31250
 BRILLOUIN|   256           0.00391       -0.06250        0.43750        0.43750
 *******************************************************************************

 *******************************************************************************
 *******************************************************************************
 **                                                                           **
 **     #####                         ##              ##                      **
 **    ##   ##            ##          ##              ##                      **
 **   ##     ##                       ##            ######                    **
 **   ##     ##  ##   ##  ##   #####  ##  ##   ####   ##    #####    #####    **
 **   ##     ##  ##   ##  ##  ##      ## ##   ##      ##   ##   ##  ##   ##   **
 **   ##  ## ##  ##   ##  ##  ##      ####     ###    ##   ######   ######    **
 **    ##  ###   ##   ##  ##  ##      ## ##      ##   ##   ##       ##        **
 **     #######   #####   ##   #####  ##  ##  ####    ##    #####   ##        **
 **           ##                                                    ##        **
 **                                                                           **
 **                                                ... make the atoms dance   **
 **                                                                           **
 **            Copyright (C) by CP2K developers group (2000-2025)             **
 **                      J. Chem. Phys. 152, 194103 (2020)                    **
 **                                                                           **
 *******************************************************************************

 DFT| Spin restricted Kohn-Sham (RKS) calculation                            RKS
 DFT| Multiplicity                                                             1
 DFT| Number of spin states                                                    1
 DFT| Charge                                                                   0
 DFT| Self-interaction correction (SIC)                                       NO
 DFT| Cutoffs: density                                              1.000000E-10
 DFT|          gradient                                             1.000000E-10
 DFT|          tau                                                  1.000000E-10
 DFT|          cutoff_smoothing_range                               0.000000E+00
 DFT| XC density smoothing                                                  NONE
 DFT| XC derivatives                                                          PW

 FUNCTIONAL| PBE:
 FUNCTIONAL| J.P.Perdew, K.Burke, M.Ernzerhof, Phys. Rev. Letter, vol. 77, n 18,
 FUNCTIONAL|  pp. 3865-3868, (1996) {spin unpolarized}                          


 QS| Method:                                                                 GPW
 QS| Density plane wave grid type                        NON-SPHERICAL FULLSPACE
 QS| Number of grid levels:                                                    4
 QS| Density cutoff [a.u.]:                                                500.0
 QS| Multi grid cutoff [a.u.]: 1) grid level                               500.0
 QS|                           2) grid level                               166.7
 QS|                           3) grid level                                55.6
 QS|                           4) grid level                                18.5
 QS| Grid level progression factor:                                          3.0
 QS| Relative density cutoff [a.u.]:                                        50.0
 QS| Interaction thresholds: eps_pgf_orb:                                1.0E-16
 QS|                         eps_filter_matrix:                          0.0E+00
 QS|                         eps_core_charge:                            1.0E-18
 QS|                         eps_rho_gspace:                             1.0E-16
 QS|                         eps_rho_rspace:                             1.0E-16
 QS|                         eps_gvg_rspace:                             1.0E-08
 QS|                         eps_ppl:                                    1.0E-02
 QS|                         eps_ppnl:                                   1.0E-10


 ATOMIC KIND INFORMATION

  1. Atomic kind: H                                     Number of atoms:       4

     Orbital Basis Set                                    TZVP-MOLOPT-GGA-GTH-q1

       Number of orbital shell sets:                                           1
       Number of orbital shells:                                               4
       Number of primitive Cartesian functions:                                5
       Number of Cartesian basis functions:                                    6
       Number of spherical basis functions:                                    6
       Norm type:                                                              2

       Normalised Cartesian orbitals:

                        Set   Shell   Orbital            Exponent    Coefficient

                          1       1    2s                9.586642       0.069481
                                                         2.202360       0.112147
                                                         0.604094       0.130550
                                                         0.146498       0.088477
                                                         0.139526       0.035929

                          1       2    3s                9.586642      -0.087313
                                                         2.202360      -0.117928
                                                         0.604094      -0.099372
                                                         0.146498      -0.105375
                                                         0.139526       0.287433

                          1       3    4s                9.586642       0.882480
                                                         2.202360       0.096105
                                                         0.604094      -0.739894
                                                         0.146498       0.120904
                                                         0.139526       0.013904

                          1       4    3px               9.586642      -2.186125
                                                         2.202360       1.112625
                                                         0.604094       0.330981
                                                         0.146498       0.087385
                                                         0.139526      -0.016905
                          1       4    3py               9.586642      -2.186125
                                                         2.202360       1.112625
                                                         0.604094       0.330981
                                                         0.146498       0.087385
                                                         0.139526      -0.016905
                          1       4    3pz               9.586642      -2.186125
                                                         2.202360       1.112625
                                                         0.604094       0.330981
                                                         0.146498       0.087385
                                                         0.139526      -0.016905

       Atomic covalent radius [Angstrom]:                                  0.320

       Atomic van der Waals radius [Angstrom]:                             1.090

     GTH Potential information for                                    GTH-PBE-q1

       Description:                       Goedecker-Teter-Hutter pseudopotential
                                           Goedecker et al., PRB 54, 1703 (1996)
                                          Hartwigsen et al., PRB 58, 3641 (1998)
                                                      Krack, TCA 114, 145 (2005)

       Gaussian exponent of the core charge distribution:              12.500000
       Electronic configuration (s p d ...):                                   1

       Parameters of the local part of the GTH pseudopotential:

                          rloc        C1          C2          C3          C4
                        0.200000   -4.178900    0.724463


 MOLECULE KIND INFORMATION


 All atoms are their own molecule, skipping detailed information


 TOTAL NUMBERS AND MAXIMUM NUMBERS

  Total number of            - Atomic kinds:                                   1
                             - Atoms:                                          4
                             - Shell sets:                                     4
                             - Shells:                                        16
                             - Primitive Cartesian functions:                 20
                             - Cartesian basis functions:                     24
                             - Spherical basis functions:                     24

  Maximum angular momentum of- Orbital basis functions:                        1
                             - Local part of the GTH pseudopotential:          2


 MODULE QUICKSTEP: ATOMIC COORDINATES IN ANGSTROM

   Atom Kind Element         X             Y             Z       Z(eff)     Mass
      1    1 H     1     -0.000020      2.313795      0.875437   1.0000   1.0079
      2    1 H     1      2.003815      1.156880      4.127633   1.0000   1.0079
      3    1 H     1      2.003815      1.156880      3.376972   1.0000   1.0079
      4    1 H     1     -0.000020      2.313795      1.626098   1.0000   1.0079



 SCF PARAMETERS         Density guess:                                    ATOMIC
                        --------------------------------------------------------
                        max_scf:                                             500
                        max_scf_history:                                       0
                        max_diis:                                              4
                        --------------------------------------------------------
                        eps_scf:                                        1.00E-09
                        eps_scf_history:                                0.00E+00
                        eps_diis:                                       1.00E-01
                        eps_eigval:                                     1.00E-05
                        --------------------------------------------------------
                        level_shift [a.u.]:                             0.000000
                        added MOs                                        22    0
                        --------------------------------------------------------
                        Mixing method:                            BROYDEN_MIXING
                                                charge density mixing in g-space
                        --------------------------------------------------------
                        No outer SCF

 PW_GRID| Information for grid number                                          1
 PW_GRID| Grid distributed over                                     8 processors
 PW_GRID| Real space group dimensions                                     8    1
 PW_GRID| the grid is blocked:                                                NO
 PW_GRID| Cutoff [a.u.]                                                    500.0
 PW_GRID| spherical cutoff:                                                   NO
 PW_GRID|   Bounds   1            -40      39                Points:          80
 PW_GRID|   Bounds   2            -40      39                Points:          80
 PW_GRID|   Bounds   3            -48      47                Points:          96
 PW_GRID| Volume element (a.u.^3)  0.7643E-03     Volume (a.u.^3)       469.6025
 PW_GRID| Grid span                                                    FULLSPACE
 PW_GRID|   Distribution                         Average         Max         Min
 PW_GRID|   G-Vectors                            76800.0       76800       76800
 PW_GRID|   G-Rays                                 960.0         960         960
 PW_GRID|   Real Space Points                    76800.0       76800       76800

 PW_GRID| Information for grid number                                          2
 PW_GRID| Number of the reference grid                                         1
 PW_GRID| Grid distributed over                                     8 processors
 PW_GRID| Real space group dimensions                                     8    1
 PW_GRID| the grid is blocked:                                                NO
 PW_GRID| Cutoff [a.u.]                                                    166.7
 PW_GRID| spherical cutoff:                                                   NO
 PW_GRID|   Bounds   1            -22      22                Points:          45
 PW_GRID|   Bounds   2            -22      22                Points:          45
 PW_GRID|   Bounds   3            -30      29                Points:          60
 PW_GRID| Volume element (a.u.^3)  0.3865E-02     Volume (a.u.^3)       469.6025
 PW_GRID| Grid span                                                    FULLSPACE
 PW_GRID|   Distribution                         Average         Max         Min
 PW_GRID|   G-Vectors                            15187.5       15300       15075
 PW_GRID|   G-Rays                                 337.5         340         335
 PW_GRID|   Real Space Points                    15187.5       16200       13500

 PW_GRID| Information for grid number                                          3
 PW_GRID| Number of the reference grid                                         1
 PW_GRID| Grid distributed over                                     8 processors
 PW_GRID| Real space group dimensions                                     8    1
 PW_GRID| the grid is blocked:                                                NO
 PW_GRID| Cutoff [a.u.]                                                     55.6
 PW_GRID| spherical cutoff:                                                   NO
 PW_GRID|   Bounds   1            -12      12                Points:          25
 PW_GRID|   Bounds   2            -12      12                Points:          25
 PW_GRID|   Bounds   3            -16      15                Points:          32
 PW_GRID| Volume element (a.u.^3)  0.2348E-01     Volume (a.u.^3)       469.6025
 PW_GRID| Grid span                                                    FULLSPACE
 PW_GRID|   Distribution                         Average         Max         Min
 PW_GRID|   G-Vectors                             2500.0        2525        2475
 PW_GRID|   G-Rays                                 100.0         101          99
 PW_GRID|   Real Space Points                     2500.0        3200        2400

 PW_GRID| Information for grid number                                          4
 PW_GRID| Number of the reference grid                                         1
 PW_GRID| Grid distributed over                                     8 processors
 PW_GRID| Real space group dimensions                                     8    1
 PW_GRID| the grid is blocked:                                                NO
 PW_GRID| Cutoff [a.u.]                                                     18.5
 PW_GRID| spherical cutoff:                                                   NO
 PW_GRID|   Bounds   1             -7       7                Points:          15
 PW_GRID|   Bounds   2             -7       7                Points:          15
 PW_GRID|   Bounds   3            -10       9                Points:          20
 PW_GRID| Volume element (a.u.^3)  0.1044         Volume (a.u.^3)       469.6025
 PW_GRID| Grid span                                                    FULLSPACE
 PW_GRID|   Distribution                         Average         Max         Min
 PW_GRID|   G-Vectors                              562.5         585         555
 PW_GRID|   G-Rays                                  37.5          39          37
 PW_GRID|   Real Space Points                      562.5         600         300

 POISSON| Solver                                                        PERIODIC
 POISSON| Periodicity                                                        XYZ

 RS_GRID| Information for grid number                                          1
 RS_GRID|   Bounds   1            -40      39                Points:          80
 RS_GRID|   Bounds   2            -40      39                Points:          80
 RS_GRID|   Bounds   3            -48      47                Points:          96
 RS_GRID| Real space fully replicated
 RS_GRID| Group size                                                           1

 RS_GRID| Information for grid number                                          2
 RS_GRID|   Bounds   1            -22      22                Points:          45
 RS_GRID|   Bounds   2            -22      22                Points:          45
 RS_GRID|   Bounds   3            -30      29                Points:          60
 RS_GRID| Real space fully replicated
 RS_GRID| Group size                                                           1

 RS_GRID| Information for grid number                                          3
 RS_GRID|   Bounds   1            -12      12                Points:          25
 RS_GRID|   Bounds   2            -12      12                Points:          25
 RS_GRID|   Bounds   3            -16      15                Points:          32
 RS_GRID| Real space fully replicated
 RS_GRID| Group size                                                           1

 RS_GRID| Information for grid number                                          4
 RS_GRID|   Bounds   1             -7       7                Points:          15
 RS_GRID|   Bounds   2             -7       7                Points:          15
 RS_GRID|   Bounds   3            -10       9                Points:          20
 RS_GRID| Real space fully replicated
 RS_GRID| Group size                                                           1

 Number of electrons:                                                          4
 Number of occupied orbitals:                                                  2
 Number of molecular orbitals:                                                24

 Number of orbital functions:                                                 24
 Number of independent orbital functions:                                     24

 Extrapolation method: initial_guess

 Atomic guess: The first density matrix is obtained in terms of atomic orbitals
               and electronic configurations assigned to each atomic kind

 Guess for atomic kind: H

 Electronic structure
    Total number of core electrons                                          0.00
    Total number of valence electrons                                       1.00
    Total number of electrons                                               1.00
    Multiplicity                                                   not specified
    S      1.00


 *******************************************************************************
                  Iteration          Convergence                     Energy [au]
 *******************************************************************************
                          1        0.472693E-02                  -0.423969592374
                          2        0.467225E-03                  -0.423988362531
                          3        0.189661E-04                  -0.423988701333
                          4        0.641130E-08                  -0.423988701883

 Energy components [Hartree]           Total Energy ::           -0.423988701883
                                        Band Energy ::           -0.198729356728
                                     Kinetic Energy ::            0.462632187076
                                   Potential Energy ::           -0.886620888959
                                      Virial (-V/T) ::            1.916470392090
                                        Core Energy ::           -0.479039418634
                                          XC Energy ::           -0.244392676031
                                     Coulomb Energy ::            0.299443392782
                       Total Pseudopotential Energy ::           -0.960444703519
                       Local Pseudopotential Energy ::           -0.960444703519
                    Nonlocal Pseudopotential Energy ::            0.000000000000
                                        Confinement ::            0.187730978087

 Orbital energies  State     L     Occupation   Energy[a.u.]          Energy[eV]

                       1     0          1.000      -0.198729           -5.407701


 Total Electron Density at R=0:                                         0.229867
 Re-scaling the density matrix to get the right number of electrons
                  # Electrons              Trace(P)               Scaling factor
                            4                 4.000                        1.000


 SCF WAVEFUNCTION OPTIMIZATION

  Step     Update method      Time    Convergence         Total energy    Change
  ------------------------------------------------------------------------------
     1 NoMix/Diag. 0.50E-01    1.2     1.18013919        -1.9482876590 -1.95E+00
     2 Broy./Diag. 0.50E-01    1.2     0.00188588        -1.4573181992  4.91E-01
     3 Broy./Diag. 0.50E-01    1.2     0.07671502        -2.1580747684 -7.01E-01
     4 Broy./Diag. 0.50E-01    1.3     0.00608135        -2.2803875820 -1.22E-01
     5 Broy./Diag. 0.50E-01    1.3     0.02415086        -2.3279099469 -4.75E-02
     6 Broy./Diag. 0.50E-01    1.3     0.00193312        -2.3167004684  1.12E-02
     7 Broy./Diag. 0.50E-01    1.3     0.00082290        -2.3142921966  2.41E-03
     8 Broy./Diag. 0.50E-01    1.3     0.00124970        -2.3256760635 -1.14E-02
     9 Broy./Diag. 0.50E-01    1.3     0.00028698        -2.3310519981 -5.38E-03
    10 Broy./Diag. 0.50E-01    1.3     0.00011374        -2.3295414031  1.51E-03
    11 Broy./Diag. 0.50E-01    1.3     0.00030456        -2.3304473520 -9.06E-04
    12 Broy./Diag. 0.50E-01    1.3     0.00006445        -2.3307960891 -3.49E-04
    13 Broy./Diag. 0.50E-01    1.3     0.00006792        -2.3313102274 -5.14E-04
    14 Broy./Diag. 0.50E-01    1.3     0.00000754        -2.3314622964 -1.52E-04
    15 Broy./Diag. 0.50E-01    1.3     0.00002159        -2.3315024737 -4.02E-05
    16 Broy./Diag. 0.50E-01    1.3     0.00000055        -2.3315234024 -2.09E-05
    17 Broy./Diag. 0.50E-01    1.3     0.00000996        -2.3315360242 -1.26E-05
    18 Broy./Diag. 0.50E-01    1.3     0.00000510        -2.3315063711  2.97E-05
    19 Broy./Diag. 0.50E-01    1.3     0.00000072        -2.3315110655 -4.69E-06
    20 Broy./Diag. 0.50E-01    1.3     0.00000033        -2.3315057546  5.31E-06
    21 Broy./Diag. 0.50E-01    1.3     0.00000017        -2.3315044230  1.33E-06
    22 Broy./Diag. 0.50E-01    1.3     0.00000006        -2.3315037212  7.02E-07
    23 Broy./Diag. 0.50E-01    1.3     0.00000011        -2.3315033526  3.69E-07
    24 Broy./Diag. 0.50E-01    1.3     0.00000004        -2.3315040786 -7.26E-07
    25 Broy./Diag. 0.50E-01    1.3     0.00000010        -2.3315054542 -1.38E-06
    26 Broy./Diag. 0.50E-01    1.3     0.00000020        -2.3315053036  1.51E-07
    27 Broy./Diag. 0.50E-01    1.3     0.00000008        -2.3315047673  5.36E-07
    28 Broy./Diag. 0.50E-01    1.3     3.7582E-09        -2.3315046225  1.45E-07
    29 Broy./Diag. 0.50E-01    1.3     0.00000001        -2.3315046081  1.43E-08
    30 Broy./Diag. 0.50E-01    1.3     2.5189E-10        -2.3315046355 -2.74E-08

  *** SCF run converged in    30 steps ***


  Electronic density on regular grids:         -4.0000000000       -0.0000000000
  Core density on regular grids:                4.0000000000       -0.0000000000
  Total charge density on r-space grids:       -0.0000000000
  Total charge density g-space grids:          -0.0000000000

  Overlap energy of the core charge distribution:               0.00000074652500
  Self energy of the core charge distribution:                 -5.64189583547756
  Core Hamiltonian energy:                                      1.95373728664968
  Hartree energy:                                               2.73452488508132
  Exchange-correlation energy:                                 -1.37787171829298

  Total energy:                                                -2.33150463551454

 !-----------------------------------------------------------------------------!
                     Mulliken Population Analysis

 #  Atom  Element  Kind  Atomic population                           Net charge
       1     H        1          1.000000                              0.000000
       2     H        1          1.000000                              0.000000
       3     H        1          1.000000                             -0.000000
       4     H        1          1.000000                             -0.000000
 # Total charge                              4.000000                 -0.000000

 !-----------------------------------------------------------------------------!

 !-----------------------------------------------------------------------------!
                           Hirshfeld Charges

  #Atom  Element  Kind  Ref Charge     Population                    Net charge
      1       H      1       1.000          0.932                         0.068
      2       H      1       1.000          0.932                         0.068
      3       H      1       1.000          0.932                         0.068
      4       H      1       1.000          0.932                         0.068

  Total Charge                                                            0.274
 !-----------------------------------------------------------------------------!

 KPOINTS| Band Structure Calculation
 KPOINTS| Number of k-point sets                                               1
 KPOINTS| Number of added MOs/bands                                           -1
 KPOINTS| Number of k-points in set    1                                     148
 KPOINTS| In units of b-vector [2pi/Bohr]
 KPOINTS| Special point     1 not specifi     0.000000     0.000000     0.000000
 KPOINTS| Special point     2 not specifi     0.500000     0.000000     0.000000
 KPOINTS| Special point     3 not specifi     0.333333     0.333333     0.000000
 KPOINTS| Special point     4 not specifi     0.000000     0.000000     0.000000
 KPOINTS| Time for k-point line                                            0.557

 ENERGY| Total FORCE_EVAL ( QS ) energy [hartree]             -2.331504635514545

 -------------------------------------------------------------------------------
 -                                                                             -
 -                                DBCSR STATISTICS                             -
 -                                                                             -
 -------------------------------------------------------------------------------
 COUNTER                                    TOTAL       BLAS       SMM       ACC
 flops inhomo. stacks                           0       0.0%      0.0%      0.0%
 flops total                         0.000000E+00       0.0%      0.0%      0.0%
 flops max/rank                      0.000000E+00       0.0%      0.0%      0.0%
 matmuls inhomo. stacks                         0       0.0%      0.0%      0.0%
 matmuls total                                  0       0.0%      0.0%      0.0%
 number of processed stacks                     0       0.0%      0.0%      0.0%
 average stack size                                     0.0       0.0       0.0
 marketing flops                     0.000000E+00
 -------------------------------------------------------------------------------
 -                                                                             -
 -                      DBCSR MESSAGE PASSING PERFORMANCE                      -
 -                                                                             -
 -------------------------------------------------------------------------------
 ROUTINE             CALLS      AVE VOLUME [Bytes]
 MP_Bcast                1                     12.
 MP_Allreduce           19                     21.
 MP_Alltoall        650384                    439.
 -------------------------------------------------------------------------------

 -------------------------------------------------------------------------------
 -                                                                             -
 -                                DBM STATISTICS                               -
 -                                                                             -
 -------------------------------------------------------------------------------
    M  x    N  x    K                                          COUNT     PERCENT
 -------------------------------------------------------------------------------

 -------------------------------------------------------------------------------
 -                                                                             -
 -                                GRID STATISTICS                              -
 -                                                                             -
 -------------------------------------------------------------------------------
 LP    KERNEL             BACKEND                              COUNT     PERCENT
 2     collocate general  CPU                                 356624      50.82%
 2     integrate general  CPU                                 345120      49.18%
 0     collocate general  CPU                                      8       0.00%
 0     integrate general  CPU                                      4       0.00%
 -------------------------------------------------------------------------------

 MEMORY| Estimated peak process memory [MiB]                                 309

 -------------------------------------------------------------------------------
 ----                             MULTIGRID INFO                            ----
 -------------------------------------------------------------------------------
 count for grid        1:           7678          cutoff [a.u.]          500.00
 count for grid        2:           7286          cutoff [a.u.]          166.67
 count for grid        3:           7144          cutoff [a.u.]           55.56
 count for grid        4:          13734          cutoff [a.u.]           18.52
 total gridlevel count  :          35842

 -------------------------------------------------------------------------------
 -                                                                             -
 -                         MESSAGE PASSING PERFORMANCE                         -
 -                                                                             -
 -------------------------------------------------------------------------------

 ROUTINE             CALLS      AVE VOLUME [Bytes]
 MP_Group                6
 MP_Bcast           281133                  15422.
 MP_Allreduce        40711                     49.
 MP_Sync                 4
 MP_Alltoall           545                3399391.
 MP_SendRecv           882                 200279.
 MP_ISendRecv          847                 197078.
 MP_Wait            193443
 MP_comm_split           4
 MP_ISend           205004                    143.
 MP_IRecv           327296                     92.
 -------------------------------------------------------------------------------


 -------------------------------------------------------------------------------
 -                                                                             -
 -                           R E F E R E N C E S                               -
 -                                                                             -
 -------------------------------------------------------------------------------
 
 CP2K version 2025.1 (Development Version), the CP2K developers group (2025).
 CP2K is freely available from https://www.cp2k.org/ .
 
 T. D. Kuehne, M. Iannuzzi, M. Del Ben, V. V. Rybkin, P. Seewald, F. Stein, T. 
 Laino, R. Z. Khaliullin, O. Schuett, F. Schiffmann, D. Golze, J. Wilhelm, S. 
 Chulkov, M. H. Bani-Hashemian, V. Weber, U. Borstnik, M. Taillefumier, A. S. 
 Jakobovits, A. Lazzaro, H. Pabst, T. Mueller, R. Schade, M. Guidon, S. 
 Andermatt, N. Holmberg, G. K. Schenter, A. Hehn, A. Bussy, F. Belleflamme, G. 
 Tabacchi, A. Gloess, M. Lass, I. Bethune, C. J. Mundy, C. Plessl, M. Watkins, 
 J. VandeVondele, M. Krack, J. Hutter.
 J. Chem. Phys. 152, 194103 (2020).
 CP2K: An electronic structure and molecular dynamics software package - 
 Quickstep: Efficient and accurate electronic structure calculations.
 https://doi.org/10.1063/5.0007045

 O. Schuett, P. Messmer, J. Hutter, J. VandeVondele.
 Electronic Structure Calculations on Graphics Processing Units, 173-190 (2016).
 GPU-Accelerated Sparse Matrix-Matrix Multiplication for Linear Scaling Density 
 Functional Theory.
 https://doi.org/10.1002/9781118670712.ch8

 J. Hutter, M. Iannuzzi, F. Schiffmann, J. VandeVondele.
 WIREs Comput Mol Sci. 4, 15-25 (2014).
 CP2K: atomistic simulations of condensed matter systems.
 https://doi.org/10.1002/wcms.1159

 U. Borstnik, J. VandeVondele, V. Weber, J. Hutter.
 Parallel Comput. 40, 47-58 (2014).
 Sparse matrix multiplication: The distributed block-compressed sparse row 
 library.
 https://doi.org/10.1016/j.parco.2014.03.012

 J. VandeVondele, J. Hutter.
 J. Chem. Phys. 127, 114105 (2007).
 Gaussian basis sets for accurate calculations on molecular systems in gas and 
 condensed phases.
 https://doi.org/10.1063/1.2770708

 J. VandeVondele, M. Krack, F. Mohamed, M. Parrinello, T. Chassaing, J. Hutter.
 Comput. Phys. Commun. 167, 103-128 (2005).
 QUICKSTEP: Fast and accurate density functional calculations using a mixed 
 Gaussian and plane waves approach.
 https://doi.org/10.1016/j.cpc.2004.12.014

 M. Krack.
 Theor. Chem. Acc. 114, 145-152 (2005).
 Pseudopotentials for H to Kr optimized for gradient-corrected 
 exchange-correlation functionals.
 https://doi.org/10.1007/s00214-005-0655-y

 M. Frigo, S. G. Johnson.
 Proc. IEEE 93, 216-231 (2005).
 The design and implementation of FFTW3.
 https://doi.org/10.1109/JPROC.2004.840301

 C. Hartwigsen, S. Goedecker, J. Hutter.
 Phys. Rev. B 58, 3641-3662 (1998).
 Relativistic separable dual-space Gaussian pseudopotentials from H to Rn.
 https://doi.org/10.1103/PhysRevB.58.3641

 G. Lippert, J. Hutter, M. Parrinello.
 Mol. Phys. 92, 477-487 (1997).
 A hybrid Gaussian and plane wave density functional scheme.
 https://doi.org/10.1080/002689797170220

 S. Goedecker, M. Teter, J. Hutter.
 Phys. Rev. B 54, 1703-1710 (1996).
 Separable dual-space Gaussian pseudopotentials.
 https://doi.org/10.1103/PhysRevB.54.1703

 J. P. Perdew, K. Burke, M. Ernzerhof.
 Phys. Rev. Lett. 77, 3865-3868 (1996).
 Generalized gradient approximation made simple.
 https://doi.org/10.1103/PhysRevLett.77.3865


 -------------------------------------------------------------------------------
 -                                                                             -
 -                                T I M I N G                                  -
 -                                                                             -
 -------------------------------------------------------------------------------
 SUBROUTINE                       CALLS  ASD         SELF TIME        TOTAL TIME
                                MAXIMUM       AVERAGE  MAXIMUM  AVERAGE  MAXIMUM
 CP2K                                 1  1.0    0.009    0.013   40.335   40.335
 qs_energies                          1  2.0    0.004    0.018   39.192   39.200
 scf_env_do_scf                       1  3.0    0.000    0.000   38.410   38.410
 scf_env_do_scf_inner_loop           30  4.0    0.013    0.014   38.410   38.410
 do_general_diag_kp                  31  5.9    0.169    0.181   34.576   34.689
 qs_scf_new_mos_kp                   30  5.0    0.000    0.000   34.043   34.156
 copy_dbcsr_to_fm                 32192  6.9    0.319    0.337   15.036   15.246
 dbcsr_complete_redistribute      47552  8.3    1.452    1.532   14.278   14.858
 dbcsr_desymmetrize_deep          63504  7.4    0.924    0.972    8.445    9.469
 kpoint_density_transform            30  7.0    0.058    0.061    7.772    7.776
 mp_alltoall_i22                 111056  8.8    4.835    6.384    4.835    6.384
 rskp_transform                   15656  6.9    3.528    5.653    3.528    5.653
 copy_fm_to_dbcsr                 15360  8.0    0.087    0.090    4.948    5.294
 dbcsr_finalize                  118460  8.6    0.543    0.585    3.745    4.044
 cp_fm_start_copy_general         46672  7.3    0.509    0.819    3.473    3.524
 mp_alltoall_d11v                333168  9.4    3.006    3.128    3.006    3.128
 mp_cart_sub                      64386  8.9    2.747    2.756    2.747    2.756
 transform_dmat                    7680  8.0    1.568    2.551    1.568    2.551
 dbcsr_merge_all                  47552 10.3    1.342    1.595    2.067    2.344
 qs_ks_update_qs_env                 30  5.0    0.000    0.000    1.839    2.152
 mp_alltoall_i11v                206160  9.0    2.095    2.124    2.095    2.124
 hybrid_alltoall_any              63504  8.4    0.237    0.249    1.916    1.972
 rebuild_ks_matrix                   30  6.0    0.000    0.000    1.474    1.787
 qs_ks_build_kohn_sham_matrix        30  7.0    0.024    0.025    1.474    1.786
 mp_cart_create                   32199  8.9    1.492    1.527    1.492    1.527
 mp_allgather_i                   93344  8.3    1.320    1.449    1.320    1.449
 qs_rho_update_rho_low               31  5.0    0.000    0.000    1.286    1.296
 calculate_rho_elec                  31  6.0    0.019    0.019    1.286    1.296
 mp_bcast_iv                     186842  8.3    1.109    1.269    1.109    1.269
 sum_up_and_integrate                30  8.0    0.000    0.000    0.828    1.141
 integrate_v_rspace                  30  9.0    0.011    0.017    0.827    1.140
 create_qs_kind_set                   1  2.0    0.000    0.000    1.013    1.013
 read_qs_kind                         1  3.0    0.612    0.618    1.012    1.013
 dbcsr_work_create               111056  8.8    0.655    0.677    0.965    0.997
 grid_collocate_task_list            31  7.0    0.682    0.971    0.682    0.971
 dbcsr_create_new                188302  8.2    0.774    0.818    0.924    0.966
 grid_integrate_task_list            30 10.0    0.575    0.882    0.575    0.882
 dbcsr_iterator_start            341307  9.0    0.654    0.666    0.771    0.786
 dbcsr_work_destroy_all          111056  9.8    0.515    0.519    0.778    0.783
 density_rs2pw                       31  7.0    0.001    0.001    0.583    0.706
 copy_dbcsr_to_fm_bc              32192  7.9    0.302    0.320    0.679    0.696
 copy_fm_to_dbcsr_bc              15360  9.0    0.188    0.195    0.628    0.645
 fft_wrap_pw1pw2                    545 10.0    0.004    0.004    0.605    0.613
 transfer_rs2pw                     126  8.0    0.001    0.001    0.480    0.608
 write_kpoints_restart               30  5.0    0.003    0.006    0.603    0.603
 transfer_rs2pw_500                  33  8.9    0.061    0.062    0.436    0.568
 dbcsr_data_release             1660714 10.2    0.549    0.566    0.549    0.566
 fft_wrap_pw1pw2_500                362 11.3    0.042    0.043    0.555    0.562
 dbcsr_copy                       42200  7.4    0.174    0.192    0.493    0.549
 tree_to_linear_d                 47552 11.3    0.511    0.545    0.511    0.545
 mp_sendrecv_dv                     882 10.0    0.405    0.533    0.405    0.533
 dbcsr_data_new                 1192399  9.7    0.512    0.531    0.512    0.531
 fft3d_ps                           545 12.0    0.198    0.202    0.488    0.497
 dbcsr_iterator_stop             341307  9.0    0.419    0.423    0.493    0.496
 dbcsr_destroy                   161902  8.2    0.258    0.266    0.455    0.487
 parser_read_line                133770  4.0    0.045    0.047    0.455    0.459
 qs_vxc_create                       30  8.0    0.000    0.000    0.435    0.435
 xc_vxc_pw_create                    30  9.0    0.019    0.019    0.434    0.435
 parser_read_line_low               153  5.2    0.048    0.208    0.410    0.417
 mp_bcast_im                      93344  8.3    0.360    0.409    0.360    0.409
 broadcast_input_information        153  6.2    0.099    0.101    0.362    0.392
 gspace_mixing                       29  5.0    0.016    0.016    0.365    0.366
 evaluate_core_matrix_traces         30  6.0    0.000    0.000    0.365    0.365
 calculate_ptrace_kp                 60  7.0    0.020    0.021    0.365    0.365
 dbcsr_dot                        26401  8.0    0.111    0.120    0.351    0.353
 dbcsr_copy_into_existing         15800  9.9    0.185    0.243    0.276    0.334
 quick_finalize                   63504  9.4    0.195    0.203    0.322    0.332
 mp_waitall_1                    193443  8.3    0.175    0.326    0.175    0.326
 broyden_mixing                      29  6.0    0.292    0.295    0.299    0.299
 cp_cfm_geeig                       997  6.9    0.006    0.006    0.274    0.282
 xc_pw_derive                       180 11.0    0.001    0.001    0.269    0.270
 mp_alltoall_z22v                   545 14.0    0.250    0.265    0.250    0.265
 mp_comm_free                     96621  8.9    0.229    0.258    0.229    0.258
 potential_pw2rs                     30 10.0    0.002    0.002    0.241    0.250
 xc_rho_set_and_dset_create          30 10.0    0.013    0.014    0.231    0.233
 cp_cfm_heevd                       997  7.9    0.001    0.001    0.215    0.219
 cp_cfm_heevd_base                  997  8.9    0.214    0.218    0.214    0.218
 cp_fm_write_unformatted            880  6.0    0.171    0.196    0.173    0.201
 self_consistency_check              30  5.0    0.019    0.020    0.199    0.201
 mp_sum_d                         27059  8.9    0.181    0.193    0.181    0.193
 xc_pw_divergence                    30 10.0    0.000    0.000    0.180    0.182
 mp_bcast_i_src                     612  7.2    0.151    0.180    0.151    0.180
 transfer_pw2rs                     121 11.0    0.001    0.001    0.166    0.167
 cp_sm_mix                        13200  6.0    0.039    0.043    0.163    0.165
 x_to_yz                            300 13.2    0.022    0.023    0.158    0.161
 dbcsr_sort_indices              129678 10.8    0.136    0.143    0.136    0.143
 yz_to_x                            245 12.8    0.014    0.015    0.129    0.141
 dbcsr_set                       108025  7.9    0.098    0.101    0.131    0.134
 transfer_pw2rs_500                  31 11.9    0.061    0.063    0.124    0.126
 dbcsr_iterator_seek             341307 10.0    0.116    0.121    0.116    0.121
 mp_bcast_am_src                    153  7.2    0.099    0.102    0.110    0.115
 merge_index                      47552 11.3    0.092    0.105    0.092    0.105
 kpoint_density_matrices             30  7.0    0.008    0.008    0.101    0.104
 qs_energies_init_hamiltonians        1  3.0    0.000    0.000    0.104    0.104
 dbcsr_make_index_exist          188302  9.2    0.092    0.099    0.092    0.099
 mp_max_d                         13202  7.0    0.093    0.098    0.093    0.098
 cp_dbcsr_alloc_block_from_nbl     3262  5.1    0.056    0.085    0.067    0.097
 parallel_gemm_fm                  3840  8.0    0.003    0.004    0.092    0.095
 parallel_gemm_fm_gemm             3840  9.0    0.004    0.004    0.089    0.091
 cp_fm_gemm                        3840 10.0    0.085    0.088    0.085    0.088
 cp_fm_finish_copy_general        19348  7.8    0.059    0.061    0.081    0.086
 mp_irecv_iv                     186688  8.3    0.011    0.086    0.011    0.086
 xc_functional_eval                  30 11.0    0.000    0.000    0.080    0.081
 pbe_lda_eval                        30 12.0    0.079    0.080    0.079    0.080
 dbcsr_reserve_all_blocks         15360 10.0    0.022    0.023    0.076    0.080
 init_scf_run                         1  3.0    0.000    0.000    0.073    0.076
 scf_env_initial_rho_setup            1  4.0    0.000    0.000    0.073    0.075
 dbcsr_switch_data_area           63504 10.4    0.057    0.058    0.074    0.075
 dbcsr_reserve_blocks             18622 10.1    0.049    0.052    0.064    0.068
 mp_isend_dv                      47264  8.2    0.060    0.066    0.060    0.066
 build_core_hamiltonian_matrix        1  4.0    0.002    0.002    0.052    0.066
 mp_isend_iv                     105160  8.3    0.016    0.061    0.016    0.061
 topology_control                     1  2.0    0.000    0.000    0.060    0.060
 cp_fm_cleanup_copy_general       33232  7.0    0.036    0.037    0.055    0.057
 qs_env_update_s_mstruct              1  4.0    0.000    0.000    0.042    0.045
 mp_irecv_im2                     93344  8.3    0.005    0.042    0.005    0.042
 transfer_rs2pw_170                  31  9.0    0.009    0.009    0.033    0.042
 read_cell_cif                        2  4.5    0.002    0.004    0.041    0.041
 pw_scatter_p                       300 12.2    0.040    0.040    0.040    0.040
 coordinate_control                   1  3.0    0.000    0.001    0.037    0.037
 coordinate_control_READ_COORDI       1  4.0    0.000    0.000    0.037    0.037
 read_coordinate_cif                  1  5.0    0.002    0.002    0.037    0.037
 dbcsr_get_data_size_used        111056  9.8    0.035    0.037    0.035    0.037
 dbcsr_distribution_new           47554  8.6    0.033    0.036    0.033    0.036
 mp_isendrecv_dv                    847 13.0    0.015    0.036    0.015    0.036
 pw_poisson_solve                    30  8.0    0.000    0.000    0.035    0.036
 dbcsr_zero                      108025  8.9    0.033    0.035    0.033    0.035
 transfer_pw2rs_170                  30 12.0    0.012    0.012    0.030    0.034
 dbcsr_make_dbcsr_index          129678 10.8    0.032    0.033    0.032    0.033
 mixing_allocate                      1  3.0    0.003    0.003    0.024    0.033
 fft_wrap_pw1pw2_170                 61 10.5    0.002    0.002    0.031    0.032
 calculate_rho_core                   1  5.0    0.001    0.001    0.027    0.032
 qs_init_subsys                       1  2.0    0.001    0.001    0.031    0.031
 qs_env_setup                         1  3.0    0.000    0.000    0.028    0.029
 mp_isend_im2                     52580  8.3    0.007    0.028    0.007    0.028
 qs_env_rebuild_pw_env                2  3.5    0.000    0.000    0.028    0.028
 pw_env_rebuild                       1  5.0    0.000    0.000    0.028    0.028
 cp_cfm_triangular_multiply        2991  7.9    0.026    0.028    0.026    0.028
 kpoint_set_mo_occupation            30  7.0    0.007    0.007    0.022    0.028
 mp_irecv_dv                      47264  8.2    0.026    0.027    0.026    0.027
 pw_grid_setup                        4  6.0    0.000    0.000    0.026    0.027
 pw_grid_setup_internal               4  7.0    0.001    0.001    0.026    0.027
 dbcsr_data_copy_aa2              47552 11.3    0.022    0.027    0.022    0.027
 mp_sum_dv                          325  3.4    0.014    0.025    0.014    0.025
 pw_integral_ab_c1d_c1d_gs           30  9.0    0.023    0.023    0.024    0.024
 mp_sum_dm3                          30  8.0    0.015    0.021    0.015    0.021
 pw_gather_p                        245 11.8    0.020    0.020    0.020    0.020
 build_overlap_matrix_low             1  5.0    0.004    0.004    0.015    0.019
 build_kinetic_matrix_low             1  5.0    0.003    0.003    0.014    0.018
 pw_grid_sort                         4  8.0    0.011    0.011    0.016    0.016
 qs_env_rebuild_rho                   1  5.0    0.000    0.000    0.012    0.016
 qs_rho_rebuild                       1  6.0    0.001    0.001    0.012    0.016
 restraint_control                    1  2.0    0.000    0.000    0.008    0.016
 mp_sum_i                             4  2.8    0.008    0.015    0.008    0.015
 cp_cfm_cholesky_decompose          997  7.9    0.014    0.015    0.014    0.015
 mixing_init                          1  5.0    0.014    0.014    0.014    0.014
 calculate_first_density_matrix       1  5.0    0.000    0.000    0.011    0.014
 calculate_atomic_block_dm            1  6.0    0.001    0.001    0.010    0.013
 scf_post_calculation_gpw             1  3.0    0.000    0.000    0.013    0.013
 write_available_results              1  4.0    0.000    0.000    0.013    0.013
 write_mo_free_results                1  5.0    0.001    0.001    0.012    0.013
 grid_free_task_list                  1  2.0    0.010    0.011    0.010    0.011
 pw_copy                            450 10.5    0.011    0.011    0.011    0.011
 pw_derive                          270 11.3    0.010    0.010    0.010    0.010
 cp_cfm_triangular_invert           997  7.9    0.010    0.010    0.010    0.010
 fft_wrap_pw1pw2_60                  61 10.5    0.001    0.001    0.010    0.010
 mp_sum_l                           429  2.1    0.008    0.009    0.008    0.009
 calculate_ecore_overlap              1  4.0    0.000    0.000    0.006    0.009
 transfer_pw2rs_60                   30 12.0    0.003    0.003    0.008    0.008
 mp_comm_size                     27427  9.0    0.007    0.008    0.007    0.008
 mp_comm_rank                     27427  9.0    0.007    0.008    0.007    0.008
 transfer_rs2pw_60                   31  9.0    0.002    0.003    0.007    0.008
 pw_poisson_set                      31  8.9    0.000    0.000    0.007    0.007
 fft_wrap_pw1pw2_20                  61 10.5    0.000    0.000    0.006    0.007
 qs_create_task_list                  1  5.0    0.000    0.000    0.004    0.006
 generate_qs_task_list                1  6.0    0.003    0.004    0.004    0.006
 mp_maxloc_dv                       877  1.0    0.005    0.006    0.005    0.006
 mp_sum_iv                           24  5.3    0.004    0.006    0.004    0.006
 pw_copy_from_array                 300 12.2    0.005    0.006    0.005    0.006
 mp_sum_dm                           29  7.0    0.003    0.006    0.003    0.006
 qs_scf_ensure_work_matrices          1  3.0    0.000    0.000    0.004    0.006
 sort_shells                          4  9.0    0.005    0.005    0.005    0.005
 mp_recv_dv                        2640  7.0    0.001    0.005    0.001    0.005
 mp_bcast_av                        438  1.0    0.002    0.003    0.004    0.005
 pw_axpy                            304  9.3    0.005    0.005    0.005    0.005
 hirshfeld_integration                1  6.0    0.000    0.001    0.005    0.005
 calculate_hirshfeld_normalizat       1  6.0    0.000    0.001    0.004    0.005
 cp_cfm_scale_and_add_fm           3988  6.9    0.004    0.004    0.004    0.004
 cp_cfm_to_cfm_columns              997  7.9    0.004    0.004    0.004    0.004
 -------------------------------------------------------------------------------

 The number of warnings for this run is : 1
 
 -------------------------------------------------------------------------------
  **** **** ******  **  PROGRAM ENDED AT                 2025-08-03 21:27:36.512
 ***** ** ***  *** **   PROGRAM RAN ON                              i03r10c06s05
 **    ****   ******    PROGRAM RAN BY                                   di38fab
 ***** **    ** ** **   PROGRAM PROCESS ID                                331775
  **** **  *******  **  PROGRAM STOPPED IN /hppfs/scratch/04/di38fab/09_GTH/Delt
                                           a_Set/H/TZVP-MOLOPT-PBE-GTH/8x8x8
