 DBCSR| CPU Multiplication driver                                           BLAS (U)
 DBCSR| Multrec recursion limit                                              512 (U)
 DBCSR| Multiplication stack size                                           1000 (D)
 DBCSR| Maximum elements for images                                    UNLIMITED (U)
 DBCSR| Multiplicative factor virtual images                                   1 (U)
 DBCSR| Use multiplication densification                                       T (D)
 DBCSR| Multiplication size stacks                                             3 (U)
 DBCSR| Use memory pool for CPU allocation                                     F (U)
 DBCSR| Number of 3D layers                                               SINGLE (U)
 DBCSR| Use MPI memory allocation                                              F (U)
 DBCSR| Use RMA algorithm                                                      F (U)
 DBCSR| Use Communication thread                                               T (U)
 DBCSR| Communication thread load                                             45 (D)
 DBCSR| MPI: My process id                                                     0
 DBCSR| MPI: Number of processes                                              16
 DBCSR| OMP: Current number of threads                                        12
 DBCSR| OMP: Max number of threads                                            12
 DBCSR| Split modifier for TAS multiplication algorithm                  1.0E+00 (U)


  **** **** ******  **  PROGRAM STARTED AT               2025-08-05 23:35:40.439
 ***** ** ***  *** **   PROGRAM STARTED ON                          i04r01c03s06
 **    ****   ******    PROGRAM STARTED BY                               di38fab
 ***** **    ** ** **   PROGRAM PROCESS ID                                880881
  **** **  *******  **  PROGRAM STARTED IN /hppfs/scratch/04/di38fab/09_GTH/Delt
                                           a_Set/C/aug-TZVP-MOLOPT-GTH-tier-2/8x
                                           8x8

 CP2K| version string:                 CP2K version 2025.1 (Development Version)
 CP2K| source code revision number:                                  git:3130539
 CP2K| cp2kflags: omp libint fftw3 libxc parallel scalapack max_contr=4         
 CP2K| is freely available from                            https://www.cp2k.org/
 CP2K| Program compiled at                         Tue Jun  3 16:14:32 CEST 2025
 CP2K| Program compiled on                                               login01
 CP2K| Program compiled for                                        Supermuc-foss
 CP2K| Data directory path                  /hppfs/work/pn36zo/di38fab/cp2k/data
 CP2K| Input file name                                                    GW.inp

 GLOBAL| Force Environment number                                              1
 GLOBAL| Basis set file name            /hppfs/scratch/04/di38fab/09_GTH/BASIS_A
 GLOBAL| Potential file name            /hppfs/work/pn36zo/di38fab/cp2k/data/GTH
 GLOBAL| MM Potential file name                                     MM_POTENTIAL
 GLOBAL| Coordinate file name                                              C.cif
 GLOBAL| Method name                                                        CP2K
 GLOBAL| Project name                                                       WSe2
 GLOBAL| Run type                                                         ENERGY
 GLOBAL| FFT library                                                       FFTW3
 GLOBAL| Diagonalization library                                       ScaLAPACK
 GLOBAL| Cholesky decomposition library                                ScaLAPACK
 GLOBAL| DGEMM library                                                      BLAS
 GLOBAL| Orthonormality check for eigenvectors                          DISABLED
 GLOBAL| Matrix multiplication library                                 ScaLAPACK
 GLOBAL| All-to-all communication in single precision                          F
 GLOBAL| FFTs using library dependent lengths                                  F
 GLOBAL| Grid backend                                                       AUTO
 GLOBAL| Global print level                                               MEDIUM
 GLOBAL| MPI I/O enabled                                                       T
 GLOBAL| Total number of message passing processes                            16
 GLOBAL| Number of threads for this process                                   12
 GLOBAL| This output is from process                                           0
 GLOBAL| OpenMP stack size per thread (OMP_STACKSIZE)                    default
 GLOBAL| CPU model name             Intel(R) Xeon(R) Platinum 8174 CPU @ 3.10GHz

 MEMORY| system memory details [Kb]
 MEMORY|                        rank 0           min           max       average
 MEMORY| MemTotal             98436664      98436620      98436664      98436653
 MEMORY| MemFree              84501600      84501600      84618736      84554047
 MEMORY| Buffers                     0             0             0             0
 MEMORY| Cached                2450120       2404728       2450120       2432332
 MEMORY| Slab                  1288884       1272232       1290208       1282141
 MEMORY| SReclaimable           287760        278804        287760        283753
 MEMORY| MemLikelyFree        87239480      87235372      87310968      87270132


 *** Fundamental physical constants (SI units) ***

 *** Literature: B. J. Mohr and B. N. Taylor,
 ***             CODATA recommended values of the fundamental physical
 ***             constants: 2006, Web Version 5.1
 ***             http://physics.nist.gov/constants

 Speed of light in vacuum [m/s]                             2.99792458000000E+08
 Magnetic constant or permeability of vacuum [N/A**2]       1.25663706143592E-06
 Electric constant or permittivity of vacuum [F/m]          8.85418781762039E-12
 Planck constant (h) [J*s]                                  6.62606896000000E-34
 Planck constant (h-bar) [J*s]                              1.05457162825177E-34
 Elementary charge [C]                                      1.60217648700000E-19
 Electron mass [kg]                                         9.10938215000000E-31
 Electron g factor [ ]                                     -2.00231930436220E+00
 Proton mass [kg]                                           1.67262163700000E-27
 Fine-structure constant                                    7.29735253760000E-03
 Rydberg constant [1/m]                                     1.09737315685270E+07
 Avogadro constant [1/mol]                                  6.02214179000000E+23
 Boltzmann constant [J/K]                                   1.38065040000000E-23
 Atomic mass unit [kg]                                      1.66053878200000E-27
 Bohr radius [m]                                            5.29177208590000E-11

 *** Conversion factors ***

 [u] -> [a.u.]                                              1.82288848426455E+03
 [Angstrom] -> [Bohr] = [a.u.]                              1.88972613288564E+00
 [a.u.] = [Bohr] -> [Angstrom]                              5.29177208590000E-01
 [a.u.] -> [s]                                              2.41888432650478E-17
 [a.u.] -> [fs]                                             2.41888432650478E-02
 [a.u.] -> [J]                                              4.35974393937059E-18
 [a.u.] -> [N]                                              8.23872205491840E-08
 [a.u.] -> [K]                                              3.15774647902944E+05
 [a.u.] -> [kJ/mol]                                         2.62549961709828E+03
 [a.u.] -> [kcal/mol]                                       6.27509468713739E+02
 [a.u.] -> [Pa]                                             2.94210107994716E+13
 [a.u.] -> [bar]                                            2.94210107994716E+08
 [a.u.] -> [atm]                                            2.90362800883016E+08
 [a.u.] -> [eV]                                             2.72113838565563E+01
 [a.u.] -> [Hz]                                             6.57968392072181E+15
 [a.u.] -> [1/cm] (wave numbers)                            2.19474631370540E+05
 [a.u./Bohr**2] -> [1/cm]                                   5.14048714338585E+03
 

 CELL_TOP| Volume [angstrom^3]:                                        46.656548
 CELL_TOP| Vector a [angstrom     2.469     0.000     0.000   |a| =     2.468570
 CELL_TOP| Vector b [angstrom    -1.234     2.138     0.000   |b| =     2.468570
 CELL_TOP| Vector c [angstrom     0.000     0.000     8.841   |c| =     8.840790
 CELL_TOP| Angle (b,c), alpha [degree]:                                90.000000
 CELL_TOP| Angle (a,c), beta  [degree]:                                90.000000
 CELL_TOP| Angle (a,b), gamma [degree]:                               120.000000
 CELL_TOP| Numerically orthorhombic:                                          NO
 CELL_TOP| Periodicity                                                       XYZ

 CELL_CIF| Volume [angstrom^3]:                                        46.656548
 CELL_CIF| Vector a [angstrom     2.469     0.000     0.000   |a| =     2.468570
 CELL_CIF| Vector b [angstrom    -1.234     2.138     0.000   |b| =     2.468570
 CELL_CIF| Vector c [angstrom     0.000     0.000     8.841   |c| =     8.840790
 CELL_CIF| Angle (b,c), alpha [degree]:                                90.000000
 CELL_CIF| Angle (a,c), beta  [degree]:                                90.000000
 CELL_CIF| Angle (a,b), gamma [degree]:                               120.000000
 CELL_CIF| Numerically orthorhombic:                                          NO
 CELL_CIF| Periodicity                                                       XYZ

 GENERATE|  Preliminary Number of Bonds generated:                             0
 GENERATE|  Achieved consistency in connectivity generation.

 CELL| Volume [angstrom^3]:                                            46.656548
 CELL| Vector a [angstrom]:       2.469     0.000     0.000   |a| =     2.468570
 CELL| Vector b [angstrom]:      -1.234     2.138     0.000   |b| =     2.468570
 CELL| Vector c [angstrom]:       0.000     0.000     8.841   |c| =     8.840790
 CELL| Angle (b,c), alpha [degree]:                                    90.000000
 CELL| Angle (a,c), beta  [degree]:                                    90.000000
 CELL| Angle (a,b), gamma [degree]:                                   120.000000
 CELL| Numerically orthorhombic:                                              NO
 CELL| Periodicity                                                           XYZ

 CELL_REF| Volume [angstrom^3]:                                        46.656548
 CELL_REF| Vector a [angstrom     2.469     0.000     0.000   |a| =     2.468570
 CELL_REF| Vector b [angstrom    -1.234     2.138     0.000   |b| =     2.468570
 CELL_REF| Vector c [angstrom     0.000     0.000     8.841   |c| =     8.840790
 CELL_REF| Angle (b,c), alpha [degree]:                                90.000000
 CELL_REF| Angle (a,c), beta  [degree]:                                90.000000
 CELL_REF| Angle (a,b), gamma [degree]:                               120.000000
 CELL_REF| Numerically orthorhombic:                                          NO
 CELL_REF| Periodicity                                                       XYZ

 *** WARNING in cryssym.F:180 :: Symmetry library SPGLIB not available ***


 *******************************************************************************
                                    Kpoints
 *******************************************************************************
 BRILLOUIN| K-point scheme                                        Monkhorst-Pack
 BRILLOUIN| K-Point grid                                             8    8    8
 BRILLOUIN| Accuracy in Symmetry determination                      0.100000E-05
 BRILLOUIN| K-Point point group symmetrization                               OFF
 BRILLOUIN| Wavefunction type                                            COMPLEX
 BRILLOUIN| List of Kpoints [2 Pi/Bohr]                                      256
 BRILLOUIN| Number           Weight            X              Y              Z
 BRILLOUIN|     1           0.00391       -0.43750       -0.43750       -0.43750
 BRILLOUIN|     2           0.00391       -0.43750       -0.43750       -0.31250
 BRILLOUIN|     3           0.00391       -0.43750       -0.43750       -0.18750
 BRILLOUIN|     4           0.00391       -0.43750       -0.43750       -0.06250
 BRILLOUIN|     5           0.00391       -0.43750       -0.43750        0.06250
 BRILLOUIN|     6           0.00391       -0.43750       -0.43750        0.18750
 BRILLOUIN|     7           0.00391       -0.43750       -0.43750        0.31250
 BRILLOUIN|     8           0.00391       -0.43750       -0.43750        0.43750
 BRILLOUIN|     9           0.00391       -0.43750       -0.31250       -0.43750
 BRILLOUIN|    10           0.00391       -0.43750       -0.31250       -0.31250
 BRILLOUIN|    11           0.00391       -0.43750       -0.31250       -0.18750
 BRILLOUIN|    12           0.00391       -0.43750       -0.31250       -0.06250
 BRILLOUIN|    13           0.00391       -0.43750       -0.31250        0.06250
 BRILLOUIN|    14           0.00391       -0.43750       -0.31250        0.18750
 BRILLOUIN|    15           0.00391       -0.43750       -0.31250        0.31250
 BRILLOUIN|    16           0.00391       -0.43750       -0.31250        0.43750
 BRILLOUIN|    17           0.00391       -0.43750       -0.18750       -0.43750
 BRILLOUIN|    18           0.00391       -0.43750       -0.18750       -0.31250
 BRILLOUIN|    19           0.00391       -0.43750       -0.18750       -0.18750
 BRILLOUIN|    20           0.00391       -0.43750       -0.18750       -0.06250
 BRILLOUIN|    21           0.00391       -0.43750       -0.18750        0.06250
 BRILLOUIN|    22           0.00391       -0.43750       -0.18750        0.18750
 BRILLOUIN|    23           0.00391       -0.43750       -0.18750        0.31250
 BRILLOUIN|    24           0.00391       -0.43750       -0.18750        0.43750
 BRILLOUIN|    25           0.00391       -0.43750       -0.06250       -0.43750
 BRILLOUIN|    26           0.00391       -0.43750       -0.06250       -0.31250
 BRILLOUIN|    27           0.00391       -0.43750       -0.06250       -0.18750
 BRILLOUIN|    28           0.00391       -0.43750       -0.06250       -0.06250
 BRILLOUIN|    29           0.00391       -0.43750       -0.06250        0.06250
 BRILLOUIN|    30           0.00391       -0.43750       -0.06250        0.18750
 BRILLOUIN|    31           0.00391       -0.43750       -0.06250        0.31250
 BRILLOUIN|    32           0.00391       -0.43750       -0.06250        0.43750
 BRILLOUIN|    33           0.00391       -0.43750        0.06250       -0.43750
 BRILLOUIN|    34           0.00391       -0.43750        0.06250       -0.31250
 BRILLOUIN|    35           0.00391       -0.43750        0.06250       -0.18750
 BRILLOUIN|    36           0.00391       -0.43750        0.06250       -0.06250
 BRILLOUIN|    37           0.00391       -0.43750        0.06250        0.06250
 BRILLOUIN|    38           0.00391       -0.43750        0.06250        0.18750
 BRILLOUIN|    39           0.00391       -0.43750        0.06250        0.31250
 BRILLOUIN|    40           0.00391       -0.43750        0.06250        0.43750
 BRILLOUIN|    41           0.00391       -0.43750        0.18750       -0.43750
 BRILLOUIN|    42           0.00391       -0.43750        0.18750       -0.31250
 BRILLOUIN|    43           0.00391       -0.43750        0.18750       -0.18750
 BRILLOUIN|    44           0.00391       -0.43750        0.18750       -0.06250
 BRILLOUIN|    45           0.00391       -0.43750        0.18750        0.06250
 BRILLOUIN|    46           0.00391       -0.43750        0.18750        0.18750
 BRILLOUIN|    47           0.00391       -0.43750        0.18750        0.31250
 BRILLOUIN|    48           0.00391       -0.43750        0.18750        0.43750
 BRILLOUIN|    49           0.00391       -0.43750        0.31250       -0.43750
 BRILLOUIN|    50           0.00391       -0.43750        0.31250       -0.31250
 BRILLOUIN|    51           0.00391       -0.43750        0.31250       -0.18750
 BRILLOUIN|    52           0.00391       -0.43750        0.31250       -0.06250
 BRILLOUIN|    53           0.00391       -0.43750        0.31250        0.06250
 BRILLOUIN|    54           0.00391       -0.43750        0.31250        0.18750
 BRILLOUIN|    55           0.00391       -0.43750        0.31250        0.31250
 BRILLOUIN|    56           0.00391       -0.43750        0.31250        0.43750
 BRILLOUIN|    57           0.00391       -0.43750        0.43750       -0.43750
 BRILLOUIN|    58           0.00391       -0.43750        0.43750       -0.31250
 BRILLOUIN|    59           0.00391       -0.43750        0.43750       -0.18750
 BRILLOUIN|    60           0.00391       -0.43750        0.43750       -0.06250
 BRILLOUIN|    61           0.00391       -0.43750        0.43750        0.06250
 BRILLOUIN|    62           0.00391       -0.43750        0.43750        0.18750
 BRILLOUIN|    63           0.00391       -0.43750        0.43750        0.31250
 BRILLOUIN|    64           0.00391       -0.43750        0.43750        0.43750
 BRILLOUIN|    65           0.00391       -0.31250       -0.43750       -0.43750
 BRILLOUIN|    66           0.00391       -0.31250       -0.43750       -0.31250
 BRILLOUIN|    67           0.00391       -0.31250       -0.43750       -0.18750
 BRILLOUIN|    68           0.00391       -0.31250       -0.43750       -0.06250
 BRILLOUIN|    69           0.00391       -0.31250       -0.43750        0.06250
 BRILLOUIN|    70           0.00391       -0.31250       -0.43750        0.18750
 BRILLOUIN|    71           0.00391       -0.31250       -0.43750        0.31250
 BRILLOUIN|    72           0.00391       -0.31250       -0.43750        0.43750
 BRILLOUIN|    73           0.00391       -0.31250       -0.31250       -0.43750
 BRILLOUIN|    74           0.00391       -0.31250       -0.31250       -0.31250
 BRILLOUIN|    75           0.00391       -0.31250       -0.31250       -0.18750
 BRILLOUIN|    76           0.00391       -0.31250       -0.31250       -0.06250
 BRILLOUIN|    77           0.00391       -0.31250       -0.31250        0.06250
 BRILLOUIN|    78           0.00391       -0.31250       -0.31250        0.18750
 BRILLOUIN|    79           0.00391       -0.31250       -0.31250        0.31250
 BRILLOUIN|    80           0.00391       -0.31250       -0.31250        0.43750
 BRILLOUIN|    81           0.00391       -0.31250       -0.18750       -0.43750
 BRILLOUIN|    82           0.00391       -0.31250       -0.18750       -0.31250
 BRILLOUIN|    83           0.00391       -0.31250       -0.18750       -0.18750
 BRILLOUIN|    84           0.00391       -0.31250       -0.18750       -0.06250
 BRILLOUIN|    85           0.00391       -0.31250       -0.18750        0.06250
 BRILLOUIN|    86           0.00391       -0.31250       -0.18750        0.18750
 BRILLOUIN|    87           0.00391       -0.31250       -0.18750        0.31250
 BRILLOUIN|    88           0.00391       -0.31250       -0.18750        0.43750
 BRILLOUIN|    89           0.00391       -0.31250       -0.06250       -0.43750
 BRILLOUIN|    90           0.00391       -0.31250       -0.06250       -0.31250
 BRILLOUIN|    91           0.00391       -0.31250       -0.06250       -0.18750
 BRILLOUIN|    92           0.00391       -0.31250       -0.06250       -0.06250
 BRILLOUIN|    93           0.00391       -0.31250       -0.06250        0.06250
 BRILLOUIN|    94           0.00391       -0.31250       -0.06250        0.18750
 BRILLOUIN|    95           0.00391       -0.31250       -0.06250        0.31250
 BRILLOUIN|    96           0.00391       -0.31250       -0.06250        0.43750
 BRILLOUIN|    97           0.00391       -0.31250        0.06250       -0.43750
 BRILLOUIN|    98           0.00391       -0.31250        0.06250       -0.31250
 BRILLOUIN|    99           0.00391       -0.31250        0.06250       -0.18750
 BRILLOUIN|   100           0.00391       -0.31250        0.06250       -0.06250
 BRILLOUIN|   101           0.00391       -0.31250        0.06250        0.06250
 BRILLOUIN|   102           0.00391       -0.31250        0.06250        0.18750
 BRILLOUIN|   103           0.00391       -0.31250        0.06250        0.31250
 BRILLOUIN|   104           0.00391       -0.31250        0.06250        0.43750
 BRILLOUIN|   105           0.00391       -0.31250        0.18750       -0.43750
 BRILLOUIN|   106           0.00391       -0.31250        0.18750       -0.31250
 BRILLOUIN|   107           0.00391       -0.31250        0.18750       -0.18750
 BRILLOUIN|   108           0.00391       -0.31250        0.18750       -0.06250
 BRILLOUIN|   109           0.00391       -0.31250        0.18750        0.06250
 BRILLOUIN|   110           0.00391       -0.31250        0.18750        0.18750
 BRILLOUIN|   111           0.00391       -0.31250        0.18750        0.31250
 BRILLOUIN|   112           0.00391       -0.31250        0.18750        0.43750
 BRILLOUIN|   113           0.00391       -0.31250        0.31250       -0.43750
 BRILLOUIN|   114           0.00391       -0.31250        0.31250       -0.31250
 BRILLOUIN|   115           0.00391       -0.31250        0.31250       -0.18750
 BRILLOUIN|   116           0.00391       -0.31250        0.31250       -0.06250
 BRILLOUIN|   117           0.00391       -0.31250        0.31250        0.06250
 BRILLOUIN|   118           0.00391       -0.31250        0.31250        0.18750
 BRILLOUIN|   119           0.00391       -0.31250        0.31250        0.31250
 BRILLOUIN|   120           0.00391       -0.31250        0.31250        0.43750
 BRILLOUIN|   121           0.00391       -0.31250        0.43750       -0.43750
 BRILLOUIN|   122           0.00391       -0.31250        0.43750       -0.31250
 BRILLOUIN|   123           0.00391       -0.31250        0.43750       -0.18750
 BRILLOUIN|   124           0.00391       -0.31250        0.43750       -0.06250
 BRILLOUIN|   125           0.00391       -0.31250        0.43750        0.06250
 BRILLOUIN|   126           0.00391       -0.31250        0.43750        0.18750
 BRILLOUIN|   127           0.00391       -0.31250        0.43750        0.31250
 BRILLOUIN|   128           0.00391       -0.31250        0.43750        0.43750
 BRILLOUIN|   129           0.00391       -0.18750       -0.43750       -0.43750
 BRILLOUIN|   130           0.00391       -0.18750       -0.43750       -0.31250
 BRILLOUIN|   131           0.00391       -0.18750       -0.43750       -0.18750
 BRILLOUIN|   132           0.00391       -0.18750       -0.43750       -0.06250
 BRILLOUIN|   133           0.00391       -0.18750       -0.43750        0.06250
 BRILLOUIN|   134           0.00391       -0.18750       -0.43750        0.18750
 BRILLOUIN|   135           0.00391       -0.18750       -0.43750        0.31250
 BRILLOUIN|   136           0.00391       -0.18750       -0.43750        0.43750
 BRILLOUIN|   137           0.00391       -0.18750       -0.31250       -0.43750
 BRILLOUIN|   138           0.00391       -0.18750       -0.31250       -0.31250
 BRILLOUIN|   139           0.00391       -0.18750       -0.31250       -0.18750
 BRILLOUIN|   140           0.00391       -0.18750       -0.31250       -0.06250
 BRILLOUIN|   141           0.00391       -0.18750       -0.31250        0.06250
 BRILLOUIN|   142           0.00391       -0.18750       -0.31250        0.18750
 BRILLOUIN|   143           0.00391       -0.18750       -0.31250        0.31250
 BRILLOUIN|   144           0.00391       -0.18750       -0.31250        0.43750
 BRILLOUIN|   145           0.00391       -0.18750       -0.18750       -0.43750
 BRILLOUIN|   146           0.00391       -0.18750       -0.18750       -0.31250
 BRILLOUIN|   147           0.00391       -0.18750       -0.18750       -0.18750
 BRILLOUIN|   148           0.00391       -0.18750       -0.18750       -0.06250
 BRILLOUIN|   149           0.00391       -0.18750       -0.18750        0.06250
 BRILLOUIN|   150           0.00391       -0.18750       -0.18750        0.18750
 BRILLOUIN|   151           0.00391       -0.18750       -0.18750        0.31250
 BRILLOUIN|   152           0.00391       -0.18750       -0.18750        0.43750
 BRILLOUIN|   153           0.00391       -0.18750       -0.06250       -0.43750
 BRILLOUIN|   154           0.00391       -0.18750       -0.06250       -0.31250
 BRILLOUIN|   155           0.00391       -0.18750       -0.06250       -0.18750
 BRILLOUIN|   156           0.00391       -0.18750       -0.06250       -0.06250
 BRILLOUIN|   157           0.00391       -0.18750       -0.06250        0.06250
 BRILLOUIN|   158           0.00391       -0.18750       -0.06250        0.18750
 BRILLOUIN|   159           0.00391       -0.18750       -0.06250        0.31250
 BRILLOUIN|   160           0.00391       -0.18750       -0.06250        0.43750
 BRILLOUIN|   161           0.00391       -0.18750        0.06250       -0.43750
 BRILLOUIN|   162           0.00391       -0.18750        0.06250       -0.31250
 BRILLOUIN|   163           0.00391       -0.18750        0.06250       -0.18750
 BRILLOUIN|   164           0.00391       -0.18750        0.06250       -0.06250
 BRILLOUIN|   165           0.00391       -0.18750        0.06250        0.06250
 BRILLOUIN|   166           0.00391       -0.18750        0.06250        0.18750
 BRILLOUIN|   167           0.00391       -0.18750        0.06250        0.31250
 BRILLOUIN|   168           0.00391       -0.18750        0.06250        0.43750
 BRILLOUIN|   169           0.00391       -0.18750        0.18750       -0.43750
 BRILLOUIN|   170           0.00391       -0.18750        0.18750       -0.31250
 BRILLOUIN|   171           0.00391       -0.18750        0.18750       -0.18750
 BRILLOUIN|   172           0.00391       -0.18750        0.18750       -0.06250
 BRILLOUIN|   173           0.00391       -0.18750        0.18750        0.06250
 BRILLOUIN|   174           0.00391       -0.18750        0.18750        0.18750
 BRILLOUIN|   175           0.00391       -0.18750        0.18750        0.31250
 BRILLOUIN|   176           0.00391       -0.18750        0.18750        0.43750
 BRILLOUIN|   177           0.00391       -0.18750        0.31250       -0.43750
 BRILLOUIN|   178           0.00391       -0.18750        0.31250       -0.31250
 BRILLOUIN|   179           0.00391       -0.18750        0.31250       -0.18750
 BRILLOUIN|   180           0.00391       -0.18750        0.31250       -0.06250
 BRILLOUIN|   181           0.00391       -0.18750        0.31250        0.06250
 BRILLOUIN|   182           0.00391       -0.18750        0.31250        0.18750
 BRILLOUIN|   183           0.00391       -0.18750        0.31250        0.31250
 BRILLOUIN|   184           0.00391       -0.18750        0.31250        0.43750
 BRILLOUIN|   185           0.00391       -0.18750        0.43750       -0.43750
 BRILLOUIN|   186           0.00391       -0.18750        0.43750       -0.31250
 BRILLOUIN|   187           0.00391       -0.18750        0.43750       -0.18750
 BRILLOUIN|   188           0.00391       -0.18750        0.43750       -0.06250
 BRILLOUIN|   189           0.00391       -0.18750        0.43750        0.06250
 BRILLOUIN|   190           0.00391       -0.18750        0.43750        0.18750
 BRILLOUIN|   191           0.00391       -0.18750        0.43750        0.31250
 BRILLOUIN|   192           0.00391       -0.18750        0.43750        0.43750
 BRILLOUIN|   193           0.00391       -0.06250       -0.43750       -0.43750
 BRILLOUIN|   194           0.00391       -0.06250       -0.43750       -0.31250
 BRILLOUIN|   195           0.00391       -0.06250       -0.43750       -0.18750
 BRILLOUIN|   196           0.00391       -0.06250       -0.43750       -0.06250
 BRILLOUIN|   197           0.00391       -0.06250       -0.43750        0.06250
 BRILLOUIN|   198           0.00391       -0.06250       -0.43750        0.18750
 BRILLOUIN|   199           0.00391       -0.06250       -0.43750        0.31250
 BRILLOUIN|   200           0.00391       -0.06250       -0.43750        0.43750
 BRILLOUIN|   201           0.00391       -0.06250       -0.31250       -0.43750
 BRILLOUIN|   202           0.00391       -0.06250       -0.31250       -0.31250
 BRILLOUIN|   203           0.00391       -0.06250       -0.31250       -0.18750
 BRILLOUIN|   204           0.00391       -0.06250       -0.31250       -0.06250
 BRILLOUIN|   205           0.00391       -0.06250       -0.31250        0.06250
 BRILLOUIN|   206           0.00391       -0.06250       -0.31250        0.18750
 BRILLOUIN|   207           0.00391       -0.06250       -0.31250        0.31250
 BRILLOUIN|   208           0.00391       -0.06250       -0.31250        0.43750
 BRILLOUIN|   209           0.00391       -0.06250       -0.18750       -0.43750
 BRILLOUIN|   210           0.00391       -0.06250       -0.18750       -0.31250
 BRILLOUIN|   211           0.00391       -0.06250       -0.18750       -0.18750
 BRILLOUIN|   212           0.00391       -0.06250       -0.18750       -0.06250
 BRILLOUIN|   213           0.00391       -0.06250       -0.18750        0.06250
 BRILLOUIN|   214           0.00391       -0.06250       -0.18750        0.18750
 BRILLOUIN|   215           0.00391       -0.06250       -0.18750        0.31250
 BRILLOUIN|   216           0.00391       -0.06250       -0.18750        0.43750
 BRILLOUIN|   217           0.00391       -0.06250       -0.06250       -0.43750
 BRILLOUIN|   218           0.00391       -0.06250       -0.06250       -0.31250
 BRILLOUIN|   219           0.00391       -0.06250       -0.06250       -0.18750
 BRILLOUIN|   220           0.00391       -0.06250       -0.06250       -0.06250
 BRILLOUIN|   221           0.00391       -0.06250       -0.06250        0.06250
 BRILLOUIN|   222           0.00391       -0.06250       -0.06250        0.18750
 BRILLOUIN|   223           0.00391       -0.06250       -0.06250        0.31250
 BRILLOUIN|   224           0.00391       -0.06250       -0.06250        0.43750
 BRILLOUIN|   225           0.00391       -0.06250        0.06250       -0.43750
 BRILLOUIN|   226           0.00391       -0.06250        0.06250       -0.31250
 BRILLOUIN|   227           0.00391       -0.06250        0.06250       -0.18750
 BRILLOUIN|   228           0.00391       -0.06250        0.06250       -0.06250
 BRILLOUIN|   229           0.00391       -0.06250        0.06250        0.06250
 BRILLOUIN|   230           0.00391       -0.06250        0.06250        0.18750
 BRILLOUIN|   231           0.00391       -0.06250        0.06250        0.31250
 BRILLOUIN|   232           0.00391       -0.06250        0.06250        0.43750
 BRILLOUIN|   233           0.00391       -0.06250        0.18750       -0.43750
 BRILLOUIN|   234           0.00391       -0.06250        0.18750       -0.31250
 BRILLOUIN|   235           0.00391       -0.06250        0.18750       -0.18750
 BRILLOUIN|   236           0.00391       -0.06250        0.18750       -0.06250
 BRILLOUIN|   237           0.00391       -0.06250        0.18750        0.06250
 BRILLOUIN|   238           0.00391       -0.06250        0.18750        0.18750
 BRILLOUIN|   239           0.00391       -0.06250        0.18750        0.31250
 BRILLOUIN|   240           0.00391       -0.06250        0.18750        0.43750
 BRILLOUIN|   241           0.00391       -0.06250        0.31250       -0.43750
 BRILLOUIN|   242           0.00391       -0.06250        0.31250       -0.31250
 BRILLOUIN|   243           0.00391       -0.06250        0.31250       -0.18750
 BRILLOUIN|   244           0.00391       -0.06250        0.31250       -0.06250
 BRILLOUIN|   245           0.00391       -0.06250        0.31250        0.06250
 BRILLOUIN|   246           0.00391       -0.06250        0.31250        0.18750
 BRILLOUIN|   247           0.00391       -0.06250        0.31250        0.31250
 BRILLOUIN|   248           0.00391       -0.06250        0.31250        0.43750
 BRILLOUIN|   249           0.00391       -0.06250        0.43750       -0.43750
 BRILLOUIN|   250           0.00391       -0.06250        0.43750       -0.31250
 BRILLOUIN|   251           0.00391       -0.06250        0.43750       -0.18750
 BRILLOUIN|   252           0.00391       -0.06250        0.43750       -0.06250
 BRILLOUIN|   253           0.00391       -0.06250        0.43750        0.06250
 BRILLOUIN|   254           0.00391       -0.06250        0.43750        0.18750
 BRILLOUIN|   255           0.00391       -0.06250        0.43750        0.31250
 BRILLOUIN|   256           0.00391       -0.06250        0.43750        0.43750
 *******************************************************************************

 *******************************************************************************
 *******************************************************************************
 **                                                                           **
 **     #####                         ##              ##                      **
 **    ##   ##            ##          ##              ##                      **
 **   ##     ##                       ##            ######                    **
 **   ##     ##  ##   ##  ##   #####  ##  ##   ####   ##    #####    #####    **
 **   ##     ##  ##   ##  ##  ##      ## ##   ##      ##   ##   ##  ##   ##   **
 **   ##  ## ##  ##   ##  ##  ##      ####     ###    ##   ######   ######    **
 **    ##  ###   ##   ##  ##  ##      ## ##      ##   ##   ##       ##        **
 **     #######   #####   ##   #####  ##  ##  ####    ##    #####   ##        **
 **           ##                                                    ##        **
 **                                                                           **
 **                                                ... make the atoms dance   **
 **                                                                           **
 **            Copyright (C) by CP2K developers group (2000-2025)             **
 **                      J. Chem. Phys. 152, 194103 (2020)                    **
 **                                                                           **
 *******************************************************************************

 DFT| Spin restricted Kohn-Sham (RKS) calculation                            RKS
 DFT| Multiplicity                                                             1
 DFT| Number of spin states                                                    1
 DFT| Charge                                                                   0
 DFT| Self-interaction correction (SIC)                                       NO
 DFT| Cutoffs: density                                              1.000000E-10
 DFT|          gradient                                             1.000000E-10
 DFT|          tau                                                  1.000000E-10
 DFT|          cutoff_smoothing_range                               0.000000E+00
 DFT| XC density smoothing                                                  NONE
 DFT| XC derivatives                                                          PW

 FUNCTIONAL| PBE:
 FUNCTIONAL| J.P.Perdew, K.Burke, M.Ernzerhof, Phys. Rev. Letter, vol. 77, n 18,
 FUNCTIONAL|  pp. 3865-3868, (1996) {spin unpolarized}                          


 QS| Method:                                                                 GPW
 QS| Density plane wave grid type                        NON-SPHERICAL FULLSPACE
 QS| Number of grid levels:                                                    4
 QS| Density cutoff [a.u.]:                                                500.0
 QS| Multi grid cutoff [a.u.]: 1) grid level                               500.0
 QS|                           2) grid level                               166.7
 QS|                           3) grid level                                55.6
 QS|                           4) grid level                                18.5
 QS| Grid level progression factor:                                          3.0
 QS| Relative density cutoff [a.u.]:                                        50.0
 QS| Interaction thresholds: eps_pgf_orb:                                1.0E-16
 QS|                         eps_filter_matrix:                          0.0E+00
 QS|                         eps_core_charge:                            1.0E-18
 QS|                         eps_rho_gspace:                             1.0E-16
 QS|                         eps_rho_rspace:                             1.0E-16
 QS|                         eps_gvg_rspace:                             1.0E-08
 QS|                         eps_ppl:                                    1.0E-02
 QS|                         eps_ppnl:                                   1.0E-10


 ATOMIC KIND INFORMATION

  1. Atomic kind: C                                     Number of atoms:       4

     Orbital Basis Set                                aug-TZVP-MOLOPT-GTH-tier-2

       Number of orbital shell sets:                                           1
       Number of orbital shells:                                              14
       Number of primitive Cartesian functions:                                8
       Number of Cartesian basis functions:                                   69
       Number of spherical basis functions:                                   54
       Norm type:                                                              2

       Normalised Cartesian orbitals:

                        Set   Shell   Orbital            Exponent    Coefficient

                          1       1    2s                0.030287       0.000417
                                                         0.050000       0.000000
                                                         0.075145       0.000568
                                                         0.178617       0.065483
                                                         0.478316       0.306085
                                                         1.045457       0.042712
                                                         2.625196      -0.231112
                                                         6.132625      -0.263661

                          1       2    3s                0.030287       0.008247
                                                         0.050000       0.000000
                                                         0.075145      -0.145101
                                                         0.178617       0.069203
                                                         0.478316       0.644922
                                                         1.045457      -0.593590
                                                         2.625196       0.414269
                                                         6.132625       0.131937

                          1       3    4s                0.030287      -0.031483
                                                         0.050000       0.000000
                                                         0.075145       0.286664
                                                         0.178617      -0.917862
                                                         0.478316       1.417678
                                                         1.045457      -0.320627
                                                         2.625196      -0.608763
                                                         6.132625      -1.009391

                          1       4    5s                0.030287      -0.009543
                                                         0.050000       0.011396
                                                         0.075145       0.044395
                                                         0.178617      -0.404218
                                                         0.478316       0.840942
                                                         1.045457       0.000000
                                                         2.625196       0.000000
                                                         6.132625       0.000000

                          1       5    3px               0.030287       0.000105
                                                         0.050000       0.000000
                                                         0.075145       0.003677
                                                         0.178617       0.052379
                                                         0.478316       0.235193
                                                         1.045457       0.379157
                                                         2.625196       0.633910
                                                         6.132625       0.562677
                          1       5    3py               0.030287       0.000105
                                                         0.050000       0.000000
                                                         0.075145       0.003677
                                                         0.178617       0.052379
                                                         0.478316       0.235193
                                                         1.045457       0.379157
                                                         2.625196       0.633910
                                                         6.132625       0.562677
                          1       5    3pz               0.030287       0.000105
                                                         0.050000       0.000000
                                                         0.075145       0.003677
                                                         0.178617       0.052379
                                                         0.478316       0.235193
                                                         1.045457       0.379157
                                                         2.625196       0.633910
                                                         6.132625       0.562677

                          1       6    4px               0.030287       0.002706
                                                         0.050000       0.000000
                                                         0.075145       0.024920
                                                         0.178617       0.072281
                                                         0.478316       0.135466
                                                         1.045457      -0.481781
                                                         2.625196      -0.221326
                                                         6.132625      -0.472364
                          1       6    4py               0.030287       0.002706
                                                         0.050000       0.000000
                                                         0.075145       0.024920
                                                         0.178617       0.072281
                                                         0.478316       0.135466
                                                         1.045457      -0.481781
                                                         2.625196      -0.221326
                                                         6.132625      -0.472364
                          1       6    4pz               0.030287       0.002706
                                                         0.050000       0.000000
                                                         0.075145       0.024920
                                                         0.178617       0.072281
                                                         0.478316       0.135466
                                                         1.045457      -0.481781
                                                         2.625196      -0.221326
                                                         6.132625      -0.472364

                          1       7    5px               0.030287      -0.008547
                                                         0.050000       0.000000
                                                         0.075145       0.042466
                                                         0.178617      -0.279443
                                                         0.478316       1.236398
                                                         1.045457      -0.659092
                                                         2.625196      -0.513960
                                                         6.132625      -0.321125
                          1       7    5py               0.030287      -0.008547
                                                         0.050000       0.000000
                                                         0.075145       0.042466
                                                         0.178617      -0.279443
                                                         0.478316       1.236398
                                                         1.045457      -0.659092
                                                         2.625196      -0.513960
                                                         6.132625      -0.321125
                          1       7    5pz               0.030287      -0.008547
                                                         0.050000       0.000000
                                                         0.075145       0.042466
                                                         0.178617      -0.279443
                                                         0.478316       1.236398
                                                         1.045457      -0.659092
                                                         2.625196      -0.513960
                                                         6.132625      -0.321125

                          1       8    6px               0.030287      -0.017009
                                                         0.050000       0.002201
                                                         0.075145       0.150372
                                                         0.178617      -0.413979
                                                         0.478316       0.274881
                                                         1.045457       0.000000
                                                         2.625196       0.000000
                                                         6.132625       0.000000
                          1       8    6py               0.030287      -0.017009
                                                         0.050000       0.002201
                                                         0.075145       0.150372
                                                         0.178617      -0.413979
                                                         0.478316       0.274881
                                                         1.045457       0.000000
                                                         2.625196       0.000000
                                                         6.132625       0.000000
                          1       8    6pz               0.030287      -0.017009
                                                         0.050000       0.002201
                                                         0.075145       0.150372
                                                         0.178617      -0.413979
                                                         0.478316       0.274881
                                                         1.045457       0.000000
                                                         2.625196       0.000000
                                                         6.132625       0.000000

                          1       9    4dx2              0.030287      -0.000011
                                                         0.050000       0.000000
                                                         0.075145       0.003649
                                                         0.178617       0.018656
                                                         0.478316       0.191007
                                                         1.045457       0.653959
                                                         2.625196       0.375772
                                                         6.132625       0.874783
                          1       9    4dxy              0.030287      -0.000019
                                                         0.050000       0.000000
                                                         0.075145       0.006321
                                                         0.178617       0.032314
                                                         0.478316       0.330834
                                                         1.045457       1.132690
                                                         2.625196       0.650856
                                                         6.132625       1.515169
                          1       9    4dxz              0.030287      -0.000019
                                                         0.050000       0.000000
                                                         0.075145       0.006321
                                                         0.178617       0.032314
                                                         0.478316       0.330834
                                                         1.045457       1.132690
                                                         2.625196       0.650856
                                                         6.132625       1.515169
                          1       9    4dy2              0.030287      -0.000011
                                                         0.050000       0.000000
                                                         0.075145       0.003649
                                                         0.178617       0.018656
                                                         0.478316       0.191007
                                                         1.045457       0.653959
                                                         2.625196       0.375772
                                                         6.132625       0.874783
                          1       9    4dyz              0.030287      -0.000019
                                                         0.050000       0.000000
                                                         0.075145       0.006321
                                                         0.178617       0.032314
                                                         0.478316       0.330834
                                                         1.045457       1.132690
                                                         2.625196       0.650856
                                                         6.132625       1.515169
                          1       9    4dz2              0.030287      -0.000011
                                                         0.050000       0.000000
                                                         0.075145       0.003649
                                                         0.178617       0.018656
                                                         0.478316       0.191007
                                                         1.045457       0.653959
                                                         2.625196       0.375772
                                                         6.132625       0.874783

                          1      10    5dx2              0.030287       0.000345
                                                         0.050000       0.000000
                                                         0.075145      -0.022558
                                                         0.178617       0.140536
                                                         0.478316      -0.930692
                                                         1.045457       2.577237
                                                         2.625196       0.636556
                                                         6.132625       3.037532
                          1      10    5dxy              0.030287       0.000598
                                                         0.050000       0.000000
                                                         0.075145      -0.039072
                                                         0.178617       0.243416
                                                         0.478316      -1.612005
                                                         1.045457       4.463906
                                                         2.625196       1.102547
                                                         6.132625       5.261160
                          1      10    5dxz              0.030287       0.000598
                                                         0.050000       0.000000
                                                         0.075145      -0.039072
                                                         0.178617       0.243416
                                                         0.478316      -1.612005
                                                         1.045457       4.463906
                                                         2.625196       1.102547
                                                         6.132625       5.261160
                          1      10    5dy2              0.030287       0.000345
                                                         0.050000       0.000000
                                                         0.075145      -0.022558
                                                         0.178617       0.140536
                                                         0.478316      -0.930692
                                                         1.045457       2.577237
                                                         2.625196       0.636556
                                                         6.132625       3.037532
                          1      10    5dyz              0.030287       0.000598
                                                         0.050000       0.000000
                                                         0.075145      -0.039072
                                                         0.178617       0.243416
                                                         0.478316      -1.612005
                                                         1.045457       4.463906
                                                         2.625196       1.102547
                                                         6.132625       5.261160
                          1      10    5dz2              0.030287       0.000345
                                                         0.050000       0.000000
                                                         0.075145      -0.022558
                                                         0.178617       0.140536
                                                         0.478316      -0.930692
                                                         1.045457       2.577237
                                                         2.625196       0.636556
                                                         6.132625       3.037532

                          1      11    6dx2              0.030287       0.000850
                                                         0.050000      -0.000410
                                                         0.075145       0.009178
                                                         0.178617       0.014829
                                                         0.478316       0.182874
                                                         1.045457       0.000000
                                                         2.625196       0.000000
                                                         6.132625       0.000000
                          1      11    6dxy              0.030287       0.001473
                                                         0.050000      -0.000709
                                                         0.075145       0.015897
                                                         0.178617       0.025684
                                                         0.478316       0.316748
                                                         1.045457       0.000000
                                                         2.625196       0.000000
                                                         6.132625       0.000000
                          1      11    6dxz              0.030287       0.001473
                                                         0.050000      -0.000709
                                                         0.075145       0.015897
                                                         0.178617       0.025684
                                                         0.478316       0.316748
                                                         1.045457       0.000000
                                                         2.625196       0.000000
                                                         6.132625       0.000000
                          1      11    6dy2              0.030287       0.000850
                                                         0.050000      -0.000410
                                                         0.075145       0.009178
                                                         0.178617       0.014829
                                                         0.478316       0.182874
                                                         1.045457       0.000000
                                                         2.625196       0.000000
                                                         6.132625       0.000000
                          1      11    6dyz              0.030287       0.001473
                                                         0.050000      -0.000709
                                                         0.075145       0.015897
                                                         0.178617       0.025684
                                                         0.478316       0.316748
                                                         1.045457       0.000000
                                                         2.625196       0.000000
                                                         6.132625       0.000000
                          1      11    6dz2              0.030287       0.000850
                                                         0.050000      -0.000410
                                                         0.075145       0.009178
                                                         0.178617       0.014829
                                                         0.478316       0.182874
                                                         1.045457       0.000000
                                                         2.625196       0.000000
                                                         6.132625       0.000000

                          1      12    5fx3              0.030287      -0.000053
                                                         0.050000       0.000000
                                                         0.075145      -0.000401
                                                         0.178617       0.019196
                                                         0.478316      -0.006952
                                                         1.045457       1.158341
                                                         2.625196       0.333799
                                                         6.132625       1.930042
                          1      12    5fx2y             0.030287      -0.000119
                                                         0.050000       0.000000
                                                         0.075145      -0.000897
                                                         0.178617       0.042923
                                                         0.478316      -0.015546
                                                         1.045457       2.590128
                                                         2.625196       0.746398
                                                         6.132625       4.315704
                          1      12    5fx2z             0.030287      -0.000119
                                                         0.050000       0.000000
                                                         0.075145      -0.000897
                                                         0.178617       0.042923
                                                         0.478316      -0.015546
                                                         1.045457       2.590128
                                                         2.625196       0.746398
                                                         6.132625       4.315704
                          1      12    5fxy2             0.030287      -0.000119
                                                         0.050000       0.000000
                                                         0.075145      -0.000897
                                                         0.178617       0.042923
                                                         0.478316      -0.015546
                                                         1.045457       2.590128
                                                         2.625196       0.746398
                                                         6.132625       4.315704
                          1      12    5fxyz             0.030287      -0.000206
                                                         0.050000       0.000000
                                                         0.075145      -0.001554
                                                         0.178617       0.074345
                                                         0.478316      -0.026926
                                                         1.045457       4.486234
                                                         2.625196       1.292799
                                                         6.132625       7.475019
                          1      12    5fxz2             0.030287      -0.000119
                                                         0.050000       0.000000
                                                         0.075145      -0.000897
                                                         0.178617       0.042923
                                                         0.478316      -0.015546
                                                         1.045457       2.590128
                                                         2.625196       0.746398
                                                         6.132625       4.315704
                          1      12    5fy3              0.030287      -0.000053
                                                         0.050000       0.000000
                                                         0.075145      -0.000401
                                                         0.178617       0.019196
                                                         0.478316      -0.006952
                                                         1.045457       1.158341
                                                         2.625196       0.333799
                                                         6.132625       1.930042
                          1      12    5fy2z             0.030287      -0.000119
                                                         0.050000       0.000000
                                                         0.075145      -0.000897
                                                         0.178617       0.042923
                                                         0.478316      -0.015546
                                                         1.045457       2.590128
                                                         2.625196       0.746398
                                                         6.132625       4.315704
                          1      12    5fyz2             0.030287      -0.000119
                                                         0.050000       0.000000
                                                         0.075145      -0.000897
                                                         0.178617       0.042923
                                                         0.478316      -0.015546
                                                         1.045457       2.590128
                                                         2.625196       0.746398
                                                         6.132625       4.315704
                          1      12    5fz3              0.030287      -0.000053
                                                         0.050000       0.000000
                                                         0.075145      -0.000401
                                                         0.178617       0.019196
                                                         0.478316      -0.006952
                                                         1.045457       1.158341
                                                         2.625196       0.333799
                                                         6.132625       1.930042

                          1      13    6fx3              0.030287       0.000488
                                                         0.050000      -0.000436
                                                         0.075145       0.000592
                                                         0.178617       0.011495
                                                         0.478316       0.090972
                                                         1.045457      -0.260851
                                                         2.625196       0.000000
                                                         6.132625       0.000000
                          1      13    6fx2y             0.030287       0.001090
                                                         0.050000      -0.000976
                                                         0.075145       0.001323
                                                         0.178617       0.025704
                                                         0.478316       0.203420
                                                         1.045457      -0.583280
                                                         2.625196       0.000000
                                                         6.132625       0.000000
                          1      13    6fx2z             0.030287       0.001090
                                                         0.050000      -0.000976
                                                         0.075145       0.001323
                                                         0.178617       0.025704
                                                         0.478316       0.203420
                                                         1.045457      -0.583280
                                                         2.625196       0.000000
                                                         6.132625       0.000000
                          1      13    6fxy2             0.030287       0.001090
                                                         0.050000      -0.000976
                                                         0.075145       0.001323
                                                         0.178617       0.025704
                                                         0.478316       0.203420
                                                         1.045457      -0.583280
                                                         2.625196       0.000000
                                                         6.132625       0.000000
                          1      13    6fxyz             0.030287       0.001889
                                                         0.050000      -0.001690
                                                         0.075145       0.002291
                                                         0.178617       0.044520
                                                         0.478316       0.352334
                                                         1.045457      -1.010270
                                                         2.625196       0.000000
                                                         6.132625       0.000000
                          1      13    6fxz2             0.030287       0.001090
                                                         0.050000      -0.000976
                                                         0.075145       0.001323
                                                         0.178617       0.025704
                                                         0.478316       0.203420
                                                         1.045457      -0.583280
                                                         2.625196       0.000000
                                                         6.132625       0.000000
                          1      13    6fy3              0.030287       0.000488
                                                         0.050000      -0.000436
                                                         0.075145       0.000592
                                                         0.178617       0.011495
                                                         0.478316       0.090972
                                                         1.045457      -0.260851
                                                         2.625196       0.000000
                                                         6.132625       0.000000
                          1      13    6fy2z             0.030287       0.001090
                                                         0.050000      -0.000976
                                                         0.075145       0.001323
                                                         0.178617       0.025704
                                                         0.478316       0.203420
                                                         1.045457      -0.583280
                                                         2.625196       0.000000
                                                         6.132625       0.000000
                          1      13    6fyz2             0.030287       0.001090
                                                         0.050000      -0.000976
                                                         0.075145       0.001323
                                                         0.178617       0.025704
                                                         0.478316       0.203420
                                                         1.045457      -0.583280
                                                         2.625196       0.000000
                                                         6.132625       0.000000
                          1      13    6fz3              0.030287       0.000488
                                                         0.050000      -0.000436
                                                         0.075145       0.000592
                                                         0.178617       0.011495
                                                         0.478316       0.090972
                                                         1.045457      -0.260851
                                                         2.625196       0.000000
                                                         6.132625       0.000000

                          1      14    6gx4              0.030287       0.000043
                                                         0.050000       0.000140
                                                         0.075145      -0.000006
                                                         0.178617      -0.000307
                                                         0.478316       0.003986
                                                         1.045457      -0.080485
                                                         2.625196       0.000000
                                                         6.132625       0.000000
                          1      14    6gx3y             0.030287       0.000113
                                                         0.050000       0.000371
                                                         0.075145      -0.000015
                                                         0.178617      -0.000813
                                                         0.478316       0.010545
                                                         1.045457      -0.212944
                                                         2.625196       0.000000
                                                         6.132625       0.000000
                          1      14    6gx3z             0.030287       0.000113
                                                         0.050000       0.000371
                                                         0.075145      -0.000015
                                                         0.178617      -0.000813
                                                         0.478316       0.010545
                                                         1.045457      -0.212944
                                                         2.625196       0.000000
                                                         6.132625       0.000000
                          1      14    6gx2y2            0.030287       0.000146
                                                         0.050000       0.000479
                                                         0.075145      -0.000019
                                                         0.178617      -0.001049
                                                         0.478316       0.013614
                                                         1.045457      -0.274910
                                                         2.625196       0.000000
                                                         6.132625       0.000000
                          1      14    6gx2yz            0.030287       0.000252
                                                         0.050000       0.000829
                                                         0.075145      -0.000034
                                                         0.178617      -0.001817
                                                         0.478316       0.023580
                                                         1.045457      -0.476157
                                                         2.625196       0.000000
                                                         6.132625       0.000000
                          1      14    6gx2z2            0.030287       0.000146
                                                         0.050000       0.000479
                                                         0.075145      -0.000019
                                                         0.178617      -0.001049
                                                         0.478316       0.013614
                                                         1.045457      -0.274910
                                                         2.625196       0.000000
                                                         6.132625       0.000000
                          1      14    6gxy3             0.030287       0.000113
                                                         0.050000       0.000371
                                                         0.075145      -0.000015
                                                         0.178617      -0.000813
                                                         0.478316       0.010545
                                                         1.045457      -0.212944
                                                         2.625196       0.000000
                                                         6.132625       0.000000
                          1      14    6gxy2z            0.030287       0.000252
                                                         0.050000       0.000829
                                                         0.075145      -0.000034
                                                         0.178617      -0.001817
                                                         0.478316       0.023580
                                                         1.045457      -0.476157
                                                         2.625196       0.000000
                                                         6.132625       0.000000
                          1      14    6gxyz2            0.030287       0.000252
                                                         0.050000       0.000829
                                                         0.075145      -0.000034
                                                         0.178617      -0.001817
                                                         0.478316       0.023580
                                                         1.045457      -0.476157
                                                         2.625196       0.000000
                                                         6.132625       0.000000
                          1      14    6gxz3             0.030287       0.000113
                                                         0.050000       0.000371
                                                         0.075145      -0.000015
                                                         0.178617      -0.000813
                                                         0.478316       0.010545
                                                         1.045457      -0.212944
                                                         2.625196       0.000000
                                                         6.132625       0.000000
                          1      14    6gy4              0.030287       0.000043
                                                         0.050000       0.000140
                                                         0.075145      -0.000006
                                                         0.178617      -0.000307
                                                         0.478316       0.003986
                                                         1.045457      -0.080485
                                                         2.625196       0.000000
[...]
      2       C      1       4.000          4.000                         0.000
      3       C      1       4.000          4.000                        -0.000
      4       C      1       4.000          4.000                        -0.000

  Total Charge                                                           -0.000
 !-----------------------------------------------------------------------------!

 KPOINTS| Band Structure Calculation
 KPOINTS| Number of k-point sets                                               1
 KPOINTS| Number of added MOs/bands                                           -1
 KPOINTS| Number of k-points in set    1                                     148
 KPOINTS| In units of b-vector [2pi/Bohr]
 KPOINTS| Special point     1 not specifi     0.000000     0.000000     0.000000
 KPOINTS| Special point     2 not specifi     0.500000     0.000000     0.000000
 KPOINTS| Special point     3 not specifi     0.333333     0.333333     0.000000
 KPOINTS| Special point     4 not specifi     0.000000     0.000000     0.000000
 KPOINTS| Time for k-point line                                           22.179

 ENERGY| Total FORCE_EVAL ( QS ) energy [hartree]            -22.792510368826605

 -------------------------------------------------------------------------------
 -                                                                             -
 -                                DBCSR STATISTICS                             -
 -                                                                             -
 -------------------------------------------------------------------------------
 COUNTER                                    TOTAL       BLAS       SMM       ACC
 flops inhomo. stacks                           0       0.0%      0.0%      0.0%
 flops total                         0.000000E+00       0.0%      0.0%      0.0%
 flops max/rank                      0.000000E+00       0.0%      0.0%      0.0%
 matmuls inhomo. stacks                         0       0.0%      0.0%      0.0%
 matmuls total                                  0       0.0%      0.0%      0.0%
 number of processed stacks                     0       0.0%      0.0%      0.0%
 average stack size                                     0.0       0.0       0.0
 marketing flops                     0.000000E+00
 -------------------------------------------------------------------------------
 -                                                                             -
 -                      DBCSR MESSAGE PASSING PERFORMANCE                      -
 -                                                                             -
 -------------------------------------------------------------------------------
 ROUTINE             CALLS      AVE VOLUME [Bytes]
 MP_Bcast                1                     12.
 MP_Allreduce           19                     21.
 MP_Alltoall       1302516                  13056.
 -------------------------------------------------------------------------------

 -------------------------------------------------------------------------------
 -                                                                             -
 -                                DBM STATISTICS                               -
 -                                                                             -
 -------------------------------------------------------------------------------
    M  x    N  x    K                                          COUNT     PERCENT
 -------------------------------------------------------------------------------

 -------------------------------------------------------------------------------
 -                                                                             -
 -                                GRID STATISTICS                              -
 -                                                                             -
 -------------------------------------------------------------------------------
 LP    KERNEL             BACKEND                              COUNT     PERCENT
 8     collocate general  CPU                               19344700      50.51%
 8     integrate general  CPU                               18957806      49.49%
 0     collocate general  CPU                                      8       0.00%
 0     integrate general  CPU                                      4       0.00%
 -------------------------------------------------------------------------------

 MEMORY| Estimated peak process memory [MiB]                                1958

 -------------------------------------------------------------------------------
 ----                             MULTIGRID INFO                            ----
 -------------------------------------------------------------------------------
 count for grid        1:         261458          cutoff [a.u.]          500.00
 count for grid        2:         264980          cutoff [a.u.]          166.67
 count for grid        3:         263512          cutoff [a.u.]           55.56
 count for grid        4:         585892          cutoff [a.u.]           18.52
 total gridlevel count  :        1375842

 -------------------------------------------------------------------------------
 -                                                                             -
 -                         MESSAGE PASSING PERFORMANCE                         -
 -                                                                             -
 -------------------------------------------------------------------------------

 ROUTINE             CALLS      AVE VOLUME [Bytes]
 MP_Group                6
 MP_Bcast           455339                    597.
 MP_Allreduce      1078685                     29.
 MP_Sync                 4
 MP_Alltoall          1087                1712007.
 MP_SendRecv          3030                  66615.
 MP_ISendRecv         2955                  65930.
 MP_Wait            311231
 MP_comm_split           4
 MP_ISend           317980                   5584.
 MP_IRecv           532768                   3346.
 -------------------------------------------------------------------------------


 -------------------------------------------------------------------------------
 -                                                                             -
 -                           R E F E R E N C E S                               -
 -                                                                             -
 -------------------------------------------------------------------------------
 
 CP2K version 2025.1 (Development Version), the CP2K developers group (2025).
 CP2K is freely available from https://www.cp2k.org/ .
 
 T. D. Kuehne, M. Iannuzzi, M. Del Ben, V. V. Rybkin, P. Seewald, F. Stein, T. 
 Laino, R. Z. Khaliullin, O. Schuett, F. Schiffmann, D. Golze, J. Wilhelm, S. 
 Chulkov, M. H. Bani-Hashemian, V. Weber, U. Borstnik, M. Taillefumier, A. S. 
 Jakobovits, A. Lazzaro, H. Pabst, T. Mueller, R. Schade, M. Guidon, S. 
 Andermatt, N. Holmberg, G. K. Schenter, A. Hehn, A. Bussy, F. Belleflamme, G. 
 Tabacchi, A. Gloess, M. Lass, I. Bethune, C. J. Mundy, C. Plessl, M. Watkins, 
 J. VandeVondele, M. Krack, J. Hutter.
 J. Chem. Phys. 152, 194103 (2020).
 CP2K: An electronic structure and molecular dynamics software package - 
 Quickstep: Efficient and accurate electronic structure calculations.
 https://doi.org/10.1063/5.0007045

 O. Schuett, P. Messmer, J. Hutter, J. VandeVondele.
 Electronic Structure Calculations on Graphics Processing Units, 173-190 (2016).
 GPU-Accelerated Sparse Matrix-Matrix Multiplication for Linear Scaling Density 
 Functional Theory.
 https://doi.org/10.1002/9781118670712.ch8

 J. Hutter, M. Iannuzzi, F. Schiffmann, J. VandeVondele.
 WIREs Comput Mol Sci. 4, 15-25 (2014).
 CP2K: atomistic simulations of condensed matter systems.
 https://doi.org/10.1002/wcms.1159

 U. Borstnik, J. VandeVondele, V. Weber, J. Hutter.
 Parallel Comput. 40, 47-58 (2014).
 Sparse matrix multiplication: The distributed block-compressed sparse row 
 library.
 https://doi.org/10.1016/j.parco.2014.03.012

 J. VandeVondele, J. Hutter.
 J. Chem. Phys. 127, 114105 (2007).
 Gaussian basis sets for accurate calculations on molecular systems in gas and 
 condensed phases.
 https://doi.org/10.1063/1.2770708

 J. VandeVondele, M. Krack, F. Mohamed, M. Parrinello, T. Chassaing, J. Hutter.
 Comput. Phys. Commun. 167, 103-128 (2005).
 QUICKSTEP: Fast and accurate density functional calculations using a mixed 
 Gaussian and plane waves approach.
 https://doi.org/10.1016/j.cpc.2004.12.014

 M. Krack.
 Theor. Chem. Acc. 114, 145-152 (2005).
 Pseudopotentials for H to Kr optimized for gradient-corrected 
 exchange-correlation functionals.
 https://doi.org/10.1007/s00214-005-0655-y

 M. Frigo, S. G. Johnson.
 Proc. IEEE 93, 216-231 (2005).
 The design and implementation of FFTW3.
 https://doi.org/10.1109/JPROC.2004.840301

 C. Hartwigsen, S. Goedecker, J. Hutter.
 Phys. Rev. B 58, 3641-3662 (1998).
 Relativistic separable dual-space Gaussian pseudopotentials from H to Rn.
 https://doi.org/10.1103/PhysRevB.58.3641

 G. Lippert, J. Hutter, M. Parrinello.
 Mol. Phys. 92, 477-487 (1997).
 A hybrid Gaussian and plane wave density functional scheme.
 https://doi.org/10.1080/002689797170220

 S. Goedecker, M. Teter, J. Hutter.
 Phys. Rev. B 54, 1703-1710 (1996).
 Separable dual-space Gaussian pseudopotentials.
 https://doi.org/10.1103/PhysRevB.54.1703

 J. P. Perdew, K. Burke, M. Ernzerhof.
 Phys. Rev. Lett. 77, 3865-3868 (1996).
 Generalized gradient approximation made simple.
 https://doi.org/10.1103/PhysRevLett.77.3865


 -------------------------------------------------------------------------------
 -                                                                             -
 -                                T I M I N G                                  -
 -                                                                             -
 -------------------------------------------------------------------------------
 SUBROUTINE                       CALLS  ASD         SELF TIME        TOTAL TIME
                                MAXIMUM       AVERAGE  MAXIMUM  AVERAGE  MAXIMUM
 CP2K                                 1  1.0    0.039    0.046 3459.977 3459.977
 qs_energies                          1  2.0    0.027    0.098 3459.626 3459.685
 scf_env_do_scf                       1  3.0    0.000    0.000 3398.950 3398.950
 scf_env_do_scf_inner_loop           49  4.0    0.316    0.328 3398.949 3398.950
 do_general_diag_kp                  50  5.9    0.329    0.377 2836.432 3056.785
 qs_scf_new_mos_kp                   49  5.0    0.000    0.001 2814.503 3034.832
 mp_alltoall_i22                 221366  8.7 1168.599 2966.496 1168.599 2966.496
 dbcsr_desymmetrize_deep         123523  7.4    2.424    3.061  854.307 2137.699
 rskp_transform                   25384  7.0 1059.083 1712.403 1059.083 1712.403
 dbcsr_complete_redistribute      97843  8.0    4.916    5.493  368.688  883.106
 kpoint_density_transform            49  7.0    0.351    0.386  869.515  870.773
 copy_fm_to_dbcsr                 25088  8.0    0.169    0.191  338.185  851.019
 transform_dmat                   12544  8.0  514.746  832.357  514.746  832.357
 qs_ks_update_qs_env                 49  5.0    0.000    0.000  242.767  377.433
 rebuild_ks_matrix                   49  6.0    0.000    0.000  226.912  361.578
 qs_ks_build_kohn_sham_matrix        49  7.0    0.598    0.629  226.912  361.578
 sum_up_and_integrate                49  8.0    0.001    0.001  223.049  357.473
 integrate_v_rspace                  49  9.0    1.319    2.150  223.047  357.471
 grid_integrate_task_list            49 10.0  221.009  354.864  221.009  354.864
 transfer_rs2pw                     202  8.0    0.002    0.003  124.980  329.196
 transfer_rs2pw_500                  52  8.9    0.101    0.109  124.912  329.127
 mp_sendrecv_dv                    3030 10.0  124.856  329.075  124.856  329.075
 qs_rho_update_rho_low               50  5.0    0.000    0.000  305.971  306.334
 calculate_rho_elec                  50  6.0    0.171    0.325  305.971  306.333
 density_rs2pw                       50  7.0    0.002    0.002  116.033  306.191
 grid_collocate_task_list            50  7.0  189.764  304.689  189.764  304.689
 copy_dbcsr_to_fm                 72755  6.7    0.881    0.937   57.130   58.991
 write_kpoints_restart               49  5.0    0.193    0.224   27.952   27.954
 cp_fm_start_copy_general         75856  7.3    2.703    3.258   25.597   26.381
 qs_energies_init_hamiltonians        1  3.0    0.000    0.000   25.986   25.986
 build_core_hamiltonian_matrix        1  4.0    0.026    0.027   14.500   23.557
 qs_env_update_s_mstruct              1  4.0    0.000    0.000   10.503   23.202
 calculate_rho_core                   1  5.0    0.000    0.001    9.068   23.127
 mp_allgather_i                  151712  8.3   19.264   20.062   19.264   20.062
 dbcsr_dot                       718243  8.0    5.408    7.133   16.859   19.373
 mp_sum_d                        719059  9.0   10.225   16.847   10.225   16.847
 cp_cfm_geeig                       821  6.9    0.010    0.012   16.525   16.844
 evaluate_core_matrix_traces         49  6.0    0.000    0.000   15.855   15.855
 calculate_ptrace_kp                 98  7.0    0.528    0.550   15.854   15.854
 cp_dbcsr_alloc_block_from_nbl    51599  5.0    8.190   13.806    8.921   14.926
 cp_fm_write_unformatted          21987  6.0    6.599   12.084    7.400   14.096
 mp_alltoall_d11v                664098  9.2   10.784   12.644   10.784   12.644
 self_consistency_check              49  5.0    0.510    0.534   10.435   12.444
 cp_cfm_heevd                       821  7.9    0.002    0.002   11.981   12.184
 cp_cfm_heevd_base                  821  8.9   11.980   12.182   11.980   12.182
 cp_sm_mix                       359121  6.0    2.251    3.152    8.822   11.501
 dbcsr_finalize                  339222  7.7    1.307    1.669    9.107   10.301
 init_scf_run                         1  3.0    0.000    0.000    7.683   10.169
 scf_env_initial_rho_setup            1  4.0    0.000    0.000    7.683   10.169
 mp_max_d                        359123  7.0    5.713    9.844    5.713    9.844
 mp_alltoall_i11v                417052  8.8    7.919    8.841    7.919    8.841
 build_core_ppl                       1  5.0    5.046    8.588    5.046    8.588
 mp_cart_sub                     145514  8.7    8.342    8.412    8.342    8.412
 dbcsr_create_new               1089101  7.6    6.121    7.127    6.778    7.822
 build_core_ppnl                      1  5.0    4.683    7.488    4.683    7.488
 hybrid_alltoall_any             123523  8.4    0.545    0.586    6.224    7.134
 dbcsr_copy                      750659  6.6    4.474    4.895    6.196    6.777
 dbcsr_merge_all                  97843 10.0    3.086    4.341    5.156    6.234
 mp_send_dv                       21987  7.0    0.676    5.129    0.676    5.129
 mp_cart_create                   72762  8.7    4.772    4.936    4.772    4.936
 mixing_allocate                      1  3.0    0.042    0.043    2.637    4.163
 calculate_first_density_matrix       1  5.0    0.005    0.005    1.565    4.051
 calculate_atomic_block_dm            1  6.0    0.001    0.001    1.537    4.037
 dbcsr_set                       911024  7.1    0.810    0.833    2.562    3.470
 dbcsr_iterator_start           1690104  8.5    2.629    2.792    3.126    3.248
 cp_cfm_triangular_multiply        2463  7.9    3.010    3.081    3.010    3.081
 copy_fm_to_dbcsr_bc              25088  9.0    0.411    0.452    2.122    2.818
 build_kinetic_matrix_low             1  5.0    0.339    0.537    1.632    2.738
 dbcsr_zero                      911024  8.1    1.753    2.639    1.753    2.639
 build_overlap_matrix_low             1  5.0    0.359    0.575    1.638    2.607
 dbcsr_work_create               221366  8.7    1.431    1.506    2.408    2.581
 mp_bcast_iv                     303447  8.3    2.380    2.579    2.380    2.579
 cp_fm_finish_copy_general        28372  7.9    2.281    2.330    2.353    2.430
 calculate_ecore_overlap              1  4.0    0.000    0.000    0.833    2.193
 dbcsr_iterator_stop            1690104  8.5    1.757    1.803    2.113    2.161
 qs_env_rebuild_rho                   1  5.0    0.000    0.000    1.316    2.078
 qs_rho_rebuild                       1  6.0    0.021    0.022    1.316    2.078
 kpoint_density_matrices             49  7.0    0.042    0.044    1.986    2.042
 mp_recv_dv                       65961  7.0    0.126    2.012    0.126    2.012
 mp_sum_iv                           24  5.3    0.766    2.010    0.766    2.010
 qs_scf_ensure_work_matrices          1  3.0    0.000    0.000    0.766    2.009
 copy_dbcsr_to_fm_bc              72755  7.7    0.965    1.004    1.900    1.935
 parallel_gemm_fm                  3136  8.0    0.004    0.004    1.880    1.931
 parallel_gemm_fm_gemm             3136  9.0    0.004    0.004    1.876    1.927
 cp_fm_gemm                        3136 10.0    1.872    1.923    1.872    1.923
 dbcsr_data_new                 2469594  9.4    1.724    1.910    1.724    1.910
 dbcsr_work_destroy_all          221366  9.7    1.089    1.113    1.767    1.847
 dbcsr_data_release             4406744  9.8    1.686    1.816    1.686    1.816
 tree_to_linear_d                 97843 11.0    1.563    1.754    1.563    1.754
 dbcsr_destroy                   370859  7.4    0.651    0.686    1.328    1.432
 dbcsr_reserve_blocks             76687  7.6    0.863    1.289    0.912    1.352
 fft_wrap_pw1pw2                    887 10.0    0.007    0.007    0.882    1.273
 fft_wrap_pw1pw2_500                590 11.3    0.028    0.029    0.812    1.204
 fft3d_ps                           887 12.0    0.159    0.173    0.788    1.174
 potential_pw2rs                     49 10.0    0.002    0.002    0.719    1.116
 mp_alltoall_z22v                   887 14.0    0.558    0.929    0.558    0.929
 kpoint_set_mo_occupation            49  7.0    0.227    0.228    0.653    0.857
 yz_to_x                            297 13.5    0.013    0.015    0.471    0.847
 quick_finalize                  123523  9.4    0.426    0.453    0.785    0.827
 mp_comm_free                    218310  8.7    0.749    0.816    0.749    0.816
 cp_cfm_cholesky_decompose          821  7.9    0.718    0.743    0.718    0.743
 cp_cfm_triangular_invert           821  7.9    0.719    0.741    0.719    0.741
 mp_bcast_im                     151712  8.3    0.685    0.702    0.685    0.702
 mp_sum_dm3                          49  8.0    0.426    0.629    0.426    0.629
 dbcsr_copy_into_existing         32417  9.1    0.322    0.418    0.510    0.615
 mp_waitall_1                    311231  8.4    0.319    0.614    0.319    0.614
 dbcsr_iterator_seek            1690104  9.5    0.497    0.570    0.497    0.570
 dbcsr_make_index_exist         1089101  8.6    0.470    0.504    0.470    0.504
 mp_isend_dv                      77632  8.3    0.392    0.457    0.392    0.457
 qs_vxc_create                       49  8.0    0.001    0.001    0.352    0.354
 xc_vxc_pw_create                    49  9.0    0.013    0.013    0.351    0.354
 -------------------------------------------------------------------------------

 The number of warnings for this run is : 1
 
 -------------------------------------------------------------------------------
  **** **** ******  **  PROGRAM ENDED AT                 2025-08-06 00:33:20.841
 ***** ** ***  *** **   PROGRAM RAN ON                              i04r01c03s06
 **    ****   ******    PROGRAM RAN BY                                   di38fab
 ***** **    ** ** **   PROGRAM PROCESS ID                                880881
  **** **  *******  **  PROGRAM STOPPED IN /hppfs/scratch/04/di38fab/09_GTH/Delt
                                           a_Set/C/aug-TZVP-MOLOPT-GTH-tier-2/8x
                                           8x8
