 DBCSR| CPU Multiplication driver                                           BLAS (U)
 DBCSR| Multrec recursion limit                                              512 (U)
 DBCSR| Multiplication stack size                                           1000 (D)
 DBCSR| Maximum elements for images                                    UNLIMITED (U)
 DBCSR| Multiplicative factor virtual images                                   1 (U)
 DBCSR| Use multiplication densification                                       T (D)
 DBCSR| Multiplication size stacks                                             3 (U)
 DBCSR| Use memory pool for CPU allocation                                     F (U)
 DBCSR| Number of 3D layers                                               SINGLE (U)
 DBCSR| Use MPI memory allocation                                              F (U)
 DBCSR| Use RMA algorithm                                                      F (U)
 DBCSR| Use Communication thread                                               T (U)
 DBCSR| Communication thread load                                             45 (D)
 DBCSR| MPI: My process id                                                     0
 DBCSR| MPI: Number of processes                                               8
 DBCSR| OMP: Current number of threads                                        12
 DBCSR| OMP: Max number of threads                                            12
 DBCSR| Split modifier for TAS multiplication algorithm                  1.0E+00 (U)


  **** **** ******  **  PROGRAM STARTED AT               2025-08-05 04:02:14.227
 ***** ** ***  *** **   PROGRAM STARTED ON                          i04r08c01s04
 **    ****   ******    PROGRAM STARTED BY                               di38fab
 ***** **    ** ** **   PROGRAM PROCESS ID                               2381686
  **** **  *******  **  PROGRAM STARTED IN /hppfs/scratch/04/di38fab/09_GTH/Delt
                                           a_Set/B/aug-DZVP-MOLOPT-GTH-tier-1/8x
                                           8x8

 CP2K| version string:                 CP2K version 2025.1 (Development Version)
 CP2K| source code revision number:                                  git:3130539
 CP2K| cp2kflags: omp libint fftw3 libxc parallel scalapack max_contr=4         
 CP2K| is freely available from                            https://www.cp2k.org/
 CP2K| Program compiled at                         Tue Jun  3 16:14:32 CEST 2025
 CP2K| Program compiled on                                               login01
 CP2K| Program compiled for                                        Supermuc-foss
 CP2K| Data directory path                  /hppfs/work/pn36zo/di38fab/cp2k/data
 CP2K| Input file name                                                    GW.inp

 GLOBAL| Force Environment number                                              1
 GLOBAL| Basis set file name            /hppfs/scratch/04/di38fab/09_GTH/BASIS_A
 GLOBAL| Potential file name            /hppfs/work/pn36zo/di38fab/cp2k/data/GTH
 GLOBAL| MM Potential file name                                     MM_POTENTIAL
 GLOBAL| Coordinate file name                                              B.cif
 GLOBAL| Method name                                                        CP2K
 GLOBAL| Project name                                                       WSe2
 GLOBAL| Run type                                                         ENERGY
 GLOBAL| FFT library                                                       FFTW3
 GLOBAL| Diagonalization library                                       ScaLAPACK
 GLOBAL| Cholesky decomposition library                                ScaLAPACK
 GLOBAL| DGEMM library                                                      BLAS
 GLOBAL| Orthonormality check for eigenvectors                          DISABLED
 GLOBAL| Matrix multiplication library                                 ScaLAPACK
 GLOBAL| All-to-all communication in single precision                          F
 GLOBAL| FFTs using library dependent lengths                                  F
 GLOBAL| Grid backend                                                       AUTO
 GLOBAL| Global print level                                               MEDIUM
 GLOBAL| MPI I/O enabled                                                       T
 GLOBAL| Total number of message passing processes                             8
 GLOBAL| Number of threads for this process                                   12
 GLOBAL| This output is from process                                           0
 GLOBAL| OpenMP stack size per thread (OMP_STACKSIZE)                    default
 GLOBAL| CPU model name             Intel(R) Xeon(R) Platinum 8174 CPU @ 3.10GHz

 MEMORY| system memory details [Kb]
 MEMORY|                        rank 0           min           max       average
 MEMORY| MemTotal             98436660      98436660      98436708      98436684
 MEMORY| MemFree              84576408      84576408      86158740      85367574
 MEMORY| Buffers                     0             0             0             0
 MEMORY| Cached                2352072       2327640       2352072       2339856
 MEMORY| Slab                  1280260       1000844       1280260       1140552
 MEMORY| SReclaimable           278760        221424        278760        250092
 MEMORY| MemLikelyFree        87207240      87207240      88707804      87957522


 *** Fundamental physical constants (SI units) ***

 *** Literature: B. J. Mohr and B. N. Taylor,
 ***             CODATA recommended values of the fundamental physical
 ***             constants: 2006, Web Version 5.1
 ***             http://physics.nist.gov/constants

 Speed of light in vacuum [m/s]                             2.99792458000000E+08
 Magnetic constant or permeability of vacuum [N/A**2]       1.25663706143592E-06
 Electric constant or permittivity of vacuum [F/m]          8.85418781762039E-12
 Planck constant (h) [J*s]                                  6.62606896000000E-34
 Planck constant (h-bar) [J*s]                              1.05457162825177E-34
 Elementary charge [C]                                      1.60217648700000E-19
 Electron mass [kg]                                         9.10938215000000E-31
 Electron g factor [ ]                                     -2.00231930436220E+00
 Proton mass [kg]                                           1.67262163700000E-27
 Fine-structure constant                                    7.29735253760000E-03
 Rydberg constant [1/m]                                     1.09737315685270E+07
 Avogadro constant [1/mol]                                  6.02214179000000E+23
 Boltzmann constant [J/K]                                   1.38065040000000E-23
 Atomic mass unit [kg]                                      1.66053878200000E-27
 Bohr radius [m]                                            5.29177208590000E-11

 *** Conversion factors ***

 [u] -> [a.u.]                                              1.82288848426455E+03
 [Angstrom] -> [Bohr] = [a.u.]                              1.88972613288564E+00
 [a.u.] = [Bohr] -> [Angstrom]                              5.29177208590000E-01
 [a.u.] -> [s]                                              2.41888432650478E-17
 [a.u.] -> [fs]                                             2.41888432650478E-02
 [a.u.] -> [J]                                              4.35974393937059E-18
 [a.u.] -> [N]                                              8.23872205491840E-08
 [a.u.] -> [K]                                              3.15774647902944E+05
 [a.u.] -> [kJ/mol]                                         2.62549961709828E+03
 [a.u.] -> [kcal/mol]                                       6.27509468713739E+02
 [a.u.] -> [Pa]                                             2.94210107994716E+13
 [a.u.] -> [bar]                                            2.94210107994716E+08
 [a.u.] -> [atm]                                            2.90362800883016E+08
 [a.u.] -> [eV]                                             2.72113838565563E+01
 [a.u.] -> [Hz]                                             6.57968392072181E+15
 [a.u.] -> [1/cm] (wave numbers)                            2.19474631370540E+05
 [a.u./Bohr**2] -> [1/cm]                                   5.14048714338585E+03
 

 CELL_TOP| Volume [angstrom^3]:                                        87.025411
 CELL_TOP| Vector a [angstrom     4.901     0.000     0.000   |a| =     4.900670
 CELL_TOP| Vector b [angstrom    -2.450     4.244     0.000   |b| =     4.900670
 CELL_TOP| Vector c [angstrom     2.450    -1.415     4.184   |c| =     5.050980
 CELL_TOP| Angle (b,c), alpha [degree]:                               119.020350
 CELL_TOP| Angle (a,c), beta  [degree]:                                60.979650
 CELL_TOP| Angle (a,b), gamma [degree]:                               120.000000
 CELL_TOP| Numerically orthorhombic:                                          NO
 CELL_TOP| Periodicity                                                       XYZ

 CELL_CIF| Volume [angstrom^3]:                                        87.025411
 CELL_CIF| Vector a [angstrom     4.901     0.000     0.000   |a| =     4.900670
 CELL_CIF| Vector b [angstrom    -2.450     4.244     0.000   |b| =     4.900670
 CELL_CIF| Vector c [angstrom     2.450    -1.415     4.184   |c| =     5.050980
 CELL_CIF| Angle (b,c), alpha [degree]:                               119.020350
 CELL_CIF| Angle (a,c), beta  [degree]:                                60.979650
 CELL_CIF| Angle (a,b), gamma [degree]:                               120.000000
 CELL_CIF| Numerically orthorhombic:                                          NO
 CELL_CIF| Periodicity                                                       XYZ

 GENERATE|  Preliminary Number of Bonds generated:                             0
 GENERATE|  Achieved consistency in connectivity generation.

 CELL| Volume [angstrom^3]:                                            87.025411
 CELL| Vector a [angstrom]:       4.901     0.000     0.000   |a| =     4.900670
 CELL| Vector b [angstrom]:      -2.450     4.244     0.000   |b| =     4.900670
 CELL| Vector c [angstrom]:       2.450    -1.415     4.184   |c| =     5.050980
 CELL| Angle (b,c), alpha [degree]:                                   119.020350
 CELL| Angle (a,c), beta  [degree]:                                    60.979650
 CELL| Angle (a,b), gamma [degree]:                                   120.000000
 CELL| Numerically orthorhombic:                                              NO
 CELL| Periodicity                                                           XYZ

 CELL_REF| Volume [angstrom^3]:                                        87.025411
 CELL_REF| Vector a [angstrom     4.901     0.000     0.000   |a| =     4.900670
 CELL_REF| Vector b [angstrom    -2.450     4.244     0.000   |b| =     4.900670
 CELL_REF| Vector c [angstrom     2.450    -1.415     4.184   |c| =     5.050980
 CELL_REF| Angle (b,c), alpha [degree]:                               119.020350
 CELL_REF| Angle (a,c), beta  [degree]:                                60.979650
 CELL_REF| Angle (a,b), gamma [degree]:                               120.000000
 CELL_REF| Numerically orthorhombic:                                          NO
 CELL_REF| Periodicity                                                       XYZ

 *** WARNING in cryssym.F:180 :: Symmetry library SPGLIB not available ***


 *******************************************************************************
                                    Kpoints
 *******************************************************************************
 BRILLOUIN| K-point scheme                                        Monkhorst-Pack
 BRILLOUIN| K-Point grid                                             8    8    8
 BRILLOUIN| Accuracy in Symmetry determination                      0.100000E-05
 BRILLOUIN| K-Point point group symmetrization                               OFF
 BRILLOUIN| Wavefunction type                                            COMPLEX
 BRILLOUIN| List of Kpoints [2 Pi/Bohr]                                      256
 BRILLOUIN| Number           Weight            X              Y              Z
 BRILLOUIN|     1           0.00391       -0.43750       -0.43750       -0.43750
 BRILLOUIN|     2           0.00391       -0.43750       -0.43750       -0.31250
 BRILLOUIN|     3           0.00391       -0.43750       -0.43750       -0.18750
 BRILLOUIN|     4           0.00391       -0.43750       -0.43750       -0.06250
 BRILLOUIN|     5           0.00391       -0.43750       -0.43750        0.06250
 BRILLOUIN|     6           0.00391       -0.43750       -0.43750        0.18750
 BRILLOUIN|     7           0.00391       -0.43750       -0.43750        0.31250
 BRILLOUIN|     8           0.00391       -0.43750       -0.43750        0.43750
 BRILLOUIN|     9           0.00391       -0.43750       -0.31250       -0.43750
 BRILLOUIN|    10           0.00391       -0.43750       -0.31250       -0.31250
 BRILLOUIN|    11           0.00391       -0.43750       -0.31250       -0.18750
 BRILLOUIN|    12           0.00391       -0.43750       -0.31250       -0.06250
 BRILLOUIN|    13           0.00391       -0.43750       -0.31250        0.06250
 BRILLOUIN|    14           0.00391       -0.43750       -0.31250        0.18750
 BRILLOUIN|    15           0.00391       -0.43750       -0.31250        0.31250
 BRILLOUIN|    16           0.00391       -0.43750       -0.31250        0.43750
 BRILLOUIN|    17           0.00391       -0.43750       -0.18750       -0.43750
 BRILLOUIN|    18           0.00391       -0.43750       -0.18750       -0.31250
 BRILLOUIN|    19           0.00391       -0.43750       -0.18750       -0.18750
 BRILLOUIN|    20           0.00391       -0.43750       -0.18750       -0.06250
 BRILLOUIN|    21           0.00391       -0.43750       -0.18750        0.06250
 BRILLOUIN|    22           0.00391       -0.43750       -0.18750        0.18750
 BRILLOUIN|    23           0.00391       -0.43750       -0.18750        0.31250
 BRILLOUIN|    24           0.00391       -0.43750       -0.18750        0.43750
 BRILLOUIN|    25           0.00391       -0.43750       -0.06250       -0.43750
 BRILLOUIN|    26           0.00391       -0.43750       -0.06250       -0.31250
 BRILLOUIN|    27           0.00391       -0.43750       -0.06250       -0.18750
 BRILLOUIN|    28           0.00391       -0.43750       -0.06250       -0.06250
 BRILLOUIN|    29           0.00391       -0.43750       -0.06250        0.06250
 BRILLOUIN|    30           0.00391       -0.43750       -0.06250        0.18750
 BRILLOUIN|    31           0.00391       -0.43750       -0.06250        0.31250
 BRILLOUIN|    32           0.00391       -0.43750       -0.06250        0.43750
 BRILLOUIN|    33           0.00391       -0.43750        0.06250       -0.43750
 BRILLOUIN|    34           0.00391       -0.43750        0.06250       -0.31250
 BRILLOUIN|    35           0.00391       -0.43750        0.06250       -0.18750
 BRILLOUIN|    36           0.00391       -0.43750        0.06250       -0.06250
 BRILLOUIN|    37           0.00391       -0.43750        0.06250        0.06250
 BRILLOUIN|    38           0.00391       -0.43750        0.06250        0.18750
 BRILLOUIN|    39           0.00391       -0.43750        0.06250        0.31250
 BRILLOUIN|    40           0.00391       -0.43750        0.06250        0.43750
 BRILLOUIN|    41           0.00391       -0.43750        0.18750       -0.43750
 BRILLOUIN|    42           0.00391       -0.43750        0.18750       -0.31250
 BRILLOUIN|    43           0.00391       -0.43750        0.18750       -0.18750
 BRILLOUIN|    44           0.00391       -0.43750        0.18750       -0.06250
 BRILLOUIN|    45           0.00391       -0.43750        0.18750        0.06250
 BRILLOUIN|    46           0.00391       -0.43750        0.18750        0.18750
 BRILLOUIN|    47           0.00391       -0.43750        0.18750        0.31250
 BRILLOUIN|    48           0.00391       -0.43750        0.18750        0.43750
 BRILLOUIN|    49           0.00391       -0.43750        0.31250       -0.43750
 BRILLOUIN|    50           0.00391       -0.43750        0.31250       -0.31250
 BRILLOUIN|    51           0.00391       -0.43750        0.31250       -0.18750
 BRILLOUIN|    52           0.00391       -0.43750        0.31250       -0.06250
 BRILLOUIN|    53           0.00391       -0.43750        0.31250        0.06250
 BRILLOUIN|    54           0.00391       -0.43750        0.31250        0.18750
 BRILLOUIN|    55           0.00391       -0.43750        0.31250        0.31250
 BRILLOUIN|    56           0.00391       -0.43750        0.31250        0.43750
 BRILLOUIN|    57           0.00391       -0.43750        0.43750       -0.43750
 BRILLOUIN|    58           0.00391       -0.43750        0.43750       -0.31250
 BRILLOUIN|    59           0.00391       -0.43750        0.43750       -0.18750
 BRILLOUIN|    60           0.00391       -0.43750        0.43750       -0.06250
 BRILLOUIN|    61           0.00391       -0.43750        0.43750        0.06250
 BRILLOUIN|    62           0.00391       -0.43750        0.43750        0.18750
 BRILLOUIN|    63           0.00391       -0.43750        0.43750        0.31250
 BRILLOUIN|    64           0.00391       -0.43750        0.43750        0.43750
 BRILLOUIN|    65           0.00391       -0.31250       -0.43750       -0.43750
 BRILLOUIN|    66           0.00391       -0.31250       -0.43750       -0.31250
 BRILLOUIN|    67           0.00391       -0.31250       -0.43750       -0.18750
 BRILLOUIN|    68           0.00391       -0.31250       -0.43750       -0.06250
 BRILLOUIN|    69           0.00391       -0.31250       -0.43750        0.06250
 BRILLOUIN|    70           0.00391       -0.31250       -0.43750        0.18750
 BRILLOUIN|    71           0.00391       -0.31250       -0.43750        0.31250
 BRILLOUIN|    72           0.00391       -0.31250       -0.43750        0.43750
 BRILLOUIN|    73           0.00391       -0.31250       -0.31250       -0.43750
 BRILLOUIN|    74           0.00391       -0.31250       -0.31250       -0.31250
 BRILLOUIN|    75           0.00391       -0.31250       -0.31250       -0.18750
 BRILLOUIN|    76           0.00391       -0.31250       -0.31250       -0.06250
 BRILLOUIN|    77           0.00391       -0.31250       -0.31250        0.06250
 BRILLOUIN|    78           0.00391       -0.31250       -0.31250        0.18750
 BRILLOUIN|    79           0.00391       -0.31250       -0.31250        0.31250
 BRILLOUIN|    80           0.00391       -0.31250       -0.31250        0.43750
 BRILLOUIN|    81           0.00391       -0.31250       -0.18750       -0.43750
 BRILLOUIN|    82           0.00391       -0.31250       -0.18750       -0.31250
 BRILLOUIN|    83           0.00391       -0.31250       -0.18750       -0.18750
 BRILLOUIN|    84           0.00391       -0.31250       -0.18750       -0.06250
 BRILLOUIN|    85           0.00391       -0.31250       -0.18750        0.06250
 BRILLOUIN|    86           0.00391       -0.31250       -0.18750        0.18750
 BRILLOUIN|    87           0.00391       -0.31250       -0.18750        0.31250
 BRILLOUIN|    88           0.00391       -0.31250       -0.18750        0.43750
 BRILLOUIN|    89           0.00391       -0.31250       -0.06250       -0.43750
 BRILLOUIN|    90           0.00391       -0.31250       -0.06250       -0.31250
 BRILLOUIN|    91           0.00391       -0.31250       -0.06250       -0.18750
 BRILLOUIN|    92           0.00391       -0.31250       -0.06250       -0.06250
 BRILLOUIN|    93           0.00391       -0.31250       -0.06250        0.06250
 BRILLOUIN|    94           0.00391       -0.31250       -0.06250        0.18750
 BRILLOUIN|    95           0.00391       -0.31250       -0.06250        0.31250
 BRILLOUIN|    96           0.00391       -0.31250       -0.06250        0.43750
 BRILLOUIN|    97           0.00391       -0.31250        0.06250       -0.43750
 BRILLOUIN|    98           0.00391       -0.31250        0.06250       -0.31250
 BRILLOUIN|    99           0.00391       -0.31250        0.06250       -0.18750
 BRILLOUIN|   100           0.00391       -0.31250        0.06250       -0.06250
 BRILLOUIN|   101           0.00391       -0.31250        0.06250        0.06250
 BRILLOUIN|   102           0.00391       -0.31250        0.06250        0.18750
 BRILLOUIN|   103           0.00391       -0.31250        0.06250        0.31250
 BRILLOUIN|   104           0.00391       -0.31250        0.06250        0.43750
 BRILLOUIN|   105           0.00391       -0.31250        0.18750       -0.43750
 BRILLOUIN|   106           0.00391       -0.31250        0.18750       -0.31250
 BRILLOUIN|   107           0.00391       -0.31250        0.18750       -0.18750
 BRILLOUIN|   108           0.00391       -0.31250        0.18750       -0.06250
 BRILLOUIN|   109           0.00391       -0.31250        0.18750        0.06250
 BRILLOUIN|   110           0.00391       -0.31250        0.18750        0.18750
 BRILLOUIN|   111           0.00391       -0.31250        0.18750        0.31250
 BRILLOUIN|   112           0.00391       -0.31250        0.18750        0.43750
 BRILLOUIN|   113           0.00391       -0.31250        0.31250       -0.43750
 BRILLOUIN|   114           0.00391       -0.31250        0.31250       -0.31250
 BRILLOUIN|   115           0.00391       -0.31250        0.31250       -0.18750
 BRILLOUIN|   116           0.00391       -0.31250        0.31250       -0.06250
 BRILLOUIN|   117           0.00391       -0.31250        0.31250        0.06250
 BRILLOUIN|   118           0.00391       -0.31250        0.31250        0.18750
 BRILLOUIN|   119           0.00391       -0.31250        0.31250        0.31250
 BRILLOUIN|   120           0.00391       -0.31250        0.31250        0.43750
 BRILLOUIN|   121           0.00391       -0.31250        0.43750       -0.43750
 BRILLOUIN|   122           0.00391       -0.31250        0.43750       -0.31250
 BRILLOUIN|   123           0.00391       -0.31250        0.43750       -0.18750
 BRILLOUIN|   124           0.00391       -0.31250        0.43750       -0.06250
 BRILLOUIN|   125           0.00391       -0.31250        0.43750        0.06250
 BRILLOUIN|   126           0.00391       -0.31250        0.43750        0.18750
 BRILLOUIN|   127           0.00391       -0.31250        0.43750        0.31250
 BRILLOUIN|   128           0.00391       -0.31250        0.43750        0.43750
 BRILLOUIN|   129           0.00391       -0.18750       -0.43750       -0.43750
 BRILLOUIN|   130           0.00391       -0.18750       -0.43750       -0.31250
 BRILLOUIN|   131           0.00391       -0.18750       -0.43750       -0.18750
 BRILLOUIN|   132           0.00391       -0.18750       -0.43750       -0.06250
 BRILLOUIN|   133           0.00391       -0.18750       -0.43750        0.06250
 BRILLOUIN|   134           0.00391       -0.18750       -0.43750        0.18750
 BRILLOUIN|   135           0.00391       -0.18750       -0.43750        0.31250
 BRILLOUIN|   136           0.00391       -0.18750       -0.43750        0.43750
 BRILLOUIN|   137           0.00391       -0.18750       -0.31250       -0.43750
 BRILLOUIN|   138           0.00391       -0.18750       -0.31250       -0.31250
 BRILLOUIN|   139           0.00391       -0.18750       -0.31250       -0.18750
 BRILLOUIN|   140           0.00391       -0.18750       -0.31250       -0.06250
 BRILLOUIN|   141           0.00391       -0.18750       -0.31250        0.06250
 BRILLOUIN|   142           0.00391       -0.18750       -0.31250        0.18750
 BRILLOUIN|   143           0.00391       -0.18750       -0.31250        0.31250
 BRILLOUIN|   144           0.00391       -0.18750       -0.31250        0.43750
 BRILLOUIN|   145           0.00391       -0.18750       -0.18750       -0.43750
 BRILLOUIN|   146           0.00391       -0.18750       -0.18750       -0.31250
 BRILLOUIN|   147           0.00391       -0.18750       -0.18750       -0.18750
 BRILLOUIN|   148           0.00391       -0.18750       -0.18750       -0.06250
 BRILLOUIN|   149           0.00391       -0.18750       -0.18750        0.06250
 BRILLOUIN|   150           0.00391       -0.18750       -0.18750        0.18750
 BRILLOUIN|   151           0.00391       -0.18750       -0.18750        0.31250
 BRILLOUIN|   152           0.00391       -0.18750       -0.18750        0.43750
 BRILLOUIN|   153           0.00391       -0.18750       -0.06250       -0.43750
 BRILLOUIN|   154           0.00391       -0.18750       -0.06250       -0.31250
 BRILLOUIN|   155           0.00391       -0.18750       -0.06250       -0.18750
 BRILLOUIN|   156           0.00391       -0.18750       -0.06250       -0.06250
 BRILLOUIN|   157           0.00391       -0.18750       -0.06250        0.06250
 BRILLOUIN|   158           0.00391       -0.18750       -0.06250        0.18750
 BRILLOUIN|   159           0.00391       -0.18750       -0.06250        0.31250
 BRILLOUIN|   160           0.00391       -0.18750       -0.06250        0.43750
 BRILLOUIN|   161           0.00391       -0.18750        0.06250       -0.43750
 BRILLOUIN|   162           0.00391       -0.18750        0.06250       -0.31250
 BRILLOUIN|   163           0.00391       -0.18750        0.06250       -0.18750
 BRILLOUIN|   164           0.00391       -0.18750        0.06250       -0.06250
 BRILLOUIN|   165           0.00391       -0.18750        0.06250        0.06250
 BRILLOUIN|   166           0.00391       -0.18750        0.06250        0.18750
 BRILLOUIN|   167           0.00391       -0.18750        0.06250        0.31250
 BRILLOUIN|   168           0.00391       -0.18750        0.06250        0.43750
 BRILLOUIN|   169           0.00391       -0.18750        0.18750       -0.43750
 BRILLOUIN|   170           0.00391       -0.18750        0.18750       -0.31250
 BRILLOUIN|   171           0.00391       -0.18750        0.18750       -0.18750
 BRILLOUIN|   172           0.00391       -0.18750        0.18750       -0.06250
 BRILLOUIN|   173           0.00391       -0.18750        0.18750        0.06250
 BRILLOUIN|   174           0.00391       -0.18750        0.18750        0.18750
 BRILLOUIN|   175           0.00391       -0.18750        0.18750        0.31250
 BRILLOUIN|   176           0.00391       -0.18750        0.18750        0.43750
 BRILLOUIN|   177           0.00391       -0.18750        0.31250       -0.43750
 BRILLOUIN|   178           0.00391       -0.18750        0.31250       -0.31250
 BRILLOUIN|   179           0.00391       -0.18750        0.31250       -0.18750
 BRILLOUIN|   180           0.00391       -0.18750        0.31250       -0.06250
 BRILLOUIN|   181           0.00391       -0.18750        0.31250        0.06250
 BRILLOUIN|   182           0.00391       -0.18750        0.31250        0.18750
 BRILLOUIN|   183           0.00391       -0.18750        0.31250        0.31250
 BRILLOUIN|   184           0.00391       -0.18750        0.31250        0.43750
 BRILLOUIN|   185           0.00391       -0.18750        0.43750       -0.43750
 BRILLOUIN|   186           0.00391       -0.18750        0.43750       -0.31250
 BRILLOUIN|   187           0.00391       -0.18750        0.43750       -0.18750
 BRILLOUIN|   188           0.00391       -0.18750        0.43750       -0.06250
 BRILLOUIN|   189           0.00391       -0.18750        0.43750        0.06250
 BRILLOUIN|   190           0.00391       -0.18750        0.43750        0.18750
 BRILLOUIN|   191           0.00391       -0.18750        0.43750        0.31250
 BRILLOUIN|   192           0.00391       -0.18750        0.43750        0.43750
 BRILLOUIN|   193           0.00391       -0.06250       -0.43750       -0.43750
 BRILLOUIN|   194           0.00391       -0.06250       -0.43750       -0.31250
 BRILLOUIN|   195           0.00391       -0.06250       -0.43750       -0.18750
 BRILLOUIN|   196           0.00391       -0.06250       -0.43750       -0.06250
 BRILLOUIN|   197           0.00391       -0.06250       -0.43750        0.06250
 BRILLOUIN|   198           0.00391       -0.06250       -0.43750        0.18750
 BRILLOUIN|   199           0.00391       -0.06250       -0.43750        0.31250
 BRILLOUIN|   200           0.00391       -0.06250       -0.43750        0.43750
 BRILLOUIN|   201           0.00391       -0.06250       -0.31250       -0.43750
 BRILLOUIN|   202           0.00391       -0.06250       -0.31250       -0.31250
 BRILLOUIN|   203           0.00391       -0.06250       -0.31250       -0.18750
 BRILLOUIN|   204           0.00391       -0.06250       -0.31250       -0.06250
 BRILLOUIN|   205           0.00391       -0.06250       -0.31250        0.06250
 BRILLOUIN|   206           0.00391       -0.06250       -0.31250        0.18750
 BRILLOUIN|   207           0.00391       -0.06250       -0.31250        0.31250
 BRILLOUIN|   208           0.00391       -0.06250       -0.31250        0.43750
 BRILLOUIN|   209           0.00391       -0.06250       -0.18750       -0.43750
 BRILLOUIN|   210           0.00391       -0.06250       -0.18750       -0.31250
 BRILLOUIN|   211           0.00391       -0.06250       -0.18750       -0.18750
 BRILLOUIN|   212           0.00391       -0.06250       -0.18750       -0.06250
 BRILLOUIN|   213           0.00391       -0.06250       -0.18750        0.06250
 BRILLOUIN|   214           0.00391       -0.06250       -0.18750        0.18750
 BRILLOUIN|   215           0.00391       -0.06250       -0.18750        0.31250
 BRILLOUIN|   216           0.00391       -0.06250       -0.18750        0.43750
 BRILLOUIN|   217           0.00391       -0.06250       -0.06250       -0.43750
 BRILLOUIN|   218           0.00391       -0.06250       -0.06250       -0.31250
 BRILLOUIN|   219           0.00391       -0.06250       -0.06250       -0.18750
 BRILLOUIN|   220           0.00391       -0.06250       -0.06250       -0.06250
 BRILLOUIN|   221           0.00391       -0.06250       -0.06250        0.06250
 BRILLOUIN|   222           0.00391       -0.06250       -0.06250        0.18750
 BRILLOUIN|   223           0.00391       -0.06250       -0.06250        0.31250
 BRILLOUIN|   224           0.00391       -0.06250       -0.06250        0.43750
 BRILLOUIN|   225           0.00391       -0.06250        0.06250       -0.43750
 BRILLOUIN|   226           0.00391       -0.06250        0.06250       -0.31250
 BRILLOUIN|   227           0.00391       -0.06250        0.06250       -0.18750
 BRILLOUIN|   228           0.00391       -0.06250        0.06250       -0.06250
 BRILLOUIN|   229           0.00391       -0.06250        0.06250        0.06250
 BRILLOUIN|   230           0.00391       -0.06250        0.06250        0.18750
 BRILLOUIN|   231           0.00391       -0.06250        0.06250        0.31250
 BRILLOUIN|   232           0.00391       -0.06250        0.06250        0.43750
 BRILLOUIN|   233           0.00391       -0.06250        0.18750       -0.43750
 BRILLOUIN|   234           0.00391       -0.06250        0.18750       -0.31250
 BRILLOUIN|   235           0.00391       -0.06250        0.18750       -0.18750
 BRILLOUIN|   236           0.00391       -0.06250        0.18750       -0.06250
 BRILLOUIN|   237           0.00391       -0.06250        0.18750        0.06250
 BRILLOUIN|   238           0.00391       -0.06250        0.18750        0.18750
 BRILLOUIN|   239           0.00391       -0.06250        0.18750        0.31250
 BRILLOUIN|   240           0.00391       -0.06250        0.18750        0.43750
 BRILLOUIN|   241           0.00391       -0.06250        0.31250       -0.43750
 BRILLOUIN|   242           0.00391       -0.06250        0.31250       -0.31250
 BRILLOUIN|   243           0.00391       -0.06250        0.31250       -0.18750
 BRILLOUIN|   244           0.00391       -0.06250        0.31250       -0.06250
 BRILLOUIN|   245           0.00391       -0.06250        0.31250        0.06250
 BRILLOUIN|   246           0.00391       -0.06250        0.31250        0.18750
 BRILLOUIN|   247           0.00391       -0.06250        0.31250        0.31250
 BRILLOUIN|   248           0.00391       -0.06250        0.31250        0.43750
 BRILLOUIN|   249           0.00391       -0.06250        0.43750       -0.43750
 BRILLOUIN|   250           0.00391       -0.06250        0.43750       -0.31250
 BRILLOUIN|   251           0.00391       -0.06250        0.43750       -0.18750
 BRILLOUIN|   252           0.00391       -0.06250        0.43750       -0.06250
 BRILLOUIN|   253           0.00391       -0.06250        0.43750        0.06250
 BRILLOUIN|   254           0.00391       -0.06250        0.43750        0.18750
 BRILLOUIN|   255           0.00391       -0.06250        0.43750        0.31250
 BRILLOUIN|   256           0.00391       -0.06250        0.43750        0.43750
 *******************************************************************************

 *******************************************************************************
 *******************************************************************************
 **                                                                           **
 **     #####                         ##              ##                      **
 **    ##   ##            ##          ##              ##                      **
 **   ##     ##                       ##            ######                    **
 **   ##     ##  ##   ##  ##   #####  ##  ##   ####   ##    #####    #####    **
 **   ##     ##  ##   ##  ##  ##      ## ##   ##      ##   ##   ##  ##   ##   **
 **   ##  ## ##  ##   ##  ##  ##      ####     ###    ##   ######   ######    **
 **    ##  ###   ##   ##  ##  ##      ## ##      ##   ##   ##       ##        **
 **     #######   #####   ##   #####  ##  ##  ####    ##    #####   ##        **
 **           ##                                                    ##        **
 **                                                                           **
 **                                                ... make the atoms dance   **
 **                                                                           **
 **            Copyright (C) by CP2K developers group (2000-2025)             **
 **                      J. Chem. Phys. 152, 194103 (2020)                    **
 **                                                                           **
 *******************************************************************************

 DFT| Spin restricted Kohn-Sham (RKS) calculation                            RKS
 DFT| Multiplicity                                                             1
 DFT| Number of spin states                                                    1
 DFT| Charge                                                                   0
 DFT| Self-interaction correction (SIC)                                       NO
 DFT| Cutoffs: density                                              1.000000E-10
 DFT|          gradient                                             1.000000E-10
 DFT|          tau                                                  1.000000E-10
 DFT|          cutoff_smoothing_range                               0.000000E+00
 DFT| XC density smoothing                                                  NONE
 DFT| XC derivatives                                                          PW

 FUNCTIONAL| PBE:
 FUNCTIONAL| J.P.Perdew, K.Burke, M.Ernzerhof, Phys. Rev. Letter, vol. 77, n 18,
 FUNCTIONAL|  pp. 3865-3868, (1996) {spin unpolarized}                          


 QS| Method:                                                                 GPW
 QS| Density plane wave grid type                        NON-SPHERICAL FULLSPACE
 QS| Number of grid levels:                                                    4
 QS| Density cutoff [a.u.]:                                                500.0
 QS| Multi grid cutoff [a.u.]: 1) grid level                               500.0
 QS|                           2) grid level                               166.7
 QS|                           3) grid level                                55.6
 QS|                           4) grid level                                18.5
 QS| Grid level progression factor:                                          3.0
 QS| Relative density cutoff [a.u.]:                                        50.0
 QS| Interaction thresholds: eps_pgf_orb:                                1.0E-16
 QS|                         eps_filter_matrix:                          0.0E+00
 QS|                         eps_core_charge:                            1.0E-18
 QS|                         eps_rho_gspace:                             1.0E-16
 QS|                         eps_rho_rspace:                             1.0E-16
 QS|                         eps_gvg_rspace:                             1.0E-08
 QS|                         eps_ppl:                                    1.0E-02
 QS|                         eps_ppnl:                                   1.0E-10


 ATOMIC KIND INFORMATION

  1. Atomic kind: B                                     Number of atoms:      12

     Orbital Basis Set                                aug-DZVP-MOLOPT-GTH-tier-1

       Number of orbital shell sets:                                           1
       Number of orbital shells:                                               8
       Number of primitive Cartesian functions:                                6
       Number of Cartesian basis functions:                                   24
       Number of spherical basis functions:                                   22
       Norm type:                                                              2

       Normalised Cartesian orbitals:

                        Set   Shell   Orbital            Exponent    Coefficient

                          1       1    2s                0.085137       0.035450
                                                         0.130000       0.000000
                                                         0.253523       0.151700
                                                         0.614553       0.172878
                                                         1.347699      -0.198106
                                                         3.575233      -0.251277

                          1       2    3s                0.085137       0.138906
                                                         0.130000       0.000000
                                                         0.253523      -0.051628
                                                         0.614553      -0.255207
                                                         1.347699       0.196373
                                                         3.575233       0.549634

                          1       3    4s                0.085137       0.157071
                                                         0.130000      -0.296582
                                                         0.253523      -0.094070
                                                         0.614553       0.001468
                                                         1.347699       0.043372
                                                         3.575233       0.000000

                          1       4    3px               0.085137      -0.025250
                                                         0.130000       0.000000
                                                         0.253523      -0.107441
                                                         0.614553      -0.197045
                                                         1.347699      -0.232253
                                                         3.575233      -0.379953
                          1       4    3py               0.085137      -0.025250
                                                         0.130000       0.000000
                                                         0.253523      -0.107441
                                                         0.614553      -0.197045
                                                         1.347699      -0.232253
                                                         3.575233      -0.379953
                          1       4    3pz               0.085137      -0.025250
                                                         0.130000       0.000000
                                                         0.253523      -0.107441
                                                         0.614553      -0.197045
                                                         1.347699      -0.232253
                                                         3.575233      -0.379953

                          1       5    4px               0.085137      -0.053144
                                                         0.130000       0.000000
                                                         0.253523       0.096082
                                                         0.614553       0.370808
                                                         1.347699       0.510275
                                                         3.575233       0.795890
                          1       5    4py               0.085137      -0.053144
                                                         0.130000       0.000000
                                                         0.253523       0.096082
                                                         0.614553       0.370808
                                                         1.347699       0.510275
                                                         3.575233       0.795890
                          1       5    4pz               0.085137      -0.053144
                                                         0.130000       0.000000
                                                         0.253523       0.096082
                                                         0.614553       0.370808
                                                         1.347699       0.510275
                                                         3.575233       0.795890

                          1       6    5px               0.085137       0.158350
                                                         0.130000      -0.193923
                                                         0.253523       0.045517
                                                         0.614553      -0.014020
                                                         1.347699       0.069441
                                                         3.575233       0.000000
                          1       6    5py               0.085137       0.158350
                                                         0.130000      -0.193923
                                                         0.253523       0.045517
                                                         0.614553      -0.014020
                                                         1.347699       0.069441
                                                         3.575233       0.000000
                          1       6    5pz               0.085137       0.158350
                                                         0.130000      -0.193923
                                                         0.253523       0.045517
                                                         0.614553      -0.014020
                                                         1.347699       0.069441
                                                         3.575233       0.000000

                          1       7    4dx2              0.085137       0.002211
                                                         0.130000       0.000000
                                                         0.253523       0.099150
                                                         0.614553       0.145476
                                                         1.347699       0.616787
                                                         3.575233      -0.146758
                          1       7    4dxy              0.085137       0.003829
                                                         0.130000       0.000000
                                                         0.253523       0.171733
                                                         0.614553       0.251971
                                                         1.347699       1.068307
                                                         3.575233      -0.254193
                          1       7    4dxz              0.085137       0.003829
                                                         0.130000       0.000000
                                                         0.253523       0.171733
                                                         0.614553       0.251971
                                                         1.347699       1.068307
                                                         3.575233      -0.254193
                          1       7    4dy2              0.085137       0.002211
                                                         0.130000       0.000000
                                                         0.253523       0.099150
                                                         0.614553       0.145476
                                                         1.347699       0.616787
                                                         3.575233      -0.146758
                          1       7    4dyz              0.085137       0.003829
                                                         0.130000       0.000000
                                                         0.253523       0.171733
                                                         0.614553       0.251971
                                                         1.347699       1.068307
                                                         3.575233      -0.254193
                          1       7    4dz2              0.085137       0.002211
                                                         0.130000       0.000000
                                                         0.253523       0.099150
                                                         0.614553       0.145476
                                                         1.347699       0.616787
                                                         3.575233      -0.146758

                          1       8    5dx2              0.085137       0.022218
                                                         0.130000      -0.009300
                                                         0.253523       0.032268
                                                         0.614553       0.052408
                                                         1.347699       0.198245
                                                         3.575233       0.000000
                          1       8    5dxy              0.085137       0.038483
                                                         0.130000      -0.016109
                                                         0.253523       0.055889
                                                         0.614553       0.090774
                                                         1.347699       0.343371
                                                         3.575233       0.000000
                          1       8    5dxz              0.085137       0.038483
                                                         0.130000      -0.016109
                                                         0.253523       0.055889
                                                         0.614553       0.090774
                                                         1.347699       0.343371
                                                         3.575233       0.000000
                          1       8    5dy2              0.085137       0.022218
                                                         0.130000      -0.009300
                                                         0.253523       0.032268
                                                         0.614553       0.052408
                                                         1.347699       0.198245
                                                         3.575233       0.000000
                          1       8    5dyz              0.085137       0.038483
                                                         0.130000      -0.016109
                                                         0.253523       0.055889
                                                         0.614553       0.090774
                                                         1.347699       0.343371
                                                         3.575233       0.000000
                          1       8    5dz2              0.085137       0.022218
                                                         0.130000      -0.009300
                                                         0.253523       0.032268
                                                         0.614553       0.052408
                                                         1.347699       0.198245
                                                         3.575233       0.000000

       Atomic covalent radius [Angstrom]:                                  0.820

       Atomic van der Waals radius [Angstrom]:                             1.920

     GTH Potential information for                                       GTH-PBE

       Description:                       Goedecker-Teter-Hutter pseudopotential
                                           Goedecker et al., PRB 54, 1703 (1996)
                                          Hartwigsen et al., PRB 58, 3641 (1998)
                                                      Krack, TCA 114, 145 (2005)

       Gaussian exponent of the core charge distribution:               2.848129
       Electronic configuration (s p d ...):                               2   1

       Parameters of the local part of the GTH pseudopotential:

                          rloc        C1          C2          C3          C4
                        0.418991   -5.859462    0.903756

       Parameters of the non-local part of the GTH (SOC) pseudopotential:

                   l      r(l)      h(i,j,l)
                                    k(i,j,l)
                   0    0.371320    6.297280
                   1    0.364563    0.000000
                                    0.000855


 MOLECULE KIND INFORMATION


 All atoms are their own molecule, skipping detailed information


 TOTAL NUMBERS AND MAXIMUM NUMBERS

  Total number of            - Atomic kinds:                                   1
                             - Atoms:                                         12
                             - Shell sets:                                    12
                             - Shells:                                        96
                             - Primitive Cartesian functions:                 72
                             - Cartesian basis functions:                    288
                             - Spherical basis functions:                    264

  Maximum angular momentum of- Orbital basis functions:                        2
                             - Local part of the GTH pseudopotential:          2
                             - Non-local part of the GTH pseudopotential:      1


 MODULE QUICKSTEP: ATOMIC COORDINATES IN ANGSTROM

   Atom Kind Element         X             Y             Z       Z(eff)     Mass
      1    1 B     5      6.477998     -0.910671      2.822819   3.0000  10.8110
      2    1 B     5     -1.577330      3.740075      1.361305   3.0000  10.8110
      3    1 B     5      4.900644      1.821387      2.822819   3.0000  10.8110
      4    1 B     5      0.000024      1.008018      1.361305   3.0000  10.8110
      5    1 B     5      3.323290     -0.910671      2.822819   3.0000  10.8110
      6    1 B     5      1.577378      3.740075      1.361305   3.0000  10.8110
      7    1 B     5      3.453232      0.835678      0.304353   3.0000  10.8110
      8    1 B     5      1.447435      1.993726      3.879771   3.0000  10.8110
      9    1 B     5      2.450359      2.572706      0.304353   3.0000  10.8110
     10    1 B     5      2.450308      0.256699      3.879771   3.0000  10.8110
     11    1 B     5      1.447486      0.835678      0.304353   3.0000  10.8110
     12    1 B     5      3.453181      1.993726      3.879771   3.0000  10.8110



 SCF PARAMETERS         Density guess:                                    ATOMIC
                        --------------------------------------------------------
                        max_scf:                                             500
                        max_scf_history:                                       0
                        max_diis:                                              4
                        --------------------------------------------------------
                        eps_scf:                                        1.00E-09
                        eps_scf_history:                                0.00E+00
                        eps_diis:                                       1.00E-01
                        eps_eigval:                                     1.00E-05
                        --------------------------------------------------------
                        level_shift [a.u.]:                             0.000000
                        added MOs                                       246    0
                        --------------------------------------------------------
                        Mixing method:                            BROYDEN_MIXING
                                                charge density mixing in g-space
                        --------------------------------------------------------
                        No outer SCF

 PW_GRID| Information for grid number                                          1
 PW_GRID| Grid distributed over                                     8 processors
 PW_GRID| Real space group dimensions                                     8    1
 PW_GRID| the grid is blocked:                                                NO
 PW_GRID| Cutoff [a.u.]                                                    500.0
 PW_GRID| spherical cutoff:                                                   NO
 PW_GRID|   Bounds   1            -48      47                Points:          96
 PW_GRID|   Bounds   2            -48      47                Points:          96
 PW_GRID|   Bounds   3            -50      49                Points:         100
 PW_GRID| Volume element (a.u.^3)  0.6372E-03     Volume (a.u.^3)       587.2766
 PW_GRID| Grid span                                                    FULLSPACE
 PW_GRID|   Distribution                         Average         Max         Min
 PW_GRID|   G-Vectors                           115200.0      115200      115200
 PW_GRID|   G-Rays                                1200.0        1200        1200
 PW_GRID|   Real Space Points                   115200.0      115200      115200

 PW_GRID| Information for grid number                                          2
 PW_GRID| Number of the reference grid                                         1
 PW_GRID| Grid distributed over                                     8 processors
 PW_GRID| Real space group dimensions                                     8    1
 PW_GRID| the grid is blocked:                                                NO
 PW_GRID| Cutoff [a.u.]                                                    166.7
 PW_GRID| spherical cutoff:                                                   NO
 PW_GRID|   Bounds   1            -27      26                Points:          54
 PW_GRID|   Bounds   2            -27      26                Points:          54
 PW_GRID|   Bounds   3            -30      29                Points:          60
 PW_GRID| Volume element (a.u.^3)  0.3357E-02     Volume (a.u.^3)       587.2766
 PW_GRID| Grid span                                                    FULLSPACE
 PW_GRID|   Distribution                         Average         Max         Min
 PW_GRID|   G-Vectors                            21870.0       21924       21816
 PW_GRID|   G-Rays                                 405.0         406         404
 PW_GRID|   Real Space Points                    21870.0       22680       19440

 PW_GRID| Information for grid number                                          3
 PW_GRID| Number of the reference grid                                         1
 PW_GRID| Grid distributed over                                     8 processors
 PW_GRID| Real space group dimensions                                     8    1
 PW_GRID| the grid is blocked:                                                NO
 PW_GRID| Cutoff [a.u.]                                                     55.6
 PW_GRID| spherical cutoff:                                                   NO
 PW_GRID|   Bounds   1            -16      15                Points:          32
 PW_GRID|   Bounds   2            -16      15                Points:          32
 PW_GRID|   Bounds   3            -18      17                Points:          36
 PW_GRID| Volume element (a.u.^3)  0.1593E-01     Volume (a.u.^3)       587.2766
 PW_GRID| Grid span                                                    FULLSPACE
 PW_GRID|   Distribution                         Average         Max         Min
 PW_GRID|   G-Vectors                             4608.0        4640        4576
 PW_GRID|   G-Rays                                 144.0         145         143
 PW_GRID|   Real Space Points                     4608.0        4608        4608

 PW_GRID| Information for grid number                                          4
 PW_GRID| Number of the reference grid                                         1
 PW_GRID| Grid distributed over                                     8 processors
 PW_GRID| Real space group dimensions                                     8    1
 PW_GRID| the grid is blocked:                                                NO
 PW_GRID| Cutoff [a.u.]                                                     18.5
 PW_GRID| spherical cutoff:                                                   NO
 PW_GRID|   Bounds   1             -9       8                Points:          18
 PW_GRID|   Bounds   2             -9       8                Points:          18
 PW_GRID|   Bounds   3            -10       9                Points:          20
 PW_GRID| Volume element (a.u.^3)  0.9063E-01     Volume (a.u.^3)       587.2766
 PW_GRID| Grid span                                                    FULLSPACE
 PW_GRID|   Distribution                         Average         Max         Min
 PW_GRID|   G-Vectors                              810.0         864         792
 PW_GRID|   G-Rays                                  45.0          48          44
 PW_GRID|   Real Space Points                      810.0        1080         720

 POISSON| Solver                                                        PERIODIC
 POISSON| Periodicity                                                        XYZ

 RS_GRID| Information for grid number                                          1
 RS_GRID|   Bounds   1            -48      47                Points:          96
 RS_GRID|   Bounds   2            -48      47                Points:          96
 RS_GRID|   Bounds   3            -50      49                Points:         100
 RS_GRID| Real space fully replicated
 RS_GRID| Group size                                                           1

 RS_GRID| Information for grid number                                          2
 RS_GRID|   Bounds   1            -27      26                Points:          54
 RS_GRID|   Bounds   2            -27      26                Points:          54
 RS_GRID|   Bounds   3            -30      29                Points:          60
 RS_GRID| Real space fully replicated
 RS_GRID| Group size                                                           1

 RS_GRID| Information for grid number                                          3
 RS_GRID|   Bounds   1            -16      15                Points:          32
 RS_GRID|   Bounds   2            -16      15                Points:          32
 RS_GRID|   Bounds   3            -18      17                Points:          36
 RS_GRID| Real space fully replicated
 RS_GRID| Group size                                                           1

 RS_GRID| Information for grid number                                          4
 RS_GRID|   Bounds   1             -9       8                Points:          18
 RS_GRID|   Bounds   2             -9       8                Points:          18
 RS_GRID|   Bounds   3            -10       9                Points:          20
 RS_GRID| Real space fully replicated
 RS_GRID| Group size                                                           1

 Number of electrons:                                                         36
 Number of occupied orbitals:                                                 18
 Number of molecular orbitals:                                               264

 Number of orbital functions:                                                264
 Number of independent orbital functions:                                    264

 Extrapolation method: initial_guess

 Atomic guess: The first density matrix is obtained in terms of atomic orbitals
               and electronic configurations assigned to each atomic kind

 Guess for atomic kind: B

 Electronic structure
    Total number of core electrons                                          2.00
    Total number of valence electrons                                       3.00
    Total number of electrons                                               5.00
    Multiplicity                                                   not specified
    S   [  2.00] 2.00
    P      1.00


 *******************************************************************************
                  Iteration          Convergence                     Energy [au]
 *******************************************************************************
                          1        0.238502E-01                  -2.532523605015
                          2        0.868371E-02                  -2.533211274467
                          3        0.641406E-03                  -2.533338187729
                          4        0.394451E-06                  -2.533338838311

 Energy components [Hartree]           Total Energy ::           -2.533338838311
                                        Band Energy ::           -0.754978817885
                                     Kinetic Energy ::            1.374329365795
                                   Potential Energy ::           -3.907668204106
                                      Virial (-V/T) ::            2.843327299381
                                        Core Energy ::           -3.762624187964
                                          XC Energy ::           -0.788597370443
                                     Coulomb Energy ::            2.017882720095
                       Total Pseudopotential Energy ::           -5.166089023748
                       Local Pseudopotential Energy ::           -5.577447498970
                    Nonlocal Pseudopotential Energy ::            0.411358475222
                                        Confinement ::            0.291354699889

 Orbital energies  State     L     Occupation   Energy[a.u.]          Energy[eV]

                       1     0          2.000      -0.323094           -8.791847

                       1     1          1.000      -0.108790           -2.960325


 Total Electron Density at R=0:                                         0.000358
 Re-scaling the density matrix to get the right number of electrons
                  # Electrons              Trace(P)               Scaling factor
                           36                36.000                        1.000


 SCF WAVEFUNCTION OPTIMIZATION

  Step     Update method      Time    Convergence         Total energy    Change
  ------------------------------------------------------------------------------
     1 NoMix/Diag. 0.50E-01   18.7     1.24558410       -35.6866966332 -3.57E+01
     2 Broy./Diag. 0.50E-01   19.7     0.01415535       -31.4678333447  4.22E+00
     3 Broy./Diag. 0.50E-01   19.7     0.34824919       -33.1003373409 -1.63E+00
     4 Broy./Diag. 0.50E-01   19.7     0.00697483       -33.6960172890 -5.96E-01
     5 Broy./Diag. 0.50E-01   19.7     0.05903806       -33.9218954350 -2.26E-01
     6 Broy./Diag. 0.50E-01   19.7     0.00264132       -33.9970312687 -7.51E-02
     7 Broy./Diag. 0.50E-01   19.7     0.01432582       -34.0005879300 -3.56E-03
     8 Broy./Diag. 0.50E-01   19.7     0.00210853       -33.9988414618  1.75E-03
     9 Broy./Diag. 0.50E-01   19.7     0.00300620       -33.9935542604  5.29E-03
    10 Broy./Diag. 0.50E-01   19.7     0.00402455       -33.9899713956  3.58E-03
    11 Broy./Diag. 0.50E-01   19.7     0.00007078       -33.9903243135 -3.53E-04
    12 Broy./Diag. 0.50E-01   19.7     0.00097657       -33.9904248752 -1.01E-04
    13 Broy./Diag. 0.50E-01   19.7     0.00001260       -33.9903573026  6.76E-05
    14 Broy./Diag. 0.50E-01   19.7     0.00032739       -33.9907647165 -4.07E-04
    15 Broy./Diag. 0.50E-01   19.7     0.00000410       -33.9907508058  1.39E-05
    16 Broy./Diag. 0.50E-01   19.7     0.00010295       -33.9907001513  5.07E-05
    17 Broy./Diag. 0.50E-01   19.7     0.00000524       -33.9906831840  1.70E-05
    18 Broy./Diag. 0.50E-01   19.7     0.00000833       -33.9906593888  2.38E-05
    19 Broy./Diag. 0.50E-01   19.7     0.00000209       -33.9906459163  1.35E-05
    20 Broy./Diag. 0.50E-01   19.7     0.00000716       -33.9906365005  9.42E-06
    21 Broy./Diag. 0.50E-01   19.3     0.00000837       -33.9906373541 -8.54E-07
    22 Broy./Diag. 0.50E-01   19.3     0.00000028       -33.9906388965 -1.54E-06
    23 Broy./Diag. 0.50E-01   19.5     0.00000069       -33.9906389130 -1.65E-08
    24 Broy./Diag. 0.50E-01   19.5     0.00000076       -33.9906389959 -8.29E-08
    25 Broy./Diag. 0.50E-01   19.4     0.00000099       -33.9906376154  1.38E-06
    26 Broy./Diag. 0.50E-01   19.5     0.00000174       -33.9906351388  2.48E-06
    27 Broy./Diag. 0.50E-01   19.5     0.00000037       -33.9906350733  6.56E-08
    28 Broy./Diag. 0.50E-01   19.4     0.00000028       -33.9906350434  2.99E-08
    29 Broy./Diag. 0.50E-01   19.4     0.00000043       -33.9906338179  1.23E-06
    30 Broy./Diag. 0.50E-01   19.4     0.00000053       -33.9906328375  9.80E-07
    31 Broy./Diag. 0.50E-01   19.5     0.00000046       -33.9906330377 -2.00E-07
    32 Broy./Diag. 0.50E-01   19.3     0.00000010       -33.9906335406 -5.03E-07
    33 Broy./Diag. 0.50E-01   19.5     0.00000029       -33.9906337700 -2.29E-07
    34 Broy./Diag. 0.50E-01   19.5     0.00000010       -33.9906338951 -1.25E-07
    35 Broy./Diag. 0.50E-01   19.4     0.00000039       -33.9906338631  3.20E-08
    36 Broy./Diag. 0.50E-01   19.3     0.00000053       -33.9906336204  2.43E-07
    37 Broy./Diag. 0.50E-01   19.2     0.00000005       -33.9906337026 -8.22E-08
    38 Broy./Diag. 0.50E-01   19.5     0.00000013       -33.9906340824 -3.80E-07
    39 Broy./Diag. 0.50E-01   19.5     0.00000012       -33.9906340307  5.17E-08
    40 Broy./Diag. 0.50E-01   19.5     0.00000012       -33.9906338788  1.52E-07
    41 Broy./Diag. 0.50E-01   19.4     0.00000017       -33.9906341175 -2.39E-07
    42 Broy./Diag. 0.50E-01   19.5     0.00000004       -33.9906343187 -2.01E-07
    43 Broy./Diag. 0.50E-01   19.5     0.00000007       -33.9906344431 -1.24E-07
    44 Broy./Diag. 0.50E-01   19.5     0.00000006       -33.9906345132 -7.01E-08
    45 Broy./Diag. 0.50E-01   19.5     0.00000007       -33.9906345845 -7.14E-08
    46 Broy./Diag. 0.50E-01   19.5     0.00000007       -33.9906345859 -1.38E-09
    47 Broy./Diag. 0.50E-01   19.5     0.00000003       -33.9906346225 -3.66E-08
    48 Broy./Diag. 0.50E-01   19.5     0.00000008       -33.9906347690 -1.46E-07
    49 Broy./Diag. 0.50E-01   19.5     0.00000005       -33.9906347499  1.91E-08
    50 Broy./Diag. 0.50E-01   19.5     0.00000005       -33.9906346806  6.93E-08
    51 Broy./Diag. 0.50E-01   19.4     0.00000003       -33.9906347260 -4.54E-08
    52 Broy./Diag. 0.50E-01   19.5     0.00000003       -33.9906348169 -9.09E-08
    53 Broy./Diag. 0.50E-01   19.4     0.00000002       -33.9906348653 -4.84E-08
    54 Broy./Diag. 0.50E-01   19.5     0.00000003       -33.9906348752 -9.90E-09
    55 Broy./Diag. 0.50E-01   19.5     0.00000002       -33.9906348817 -6.48E-09
    56 Broy./Diag. 0.50E-01   19.5     0.00000002       -33.9906348742  7.54E-09
    57 Broy./Diag. 0.50E-01   19.5     8.3215E-09       -33.9906348681  6.02E-09
    58 Broy./Diag. 0.50E-01   19.5     0.00000003       -33.9906348925 -2.43E-08
    59 Broy./Diag. 0.50E-01   19.4     0.00000002       -33.9906348823  1.02E-08
    60 Broy./Diag. 0.50E-01   19.5     0.00000002       -33.9906348387  4.35E-08
    61 Broy./Diag. 0.50E-01   19.4     8.6626E-09       -33.9906348393 -5.51E-10
    62 Broy./Diag. 0.50E-01   19.5     7.8433E-09       -33.9906348698 -3.05E-08
    63 Broy./Diag. 0.50E-01   19.5     0.00000001       -33.9906348844 -1.47E-08
    64 Broy./Diag. 0.50E-01   19.5     0.00000002       -33.9906348718  1.26E-08
    65 Broy./Diag. 0.50E-01   19.5     6.2104E-09       -33.9906348610  1.08E-08
    66 Broy./Diag. 0.50E-01   19.5     3.8523E-09       -33.9906348531  7.97E-09
    67 Broy./Diag. 0.50E-01   19.5     4.6462E-09       -33.9906348437  9.38E-09
    68 Broy./Diag. 0.50E-01   19.4     7.8357E-09       -33.9906348392  4.44E-09
    69 Broy./Diag. 0.50E-01   19.5     0.00000001       -33.9906348322  7.08E-09
    70 Broy./Diag. 0.50E-01   19.7     2.8545E-09       -33.9906348215  1.07E-08
    71 Broy./Diag. 0.50E-01   19.7     4.7182E-09       -33.9906348142  7.28E-09
    72 Broy./Diag. 0.50E-01   19.7     6.5680E-09       -33.9906348201 -5.92E-09
    73 Broy./Diag. 0.50E-01   19.7     2.0689E-09       -33.9906348238 -3.73E-09
    74 Broy./Diag. 0.50E-01   19.7     4.9029E-09       -33.9906348152  8.68E-09
    75 Broy./Diag. 0.50E-01   19.7     2.7653E-09       -33.9906348059  9.28E-09
    76 Broy./Diag. 0.50E-01   19.7     4.9720E-10       -33.9906348034  2.49E-09

  *** SCF run converged in    76 steps ***


  Electronic density on regular grids:        -36.0000000000        0.0000000000
  Core density on regular grids:               36.0000000000        0.0000000000
  Total charge density on r-space grids:        0.0000000000
  Total charge density g-space grids:           0.0000000000

  Overlap energy of the core charge distribution:               0.00000193750296
  Self energy of the core charge distribution:                -72.71326780434026
  Core Hamiltonian energy:                                     24.76511654003956
  Hartree energy:                                              27.17320542745315
  Exchange-correlation energy:                                -13.21569090404014

  Total energy:                                               -33.99063480338472

 !-----------------------------------------------------------------------------!
                     Mulliken Population Analysis

 #  Atom  Element  Kind  Atomic population                           Net charge
       1     B        1          3.646142                             -0.646142
       2     B        1          3.646142                             -0.646142
       3     B        1          3.646060                             -0.646060
       4     B        1          3.646060                             -0.646060
       5     B        1          3.646063                             -0.646063
       6     B        1          3.646063                             -0.646063
       7     B        1          2.353964                              0.646036
       8     B        1          2.353964                              0.646036
       9     B        1          2.353885                              0.646115
      10     B        1          2.353885                              0.646115
      11     B        1          2.353887                              0.646113
      12     B        1          2.353887                              0.646113
 # Total charge                             36.000000                  0.000000

 !-----------------------------------------------------------------------------!

 !-----------------------------------------------------------------------------!
                           Hirshfeld Charges

  #Atom  Element  Kind  Ref Charge     Population                    Net charge
      1       B      1       3.000          3.040                        -0.040
      2       B      1       3.000          3.040                        -0.040
      3       B      1       3.000          3.040                        -0.040
      4       B      1       3.000          3.040                        -0.040
      5       B      1       3.000          3.040                        -0.040
      6       B      1       3.000          3.040                        -0.040
      7       B      1       3.000          2.960                         0.040
      8       B      1       3.000          2.960                         0.040
      9       B      1       3.000          2.960                         0.040
     10       B      1       3.000          2.960                         0.040
     11       B      1       3.000          2.960                         0.040
     12       B      1       3.000          2.960                         0.040

  Total Charge                                                           -0.000
 !-----------------------------------------------------------------------------!

 KPOINTS| Band Structure Calculation
 KPOINTS| Number of k-point sets                                               1
 KPOINTS| Number of added MOs/bands                                           -1
 KPOINTS| Number of k-points in set    1                                     148
 KPOINTS| In units of b-vector [2pi/Bohr]
 KPOINTS| Special point     1 not specifi     0.000000     0.000000     0.000000
 KPOINTS| Special point     2 not specifi     0.371440     0.371440     0.000000
 KPOINTS| Special point     3 not specifi    -0.500000     0.500000     0.000000
 KPOINTS| Special point     4 not specifi     0.000000     0.000000     0.000000
 KPOINTS| Time for k-point line                                            7.612

 ENERGY| Total FORCE_EVAL ( QS ) energy [hartree]            -33.990634803384722

 -------------------------------------------------------------------------------
 -                                                                             -
 -                                DBCSR STATISTICS                             -
 -                                                                             -
 -------------------------------------------------------------------------------
 COUNTER                                    TOTAL       BLAS       SMM       ACC
 flops inhomo. stacks                           0       0.0%      0.0%      0.0%
 flops total                         0.000000E+00       0.0%      0.0%      0.0%
 flops max/rank                      0.000000E+00       0.0%      0.0%      0.0%
 matmuls inhomo. stacks                         0       0.0%      0.0%      0.0%
 matmuls total                                  0       0.0%      0.0%      0.0%
 number of processed stacks                     0       0.0%      0.0%      0.0%
 average stack size                                     0.0       0.0       0.0
 marketing flops                     0.000000E+00
 -------------------------------------------------------------------------------
 -                                                                             -
 -                      DBCSR MESSAGE PASSING PERFORMANCE                      -
 -                                                                             -
 -------------------------------------------------------------------------------
 ROUTINE             CALLS      AVE VOLUME [Bytes]
 MP_Bcast                1                     12.
 MP_Allreduce           19                     21.
 MP_Alltoall       1645872                  34766.
 -------------------------------------------------------------------------------

 -------------------------------------------------------------------------------
 -                                                                             -
 -                                DBM STATISTICS                               -
 -                                                                             -
 -------------------------------------------------------------------------------
    M  x    N  x    K                                          COUNT     PERCENT
 -------------------------------------------------------------------------------

 -------------------------------------------------------------------------------
 -                                                                             -
 -                                GRID STATISTICS                              -
 -                                                                             -
 -------------------------------------------------------------------------------
 LP    KERNEL             BACKEND                              COUNT     PERCENT
 4     collocate general  CPU                               14182014      50.33%
 4     integrate general  CPU                               13997832      49.67%
 0     collocate general  CPU                                     24       0.00%
 0     integrate general  CPU                                     12       0.00%
 -------------------------------------------------------------------------------

 MEMORY| Estimated peak process memory [MiB]                                 972

 -------------------------------------------------------------------------------
 ----                             MULTIGRID INFO                            ----
 -------------------------------------------------------------------------------
 count for grid        1:          56609          cutoff [a.u.]          500.00
 count for grid        2:          68658          cutoff [a.u.]          166.67
 count for grid        3:         114621          cutoff [a.u.]           55.56
 count for grid        4:         192039          cutoff [a.u.]           18.52
 total gridlevel count  :         431927

 -------------------------------------------------------------------------------
 -                                                                             -
 -                         MESSAGE PASSING PERFORMANCE                         -
 -                                                                             -
 -------------------------------------------------------------------------------

 ROUTINE             CALLS      AVE VOLUME [Bytes]
 MP_Group                6
 MP_Bcast           704198                    401.
 MP_Allreduce       193593                    225.
 MP_Sync                 4
 MP_Alltoall          1373                5105143.
 MP_SendRecv          2170                 291229.
 MP_ISendRecv         2135                 289216.
 MP_Wait            486187
 MP_comm_split           4
 MP_ISend           513532                  17254.
 MP_IRecv           821296                  10377.
 -------------------------------------------------------------------------------


 -------------------------------------------------------------------------------
 -                                                                             -
 -                           R E F E R E N C E S                               -
 -                                                                             -
 -------------------------------------------------------------------------------
 
 CP2K version 2025.1 (Development Version), the CP2K developers group (2025).
 CP2K is freely available from https://www.cp2k.org/ .
 
 T. D. Kuehne, M. Iannuzzi, M. Del Ben, V. V. Rybkin, P. Seewald, F. Stein, T. 
 Laino, R. Z. Khaliullin, O. Schuett, F. Schiffmann, D. Golze, J. Wilhelm, S. 
 Chulkov, M. H. Bani-Hashemian, V. Weber, U. Borstnik, M. Taillefumier, A. S. 
 Jakobovits, A. Lazzaro, H. Pabst, T. Mueller, R. Schade, M. Guidon, S. 
 Andermatt, N. Holmberg, G. K. Schenter, A. Hehn, A. Bussy, F. Belleflamme, G. 
 Tabacchi, A. Gloess, M. Lass, I. Bethune, C. J. Mundy, C. Plessl, M. Watkins, 
 J. VandeVondele, M. Krack, J. Hutter.
 J. Chem. Phys. 152, 194103 (2020).
 CP2K: An electronic structure and molecular dynamics software package - 
 Quickstep: Efficient and accurate electronic structure calculations.
 https://doi.org/10.1063/5.0007045

 O. Schuett, P. Messmer, J. Hutter, J. VandeVondele.
 Electronic Structure Calculations on Graphics Processing Units, 173-190 (2016).
 GPU-Accelerated Sparse Matrix-Matrix Multiplication for Linear Scaling Density 
 Functional Theory.
 https://doi.org/10.1002/9781118670712.ch8

 J. Hutter, M. Iannuzzi, F. Schiffmann, J. VandeVondele.
 WIREs Comput Mol Sci. 4, 15-25 (2014).
 CP2K: atomistic simulations of condensed matter systems.
 https://doi.org/10.1002/wcms.1159

 U. Borstnik, J. VandeVondele, V. Weber, J. Hutter.
 Parallel Comput. 40, 47-58 (2014).
 Sparse matrix multiplication: The distributed block-compressed sparse row 
 library.
 https://doi.org/10.1016/j.parco.2014.03.012

 J. VandeVondele, J. Hutter.
 J. Chem. Phys. 127, 114105 (2007).
 Gaussian basis sets for accurate calculations on molecular systems in gas and 
 condensed phases.
 https://doi.org/10.1063/1.2770708

 J. VandeVondele, M. Krack, F. Mohamed, M. Parrinello, T. Chassaing, J. Hutter.
 Comput. Phys. Commun. 167, 103-128 (2005).
 QUICKSTEP: Fast and accurate density functional calculations using a mixed 
 Gaussian and plane waves approach.
 https://doi.org/10.1016/j.cpc.2004.12.014

 M. Krack.
 Theor. Chem. Acc. 114, 145-152 (2005).
 Pseudopotentials for H to Kr optimized for gradient-corrected 
 exchange-correlation functionals.
 https://doi.org/10.1007/s00214-005-0655-y

 M. Frigo, S. G. Johnson.
 Proc. IEEE 93, 216-231 (2005).
 The design and implementation of FFTW3.
 https://doi.org/10.1109/JPROC.2004.840301

 C. Hartwigsen, S. Goedecker, J. Hutter.
 Phys. Rev. B 58, 3641-3662 (1998).
 Relativistic separable dual-space Gaussian pseudopotentials from H to Rn.
 https://doi.org/10.1103/PhysRevB.58.3641

 G. Lippert, J. Hutter, M. Parrinello.
 Mol. Phys. 92, 477-487 (1997).
 A hybrid Gaussian and plane wave density functional scheme.
 https://doi.org/10.1080/002689797170220

 S. Goedecker, M. Teter, J. Hutter.
 Phys. Rev. B 54, 1703-1710 (1996).
 Separable dual-space Gaussian pseudopotentials.
 https://doi.org/10.1103/PhysRevB.54.1703

 J. P. Perdew, K. Burke, M. Ernzerhof.
 Phys. Rev. Lett. 77, 3865-3868 (1996).
 Generalized gradient approximation made simple.
 https://doi.org/10.1103/PhysRevLett.77.3865


 -------------------------------------------------------------------------------
 -                                                                             -
 -                                T I M I N G                                  -
 -                                                                             -
 -------------------------------------------------------------------------------
 SUBROUTINE                       CALLS  ASD         SELF TIME        TOTAL TIME
                                MAXIMUM       AVERAGE  MAXIMUM  AVERAGE  MAXIMUM
 CP2K                                 1  1.0    0.014    0.017 1504.537 1504.538
 qs_energies                          1  2.0    0.021    0.146 1504.197 1504.268
 scf_env_do_scf                       1  3.0    0.000    0.000 1491.474 1491.481
 scf_env_do_scf_inner_loop           76  4.0    0.062    0.066 1491.474 1491.481
 do_general_diag_kp                  77  6.0    0.607    0.635 1320.309 1334.914
 qs_scf_new_mos_kp                   76  5.0    0.001    0.001 1312.888 1327.465
 rskp_transform                   39208  7.0  528.792  706.235  528.792  706.235
 mp_alltoall_i22                 280896  8.8  291.288  452.243  291.288  452.243
 kpoint_density_transform            76  7.0    0.247    0.255  382.462  382.890
 dbcsr_desymmetrize_deep         160200  7.5    5.158    5.535  231.024  344.525
 transform_dmat                   19456  8.0  245.751  329.155  245.751  329.155
 dbcsr_complete_redistribute     120696  8.3   10.671   11.158  136.816  183.496
 copy_fm_to_dbcsr                 38912  8.0    0.280    0.289  101.996  148.611
 qs_ks_update_qs_env                 76  5.0    0.001    0.001   81.663  105.068
 rebuild_ks_matrix                   76  6.0    0.000    0.000   78.315  101.720
 qs_ks_build_kohn_sham_matrix        76  7.0    0.113    0.114   78.315  101.719
 sum_up_and_integrate                76  8.0    0.001    0.001   75.616   98.989
 integrate_v_rspace                  76  9.0    0.394    0.511   75.611   98.984
 grid_integrate_task_list            76 10.0   74.316   97.604   74.316   97.604
 qs_rho_update_rho_low               77  5.0    0.001    0.001   87.284   87.524
 calculate_rho_elec                  77  6.0    0.181    0.233   87.283   87.524
 grid_collocate_task_list            77  7.0   65.342   85.685   65.342   85.685
 cp_cfm_geeig                      2469  7.0    0.034    0.035   80.886   81.599
 cp_fm_start_copy_general        117328  7.3    9.963   11.521   59.861   60.056
 copy_dbcsr_to_fm                 81784  6.9    1.039    1.055   58.946   59.922
 cp_cfm_heevd                      2469  8.0    0.005    0.005   57.092   57.574
 cp_cfm_heevd_base                 2469  9.0   57.087   57.568   57.087   57.568
 mp_allgather_i                  234656  8.3   41.801   42.394   41.801   42.394
 transfer_rs2pw                     310  8.0    0.004    0.004   21.683   35.204
 transfer_rs2pw_500                  79  9.0    0.273    0.284   21.495   35.036
 density_rs2pw                       77  7.0    0.003    0.003   21.750   34.997
 mp_sendrecv_dv                    2170 10.0   21.344   34.865   21.344   34.865
 mp_alltoall_d11v                842688  9.4   22.355   23.465   22.355   23.465
 cp_cfm_triangular_multiply        7407  8.0   16.307   16.482   16.307   16.482
 hybrid_alltoall_any             160200  8.5    0.755    0.807   12.914   13.946
 dbcsr_finalize                  295284  8.7    1.566    1.654   12.455   13.430
 kpoint_density_matrices             76  7.0    0.170    0.176   12.371   12.494
 parallel_gemm_fm                  9728  8.0    0.013    0.013   11.884   12.012
 parallel_gemm_fm_gemm             9728  9.0    0.013    0.013   11.872   11.999
 cp_fm_gemm                        9728 10.0   11.859   11.986   11.859   11.986
 cp_fm_finish_copy_general        48788  7.8   10.303   10.774   10.443   10.915
 dbcsr_merge_all                 120696 10.3    3.214    3.584    7.418    8.186
 mp_alltoall_i11v                522288  9.0    6.275    7.676    6.275    7.676
 mp_bcast_iv                     469335  8.3    5.773    7.179    5.773    7.179
 mp_cart_sub                     163570  8.9    6.980    7.004    6.980    7.004
 write_kpoints_restart               76  5.0    0.014    0.022    5.925    6.146
 mp_cart_create                   81791  8.9    4.771    4.955    4.771    4.955
 dbcsr_copy                      167738  7.1    0.966    1.041    3.683    4.333
 dbcsr_create_new                536006  8.2    3.211    3.261    3.710    3.752
 mp_waitall_1                    486187  8.4    0.987    3.713    0.987    3.713
 cp_fm_write_unformatted           3368  6.0    1.291    2.671    2.167    3.632
 cp_cfm_triangular_invert          2469  8.0    3.585    3.622    3.585    3.622
 dbcsr_dot                       127985  8.0    1.824    2.262    3.396    3.475
 cp_cfm_cholesky_decompose         2469  8.0    3.451    3.471    3.451    3.471
 evaluate_core_matrix_traces         76  6.0    0.000    0.000    3.347    3.348
 calculate_ptrace_kp                152  7.0    0.097    0.099    3.347    3.347
 dbcsr_work_create               280896  8.8    2.038    2.098    3.146    3.270
 dbcsr_copy_into_existing         39754  9.9    2.246    2.820    2.483    3.057
 copy_dbcsr_to_fm_bc              81784  7.9    1.916    2.050    2.888    3.037
 qs_energies_init_hamiltonians        1  3.0    0.000    0.000    2.991    2.991
 mp_send_dv                        3368  7.0    0.756    2.796    0.756    2.796
 self_consistency_check              76  5.0    0.094    0.097    2.528    2.709
 copy_fm_to_dbcsr_bc              38912  9.0    0.791    0.838    2.490    2.605
 tree_to_linear_d                120696 11.3    2.379    2.562    2.379    2.562
 fft_wrap_pw1pw2                   1373 10.0    0.013    0.014    2.503    2.542
 build_core_hamiltonian_matrix        1  4.0    0.003    0.004    1.975    2.526
 kpoint_set_mo_occupation            76  7.0    0.362    0.369    1.636    2.398
 fft_wrap_pw1pw2_500                914 11.3    0.177    0.179    2.318    2.356
 dbcsr_work_destroy_all          280896  9.8    1.460    1.499    2.219    2.289
 cp_sm_mix                        63992  6.0    0.902    1.142    2.049    2.284
 cp_dbcsr_alloc_block_from_nbl     6352  5.2    1.503    1.973    1.713    2.244
 dbcsr_iterator_start            954817  9.0    1.846    1.875    2.195    2.241
 fft3d_ps                          1373 12.0    0.792    0.811    2.018    2.060
 mp_sum_dm3                          76  8.0    1.274    2.040    1.274    2.040
 dbcsr_data_new                 3019963  9.7    1.909    2.011    1.909    2.011
 dbcsr_data_release             4295180 10.2    1.833    1.895    1.833    1.895
 mp_sum_d                        129015  9.0    1.320    1.710    1.320    1.710
 dbcsr_set                       332453  7.8    0.365    0.379    1.378    1.660
 gspace_mixing                       75  5.0    0.062    0.062    1.657    1.657
 dbcsr_destroy                   408022  8.3    0.768    0.792    1.599    1.653
 qs_vxc_create                       76  8.0    0.001    0.001    1.650    1.653
 xc_vxc_pw_create                    76  9.0    0.070    0.070    1.649    1.652
 dbcsr_data_copy_aa2             120696 11.3    1.200    1.537    1.200    1.537
 init_scf_run                         1  3.0    0.000    0.000    1.316    1.397
 scf_env_initial_rho_setup            1  4.0    0.000    0.000    1.316    1.396
 broyden_mixing                      75  6.0    1.352    1.369    1.385    1.393
 mp_max_d                         63994  7.0    0.997    1.366    0.997    1.366
 mp_bcast_im                     234656  8.3    1.056    1.335    1.056    1.335
 dbcsr_iterator_stop             954817  9.0    1.107    1.119    1.318    1.333
 dbcsr_zero                      332453  8.8    1.013    1.298    1.013    1.298
 qs_env_update_s_mstruct              1  4.0    0.000    0.000    0.905    1.192
 quick_finalize                  160200  9.5    0.592    0.609    1.134    1.175
 cp_cfm_scale_and_add_fm           9876  7.0    1.139    1.169    1.139    1.169
 mp_alltoall_z22v                  1373 14.0    1.073    1.118    1.073    1.118
 build_core_ppnl                      1  5.0    0.831    1.059    0.831    1.059
 xc_pw_derive                       456 11.0    0.002    0.002    1.047    1.052
 mp_recv_dv                       13472  7.0    0.120    0.961    0.120    0.961
 potential_pw2rs                     76 10.0    0.006    0.006    0.901    0.951
 calculate_rho_core                   1  5.0    0.003    0.004    0.571    0.924
 xc_rho_set_and_dset_create          76 10.0    0.036    0.038    0.887    0.892
 mp_comm_free                    245395  8.9    0.811    0.855    0.811    0.855
 dbcsr_reserve_blocks             45264 10.3    0.689    0.743    0.752    0.811
 x_to_yz                            760 13.2    0.090    0.093    0.677    0.698
 xc_pw_divergence                    76 10.0    0.001    0.001    0.682    0.685
 dbcsr_reserve_all_blocks         38912 10.0    0.080    0.085    0.626    0.680
 dbcsr_sort_indices              326160 10.9    0.619    0.642    0.619    0.642
 mixing_allocate                      1  3.0    0.005    0.005    0.469    0.614
 cp_cfm_to_fm                      2469  7.0    0.604    0.612    0.604    0.612
 transfer_pw2rs                     305 11.0    0.002    0.002    0.608    0.609
 yz_to_x                            613 12.9    0.052    0.055    0.538    0.586
 mp_isend_dv                     117328  8.3    0.447    0.547    0.447    0.547
 transfer_pw2rs_500                  77 11.9    0.230    0.235    0.449    0.466
 cp_cfm_to_cfm_columns             2469  8.0    0.418    0.431    0.418    0.431
 build_core_ppl                       1  5.0    0.335    0.412    0.335    0.412
 mp_irecv_dv                     117328  8.3    0.171    0.395    0.171    0.395
 dbcsr_iterator_seek             954817 10.0    0.349    0.368    0.349    0.368
 build_kinetic_matrix_low             1  5.0    0.027    0.042    0.256    0.342
 dbcsr_make_index_exist          536006  9.2    0.327    0.336    0.327    0.336
 build_overlap_matrix_low             1  5.0    0.027    0.034    0.257    0.335
 cp_fm_to_fm_matrix                4864  8.0    0.313    0.318    0.313    0.318
 merge_index                     120696 11.3    0.286    0.304    0.286    0.304
 xc_functional_eval                  76 11.0    0.001    0.001    0.300    0.303
 qs_env_rebuild_rho                   1  5.0    0.000    0.000    0.230    0.303
 qs_rho_rebuild                       1  6.0    0.003    0.003    0.230    0.303
 pbe_lda_eval                        76 12.0    0.299    0.303    0.299    0.303
 mp_irecv_iv                     469312  8.3    0.036    0.286    0.036    0.286
 cp_fm_cleanup_copy_general       83280  7.0    0.162    0.192    0.226    0.258
 calculate_first_density_matrix       1  5.0    0.001    0.001    0.156    0.235
 calculate_atomic_block_dm            1  6.0    0.001    0.001    0.150    0.230
 mp_sum_dv                          371  3.8    0.093    0.208    0.093    0.208
 dbcsr_switch_data_area          160200 10.5    0.150    0.156    0.196    0.203
 mp_isend_iv                     264136  8.3    0.055    0.199    0.055    0.199
 pw_scatter_p                       760 12.2    0.160    0.163    0.160    0.163
 dbcsr_distribution_new          120698  8.6    0.131    0.158    0.131    0.158
 calculate_ecore_overlap              1  4.0    0.000    0.000    0.090    0.158
 transfer_rs2pw_170                  77  9.0    0.047    0.050    0.139    0.153
 -------------------------------------------------------------------------------

 The number of warnings for this run is : 1
 
 -------------------------------------------------------------------------------
  **** **** ******  **  PROGRAM ENDED AT                 2025-08-05 04:27:19.089
 ***** ** ***  *** **   PROGRAM RAN ON                              i04r08c01s04
 **    ****   ******    PROGRAM RAN BY                                   di38fab
 ***** **    ** ** **   PROGRAM PROCESS ID                               2381686
  **** **  *******  **  PROGRAM STOPPED IN /hppfs/scratch/04/di38fab/09_GTH/Delt
                                           a_Set/B/aug-DZVP-MOLOPT-GTH-tier-1/8x
                                           8x8
