 DBCSR| CPU Multiplication driver                                           BLAS (U)
 DBCSR| Multrec recursion limit                                              512 (U)
 DBCSR| Multiplication stack size                                           1000 (D)
 DBCSR| Maximum elements for images                                    UNLIMITED (U)
 DBCSR| Multiplicative factor virtual images                                   1 (U)
 DBCSR| Use multiplication densification                                       T (D)
 DBCSR| Multiplication size stacks                                             3 (U)
 DBCSR| Use memory pool for CPU allocation                                     F (U)
 DBCSR| Number of 3D layers                                               SINGLE (U)
 DBCSR| Use MPI memory allocation                                              F (U)
 DBCSR| Use RMA algorithm                                                      F (U)
 DBCSR| Use Communication thread                                               T (U)
 DBCSR| Communication thread load                                             45 (D)
 DBCSR| MPI: My process id                                                     0
 DBCSR| MPI: Number of processes                                              16
 DBCSR| OMP: Current number of threads                                        12
 DBCSR| OMP: Max number of threads                                            12
 DBCSR| Split modifier for TAS multiplication algorithm                  1.0E+00 (U)


  **** **** ******  **  PROGRAM STARTED AT               2025-08-06 05:30:14.120
 ***** ** ***  *** **   PROGRAM STARTED ON                          i04r01c01s03
 **    ****   ******    PROGRAM STARTED BY                               di38fab
 ***** **    ** ** **   PROGRAM PROCESS ID                               1047591
  **** **  *******  **  PROGRAM STARTED IN /hppfs/scratch/04/di38fab/09_GTH/Delt
                                           a_Set/H/aug-TZVP-MOLOPT-GTH-tier-2/8x
                                           8x8

 CP2K| version string:                 CP2K version 2025.1 (Development Version)
 CP2K| source code revision number:                                  git:3130539
 CP2K| cp2kflags: omp libint fftw3 libxc parallel scalapack max_contr=4         
 CP2K| is freely available from                            https://www.cp2k.org/
 CP2K| Program compiled at                         Tue Jun  3 16:14:32 CEST 2025
 CP2K| Program compiled on                                               login01
 CP2K| Program compiled for                                        Supermuc-foss
 CP2K| Data directory path                  /hppfs/work/pn36zo/di38fab/cp2k/data
 CP2K| Input file name                                                    GW.inp

 GLOBAL| Force Environment number                                              1
 GLOBAL| Basis set file name            /hppfs/scratch/04/di38fab/09_GTH/BASIS_A
 GLOBAL| Potential file name            /hppfs/work/pn36zo/di38fab/cp2k/data/GTH
 GLOBAL| MM Potential file name                                     MM_POTENTIAL
 GLOBAL| Coordinate file name                                              H.cif
 GLOBAL| Method name                                                        CP2K
 GLOBAL| Project name                                                       WSe2
 GLOBAL| Run type                                                         ENERGY
 GLOBAL| FFT library                                                       FFTW3
 GLOBAL| Diagonalization library                                       ScaLAPACK
 GLOBAL| Cholesky decomposition library                                ScaLAPACK
 GLOBAL| DGEMM library                                                      BLAS
 GLOBAL| Orthonormality check for eigenvectors                          DISABLED
 GLOBAL| Matrix multiplication library                                 ScaLAPACK
 GLOBAL| All-to-all communication in single precision                          F
 GLOBAL| FFTs using library dependent lengths                                  F
 GLOBAL| Grid backend                                                       AUTO
 GLOBAL| Global print level                                               MEDIUM
 GLOBAL| MPI I/O enabled                                                       T
 GLOBAL| Total number of message passing processes                            16
 GLOBAL| Number of threads for this process                                   12
 GLOBAL| This output is from process                                           0
 GLOBAL| OpenMP stack size per thread (OMP_STACKSIZE)                    default
 GLOBAL| CPU model name             Intel(R) Xeon(R) Platinum 8174 CPU @ 3.10GHz

 MEMORY| system memory details [Kb]
 MEMORY|                        rank 0           min           max       average
 MEMORY| MemTotal             98436708      98436664      98436708      98436686
 MEMORY| MemFree              84583304      84189452      84589684      84431246
 MEMORY| Buffers                     0             0             0             0
 MEMORY| Cached                2362136       2362136       2454164       2392946
 MEMORY| Slab                  1279056       1279056       1310700       1293506
 MEMORY| SReclaimable           280788        280788        291336        286385
 MEMORY| MemLikelyFree        87226228      86934952      87256332      87110577


 *** Fundamental physical constants (SI units) ***

 *** Literature: B. J. Mohr and B. N. Taylor,
 ***             CODATA recommended values of the fundamental physical
 ***             constants: 2006, Web Version 5.1
 ***             http://physics.nist.gov/constants

 Speed of light in vacuum [m/s]                             2.99792458000000E+08
 Magnetic constant or permeability of vacuum [N/A**2]       1.25663706143592E-06
 Electric constant or permittivity of vacuum [F/m]          8.85418781762039E-12
 Planck constant (h) [J*s]                                  6.62606896000000E-34
 Planck constant (h-bar) [J*s]                              1.05457162825177E-34
 Elementary charge [C]                                      1.60217648700000E-19
 Electron mass [kg]                                         9.10938215000000E-31
 Electron g factor [ ]                                     -2.00231930436220E+00
 Proton mass [kg]                                           1.67262163700000E-27
 Fine-structure constant                                    7.29735253760000E-03
 Rydberg constant [1/m]                                     1.09737315685270E+07
 Avogadro constant [1/mol]                                  6.02214179000000E+23
 Boltzmann constant [J/K]                                   1.38065040000000E-23
 Atomic mass unit [kg]                                      1.66053878200000E-27
 Bohr radius [m]                                            5.29177208590000E-11

 *** Conversion factors ***

 [u] -> [a.u.]                                              1.82288848426455E+03
 [Angstrom] -> [Bohr] = [a.u.]                              1.88972613288564E+00
 [a.u.] = [Bohr] -> [Angstrom]                              5.29177208590000E-01
 [a.u.] -> [s]                                              2.41888432650478E-17
 [a.u.] -> [fs]                                             2.41888432650478E-02
 [a.u.] -> [J]                                              4.35974393937059E-18
 [a.u.] -> [N]                                              8.23872205491840E-08
 [a.u.] -> [K]                                              3.15774647902944E+05
 [a.u.] -> [kJ/mol]                                         2.62549961709828E+03
 [a.u.] -> [kcal/mol]                                       6.27509468713739E+02
 [a.u.] -> [Pa]                                             2.94210107994716E+13
 [a.u.] -> [bar]                                            2.94210107994716E+08
 [a.u.] -> [atm]                                            2.90362800883016E+08
 [a.u.] -> [eV]                                             2.72113838565563E+01
 [a.u.] -> [Hz]                                             6.57968392072181E+15
 [a.u.] -> [1/cm] (wave numbers)                            2.19474631370540E+05
 [a.u./Bohr**2] -> [1/cm]                                   5.14048714338585E+03
 

 CELL_TOP| Volume [angstrom^3]:                                        69.587908
 CELL_TOP| Vector a [angstrom     4.008     0.000     0.000   |a| =     4.007590
 CELL_TOP| Vector b [angstrom    -2.004     3.471     0.000   |b| =     4.007590
 CELL_TOP| Vector c [angstrom     0.000     0.000     5.003   |c| =     5.003070
 CELL_TOP| Angle (b,c), alpha [degree]:                                90.000000
 CELL_TOP| Angle (a,c), beta  [degree]:                                90.000000
 CELL_TOP| Angle (a,b), gamma [degree]:                               120.000000
 CELL_TOP| Numerically orthorhombic:                                          NO
 CELL_TOP| Periodicity                                                       XYZ

 CELL_CIF| Volume [angstrom^3]:                                        69.587908
 CELL_CIF| Vector a [angstrom     4.008     0.000     0.000   |a| =     4.007590
 CELL_CIF| Vector b [angstrom    -2.004     3.471     0.000   |b| =     4.007590
 CELL_CIF| Vector c [angstrom     0.000     0.000     5.003   |c| =     5.003070
 CELL_CIF| Angle (b,c), alpha [degree]:                                90.000000
 CELL_CIF| Angle (a,c), beta  [degree]:                                90.000000
 CELL_CIF| Angle (a,b), gamma [degree]:                               120.000000
 CELL_CIF| Numerically orthorhombic:                                          NO
 CELL_CIF| Periodicity                                                       XYZ

 GENERATE|  Preliminary Number of Bonds generated:                             0
 GENERATE|  Achieved consistency in connectivity generation.

 CELL| Volume [angstrom^3]:                                            69.587908
 CELL| Vector a [angstrom]:       4.008     0.000     0.000   |a| =     4.007590
 CELL| Vector b [angstrom]:      -2.004     3.471     0.000   |b| =     4.007590
 CELL| Vector c [angstrom]:       0.000     0.000     5.003   |c| =     5.003070
 CELL| Angle (b,c), alpha [degree]:                                    90.000000
 CELL| Angle (a,c), beta  [degree]:                                    90.000000
 CELL| Angle (a,b), gamma [degree]:                                   120.000000
 CELL| Numerically orthorhombic:                                              NO
 CELL| Periodicity                                                           XYZ

 CELL_REF| Volume [angstrom^3]:                                        69.587908
 CELL_REF| Vector a [angstrom     4.008     0.000     0.000   |a| =     4.007590
 CELL_REF| Vector b [angstrom    -2.004     3.471     0.000   |b| =     4.007590
 CELL_REF| Vector c [angstrom     0.000     0.000     5.003   |c| =     5.003070
 CELL_REF| Angle (b,c), alpha [degree]:                                90.000000
 CELL_REF| Angle (a,c), beta  [degree]:                                90.000000
 CELL_REF| Angle (a,b), gamma [degree]:                               120.000000
 CELL_REF| Numerically orthorhombic:                                          NO
 CELL_REF| Periodicity                                                       XYZ

 *** WARNING in cryssym.F:180 :: Symmetry library SPGLIB not available ***


 *******************************************************************************
                                    Kpoints
 *******************************************************************************
 BRILLOUIN| K-point scheme                                        Monkhorst-Pack
 BRILLOUIN| K-Point grid                                             8    8    8
 BRILLOUIN| Accuracy in Symmetry determination                      0.100000E-05
 BRILLOUIN| K-Point point group symmetrization                               OFF
 BRILLOUIN| Wavefunction type                                            COMPLEX
 BRILLOUIN| List of Kpoints [2 Pi/Bohr]                                      256
 BRILLOUIN| Number           Weight            X              Y              Z
 BRILLOUIN|     1           0.00391       -0.43750       -0.43750       -0.43750
 BRILLOUIN|     2           0.00391       -0.43750       -0.43750       -0.31250
 BRILLOUIN|     3           0.00391       -0.43750       -0.43750       -0.18750
 BRILLOUIN|     4           0.00391       -0.43750       -0.43750       -0.06250
 BRILLOUIN|     5           0.00391       -0.43750       -0.43750        0.06250
 BRILLOUIN|     6           0.00391       -0.43750       -0.43750        0.18750
 BRILLOUIN|     7           0.00391       -0.43750       -0.43750        0.31250
 BRILLOUIN|     8           0.00391       -0.43750       -0.43750        0.43750
 BRILLOUIN|     9           0.00391       -0.43750       -0.31250       -0.43750
 BRILLOUIN|    10           0.00391       -0.43750       -0.31250       -0.31250
 BRILLOUIN|    11           0.00391       -0.43750       -0.31250       -0.18750
 BRILLOUIN|    12           0.00391       -0.43750       -0.31250       -0.06250
 BRILLOUIN|    13           0.00391       -0.43750       -0.31250        0.06250
 BRILLOUIN|    14           0.00391       -0.43750       -0.31250        0.18750
 BRILLOUIN|    15           0.00391       -0.43750       -0.31250        0.31250
 BRILLOUIN|    16           0.00391       -0.43750       -0.31250        0.43750
 BRILLOUIN|    17           0.00391       -0.43750       -0.18750       -0.43750
 BRILLOUIN|    18           0.00391       -0.43750       -0.18750       -0.31250
 BRILLOUIN|    19           0.00391       -0.43750       -0.18750       -0.18750
 BRILLOUIN|    20           0.00391       -0.43750       -0.18750       -0.06250
 BRILLOUIN|    21           0.00391       -0.43750       -0.18750        0.06250
 BRILLOUIN|    22           0.00391       -0.43750       -0.18750        0.18750
 BRILLOUIN|    23           0.00391       -0.43750       -0.18750        0.31250
 BRILLOUIN|    24           0.00391       -0.43750       -0.18750        0.43750
 BRILLOUIN|    25           0.00391       -0.43750       -0.06250       -0.43750
 BRILLOUIN|    26           0.00391       -0.43750       -0.06250       -0.31250
 BRILLOUIN|    27           0.00391       -0.43750       -0.06250       -0.18750
 BRILLOUIN|    28           0.00391       -0.43750       -0.06250       -0.06250
 BRILLOUIN|    29           0.00391       -0.43750       -0.06250        0.06250
 BRILLOUIN|    30           0.00391       -0.43750       -0.06250        0.18750
 BRILLOUIN|    31           0.00391       -0.43750       -0.06250        0.31250
 BRILLOUIN|    32           0.00391       -0.43750       -0.06250        0.43750
 BRILLOUIN|    33           0.00391       -0.43750        0.06250       -0.43750
 BRILLOUIN|    34           0.00391       -0.43750        0.06250       -0.31250
 BRILLOUIN|    35           0.00391       -0.43750        0.06250       -0.18750
 BRILLOUIN|    36           0.00391       -0.43750        0.06250       -0.06250
 BRILLOUIN|    37           0.00391       -0.43750        0.06250        0.06250
 BRILLOUIN|    38           0.00391       -0.43750        0.06250        0.18750
 BRILLOUIN|    39           0.00391       -0.43750        0.06250        0.31250
 BRILLOUIN|    40           0.00391       -0.43750        0.06250        0.43750
 BRILLOUIN|    41           0.00391       -0.43750        0.18750       -0.43750
 BRILLOUIN|    42           0.00391       -0.43750        0.18750       -0.31250
 BRILLOUIN|    43           0.00391       -0.43750        0.18750       -0.18750
 BRILLOUIN|    44           0.00391       -0.43750        0.18750       -0.06250
 BRILLOUIN|    45           0.00391       -0.43750        0.18750        0.06250
 BRILLOUIN|    46           0.00391       -0.43750        0.18750        0.18750
 BRILLOUIN|    47           0.00391       -0.43750        0.18750        0.31250
 BRILLOUIN|    48           0.00391       -0.43750        0.18750        0.43750
 BRILLOUIN|    49           0.00391       -0.43750        0.31250       -0.43750
 BRILLOUIN|    50           0.00391       -0.43750        0.31250       -0.31250
 BRILLOUIN|    51           0.00391       -0.43750        0.31250       -0.18750
 BRILLOUIN|    52           0.00391       -0.43750        0.31250       -0.06250
 BRILLOUIN|    53           0.00391       -0.43750        0.31250        0.06250
 BRILLOUIN|    54           0.00391       -0.43750        0.31250        0.18750
 BRILLOUIN|    55           0.00391       -0.43750        0.31250        0.31250
 BRILLOUIN|    56           0.00391       -0.43750        0.31250        0.43750
 BRILLOUIN|    57           0.00391       -0.43750        0.43750       -0.43750
 BRILLOUIN|    58           0.00391       -0.43750        0.43750       -0.31250
 BRILLOUIN|    59           0.00391       -0.43750        0.43750       -0.18750
 BRILLOUIN|    60           0.00391       -0.43750        0.43750       -0.06250
 BRILLOUIN|    61           0.00391       -0.43750        0.43750        0.06250
 BRILLOUIN|    62           0.00391       -0.43750        0.43750        0.18750
 BRILLOUIN|    63           0.00391       -0.43750        0.43750        0.31250
 BRILLOUIN|    64           0.00391       -0.43750        0.43750        0.43750
 BRILLOUIN|    65           0.00391       -0.31250       -0.43750       -0.43750
 BRILLOUIN|    66           0.00391       -0.31250       -0.43750       -0.31250
 BRILLOUIN|    67           0.00391       -0.31250       -0.43750       -0.18750
 BRILLOUIN|    68           0.00391       -0.31250       -0.43750       -0.06250
 BRILLOUIN|    69           0.00391       -0.31250       -0.43750        0.06250
 BRILLOUIN|    70           0.00391       -0.31250       -0.43750        0.18750
 BRILLOUIN|    71           0.00391       -0.31250       -0.43750        0.31250
 BRILLOUIN|    72           0.00391       -0.31250       -0.43750        0.43750
 BRILLOUIN|    73           0.00391       -0.31250       -0.31250       -0.43750
 BRILLOUIN|    74           0.00391       -0.31250       -0.31250       -0.31250
 BRILLOUIN|    75           0.00391       -0.31250       -0.31250       -0.18750
 BRILLOUIN|    76           0.00391       -0.31250       -0.31250       -0.06250
 BRILLOUIN|    77           0.00391       -0.31250       -0.31250        0.06250
 BRILLOUIN|    78           0.00391       -0.31250       -0.31250        0.18750
 BRILLOUIN|    79           0.00391       -0.31250       -0.31250        0.31250
 BRILLOUIN|    80           0.00391       -0.31250       -0.31250        0.43750
 BRILLOUIN|    81           0.00391       -0.31250       -0.18750       -0.43750
 BRILLOUIN|    82           0.00391       -0.31250       -0.18750       -0.31250
 BRILLOUIN|    83           0.00391       -0.31250       -0.18750       -0.18750
 BRILLOUIN|    84           0.00391       -0.31250       -0.18750       -0.06250
 BRILLOUIN|    85           0.00391       -0.31250       -0.18750        0.06250
 BRILLOUIN|    86           0.00391       -0.31250       -0.18750        0.18750
 BRILLOUIN|    87           0.00391       -0.31250       -0.18750        0.31250
 BRILLOUIN|    88           0.00391       -0.31250       -0.18750        0.43750
 BRILLOUIN|    89           0.00391       -0.31250       -0.06250       -0.43750
 BRILLOUIN|    90           0.00391       -0.31250       -0.06250       -0.31250
 BRILLOUIN|    91           0.00391       -0.31250       -0.06250       -0.18750
 BRILLOUIN|    92           0.00391       -0.31250       -0.06250       -0.06250
 BRILLOUIN|    93           0.00391       -0.31250       -0.06250        0.06250
 BRILLOUIN|    94           0.00391       -0.31250       -0.06250        0.18750
 BRILLOUIN|    95           0.00391       -0.31250       -0.06250        0.31250
 BRILLOUIN|    96           0.00391       -0.31250       -0.06250        0.43750
 BRILLOUIN|    97           0.00391       -0.31250        0.06250       -0.43750
 BRILLOUIN|    98           0.00391       -0.31250        0.06250       -0.31250
 BRILLOUIN|    99           0.00391       -0.31250        0.06250       -0.18750
 BRILLOUIN|   100           0.00391       -0.31250        0.06250       -0.06250
 BRILLOUIN|   101           0.00391       -0.31250        0.06250        0.06250
 BRILLOUIN|   102           0.00391       -0.31250        0.06250        0.18750
 BRILLOUIN|   103           0.00391       -0.31250        0.06250        0.31250
 BRILLOUIN|   104           0.00391       -0.31250        0.06250        0.43750
 BRILLOUIN|   105           0.00391       -0.31250        0.18750       -0.43750
 BRILLOUIN|   106           0.00391       -0.31250        0.18750       -0.31250
 BRILLOUIN|   107           0.00391       -0.31250        0.18750       -0.18750
 BRILLOUIN|   108           0.00391       -0.31250        0.18750       -0.06250
 BRILLOUIN|   109           0.00391       -0.31250        0.18750        0.06250
 BRILLOUIN|   110           0.00391       -0.31250        0.18750        0.18750
 BRILLOUIN|   111           0.00391       -0.31250        0.18750        0.31250
 BRILLOUIN|   112           0.00391       -0.31250        0.18750        0.43750
 BRILLOUIN|   113           0.00391       -0.31250        0.31250       -0.43750
 BRILLOUIN|   114           0.00391       -0.31250        0.31250       -0.31250
 BRILLOUIN|   115           0.00391       -0.31250        0.31250       -0.18750
 BRILLOUIN|   116           0.00391       -0.31250        0.31250       -0.06250
 BRILLOUIN|   117           0.00391       -0.31250        0.31250        0.06250
 BRILLOUIN|   118           0.00391       -0.31250        0.31250        0.18750
 BRILLOUIN|   119           0.00391       -0.31250        0.31250        0.31250
 BRILLOUIN|   120           0.00391       -0.31250        0.31250        0.43750
 BRILLOUIN|   121           0.00391       -0.31250        0.43750       -0.43750
 BRILLOUIN|   122           0.00391       -0.31250        0.43750       -0.31250
 BRILLOUIN|   123           0.00391       -0.31250        0.43750       -0.18750
 BRILLOUIN|   124           0.00391       -0.31250        0.43750       -0.06250
 BRILLOUIN|   125           0.00391       -0.31250        0.43750        0.06250
 BRILLOUIN|   126           0.00391       -0.31250        0.43750        0.18750
 BRILLOUIN|   127           0.00391       -0.31250        0.43750        0.31250
 BRILLOUIN|   128           0.00391       -0.31250        0.43750        0.43750
 BRILLOUIN|   129           0.00391       -0.18750       -0.43750       -0.43750
 BRILLOUIN|   130           0.00391       -0.18750       -0.43750       -0.31250
 BRILLOUIN|   131           0.00391       -0.18750       -0.43750       -0.18750
 BRILLOUIN|   132           0.00391       -0.18750       -0.43750       -0.06250
 BRILLOUIN|   133           0.00391       -0.18750       -0.43750        0.06250
 BRILLOUIN|   134           0.00391       -0.18750       -0.43750        0.18750
 BRILLOUIN|   135           0.00391       -0.18750       -0.43750        0.31250
 BRILLOUIN|   136           0.00391       -0.18750       -0.43750        0.43750
 BRILLOUIN|   137           0.00391       -0.18750       -0.31250       -0.43750
 BRILLOUIN|   138           0.00391       -0.18750       -0.31250       -0.31250
 BRILLOUIN|   139           0.00391       -0.18750       -0.31250       -0.18750
 BRILLOUIN|   140           0.00391       -0.18750       -0.31250       -0.06250
 BRILLOUIN|   141           0.00391       -0.18750       -0.31250        0.06250
 BRILLOUIN|   142           0.00391       -0.18750       -0.31250        0.18750
 BRILLOUIN|   143           0.00391       -0.18750       -0.31250        0.31250
 BRILLOUIN|   144           0.00391       -0.18750       -0.31250        0.43750
 BRILLOUIN|   145           0.00391       -0.18750       -0.18750       -0.43750
 BRILLOUIN|   146           0.00391       -0.18750       -0.18750       -0.31250
 BRILLOUIN|   147           0.00391       -0.18750       -0.18750       -0.18750
 BRILLOUIN|   148           0.00391       -0.18750       -0.18750       -0.06250
 BRILLOUIN|   149           0.00391       -0.18750       -0.18750        0.06250
 BRILLOUIN|   150           0.00391       -0.18750       -0.18750        0.18750
 BRILLOUIN|   151           0.00391       -0.18750       -0.18750        0.31250
 BRILLOUIN|   152           0.00391       -0.18750       -0.18750        0.43750
 BRILLOUIN|   153           0.00391       -0.18750       -0.06250       -0.43750
 BRILLOUIN|   154           0.00391       -0.18750       -0.06250       -0.31250
 BRILLOUIN|   155           0.00391       -0.18750       -0.06250       -0.18750
 BRILLOUIN|   156           0.00391       -0.18750       -0.06250       -0.06250
 BRILLOUIN|   157           0.00391       -0.18750       -0.06250        0.06250
 BRILLOUIN|   158           0.00391       -0.18750       -0.06250        0.18750
 BRILLOUIN|   159           0.00391       -0.18750       -0.06250        0.31250
 BRILLOUIN|   160           0.00391       -0.18750       -0.06250        0.43750
 BRILLOUIN|   161           0.00391       -0.18750        0.06250       -0.43750
 BRILLOUIN|   162           0.00391       -0.18750        0.06250       -0.31250
 BRILLOUIN|   163           0.00391       -0.18750        0.06250       -0.18750
 BRILLOUIN|   164           0.00391       -0.18750        0.06250       -0.06250
 BRILLOUIN|   165           0.00391       -0.18750        0.06250        0.06250
 BRILLOUIN|   166           0.00391       -0.18750        0.06250        0.18750
 BRILLOUIN|   167           0.00391       -0.18750        0.06250        0.31250
 BRILLOUIN|   168           0.00391       -0.18750        0.06250        0.43750
 BRILLOUIN|   169           0.00391       -0.18750        0.18750       -0.43750
 BRILLOUIN|   170           0.00391       -0.18750        0.18750       -0.31250
 BRILLOUIN|   171           0.00391       -0.18750        0.18750       -0.18750
 BRILLOUIN|   172           0.00391       -0.18750        0.18750       -0.06250
 BRILLOUIN|   173           0.00391       -0.18750        0.18750        0.06250
 BRILLOUIN|   174           0.00391       -0.18750        0.18750        0.18750
 BRILLOUIN|   175           0.00391       -0.18750        0.18750        0.31250
 BRILLOUIN|   176           0.00391       -0.18750        0.18750        0.43750
 BRILLOUIN|   177           0.00391       -0.18750        0.31250       -0.43750
 BRILLOUIN|   178           0.00391       -0.18750        0.31250       -0.31250
 BRILLOUIN|   179           0.00391       -0.18750        0.31250       -0.18750
 BRILLOUIN|   180           0.00391       -0.18750        0.31250       -0.06250
 BRILLOUIN|   181           0.00391       -0.18750        0.31250        0.06250
 BRILLOUIN|   182           0.00391       -0.18750        0.31250        0.18750
 BRILLOUIN|   183           0.00391       -0.18750        0.31250        0.31250
 BRILLOUIN|   184           0.00391       -0.18750        0.31250        0.43750
 BRILLOUIN|   185           0.00391       -0.18750        0.43750       -0.43750
 BRILLOUIN|   186           0.00391       -0.18750        0.43750       -0.31250
 BRILLOUIN|   187           0.00391       -0.18750        0.43750       -0.18750
 BRILLOUIN|   188           0.00391       -0.18750        0.43750       -0.06250
 BRILLOUIN|   189           0.00391       -0.18750        0.43750        0.06250
 BRILLOUIN|   190           0.00391       -0.18750        0.43750        0.18750
 BRILLOUIN|   191           0.00391       -0.18750        0.43750        0.31250
 BRILLOUIN|   192           0.00391       -0.18750        0.43750        0.43750
 BRILLOUIN|   193           0.00391       -0.06250       -0.43750       -0.43750
 BRILLOUIN|   194           0.00391       -0.06250       -0.43750       -0.31250
 BRILLOUIN|   195           0.00391       -0.06250       -0.43750       -0.18750
 BRILLOUIN|   196           0.00391       -0.06250       -0.43750       -0.06250
 BRILLOUIN|   197           0.00391       -0.06250       -0.43750        0.06250
 BRILLOUIN|   198           0.00391       -0.06250       -0.43750        0.18750
 BRILLOUIN|   199           0.00391       -0.06250       -0.43750        0.31250
 BRILLOUIN|   200           0.00391       -0.06250       -0.43750        0.43750
 BRILLOUIN|   201           0.00391       -0.06250       -0.31250       -0.43750
 BRILLOUIN|   202           0.00391       -0.06250       -0.31250       -0.31250
 BRILLOUIN|   203           0.00391       -0.06250       -0.31250       -0.18750
 BRILLOUIN|   204           0.00391       -0.06250       -0.31250       -0.06250
 BRILLOUIN|   205           0.00391       -0.06250       -0.31250        0.06250
 BRILLOUIN|   206           0.00391       -0.06250       -0.31250        0.18750
 BRILLOUIN|   207           0.00391       -0.06250       -0.31250        0.31250
 BRILLOUIN|   208           0.00391       -0.06250       -0.31250        0.43750
 BRILLOUIN|   209           0.00391       -0.06250       -0.18750       -0.43750
 BRILLOUIN|   210           0.00391       -0.06250       -0.18750       -0.31250
 BRILLOUIN|   211           0.00391       -0.06250       -0.18750       -0.18750
 BRILLOUIN|   212           0.00391       -0.06250       -0.18750       -0.06250
 BRILLOUIN|   213           0.00391       -0.06250       -0.18750        0.06250
 BRILLOUIN|   214           0.00391       -0.06250       -0.18750        0.18750
 BRILLOUIN|   215           0.00391       -0.06250       -0.18750        0.31250
 BRILLOUIN|   216           0.00391       -0.06250       -0.18750        0.43750
 BRILLOUIN|   217           0.00391       -0.06250       -0.06250       -0.43750
 BRILLOUIN|   218           0.00391       -0.06250       -0.06250       -0.31250
 BRILLOUIN|   219           0.00391       -0.06250       -0.06250       -0.18750
 BRILLOUIN|   220           0.00391       -0.06250       -0.06250       -0.06250
 BRILLOUIN|   221           0.00391       -0.06250       -0.06250        0.06250
 BRILLOUIN|   222           0.00391       -0.06250       -0.06250        0.18750
 BRILLOUIN|   223           0.00391       -0.06250       -0.06250        0.31250
 BRILLOUIN|   224           0.00391       -0.06250       -0.06250        0.43750
 BRILLOUIN|   225           0.00391       -0.06250        0.06250       -0.43750
 BRILLOUIN|   226           0.00391       -0.06250        0.06250       -0.31250
 BRILLOUIN|   227           0.00391       -0.06250        0.06250       -0.18750
 BRILLOUIN|   228           0.00391       -0.06250        0.06250       -0.06250
 BRILLOUIN|   229           0.00391       -0.06250        0.06250        0.06250
 BRILLOUIN|   230           0.00391       -0.06250        0.06250        0.18750
 BRILLOUIN|   231           0.00391       -0.06250        0.06250        0.31250
 BRILLOUIN|   232           0.00391       -0.06250        0.06250        0.43750
 BRILLOUIN|   233           0.00391       -0.06250        0.18750       -0.43750
 BRILLOUIN|   234           0.00391       -0.06250        0.18750       -0.31250
 BRILLOUIN|   235           0.00391       -0.06250        0.18750       -0.18750
 BRILLOUIN|   236           0.00391       -0.06250        0.18750       -0.06250
 BRILLOUIN|   237           0.00391       -0.06250        0.18750        0.06250
 BRILLOUIN|   238           0.00391       -0.06250        0.18750        0.18750
 BRILLOUIN|   239           0.00391       -0.06250        0.18750        0.31250
 BRILLOUIN|   240           0.00391       -0.06250        0.18750        0.43750
 BRILLOUIN|   241           0.00391       -0.06250        0.31250       -0.43750
 BRILLOUIN|   242           0.00391       -0.06250        0.31250       -0.31250
 BRILLOUIN|   243           0.00391       -0.06250        0.31250       -0.18750
 BRILLOUIN|   244           0.00391       -0.06250        0.31250       -0.06250
 BRILLOUIN|   245           0.00391       -0.06250        0.31250        0.06250
 BRILLOUIN|   246           0.00391       -0.06250        0.31250        0.18750
 BRILLOUIN|   247           0.00391       -0.06250        0.31250        0.31250
 BRILLOUIN|   248           0.00391       -0.06250        0.31250        0.43750
 BRILLOUIN|   249           0.00391       -0.06250        0.43750       -0.43750
 BRILLOUIN|   250           0.00391       -0.06250        0.43750       -0.31250
 BRILLOUIN|   251           0.00391       -0.06250        0.43750       -0.18750
 BRILLOUIN|   252           0.00391       -0.06250        0.43750       -0.06250
 BRILLOUIN|   253           0.00391       -0.06250        0.43750        0.06250
 BRILLOUIN|   254           0.00391       -0.06250        0.43750        0.18750
 BRILLOUIN|   255           0.00391       -0.06250        0.43750        0.31250
 BRILLOUIN|   256           0.00391       -0.06250        0.43750        0.43750
 *******************************************************************************

 *******************************************************************************
 *******************************************************************************
 **                                                                           **
 **     #####                         ##              ##                      **
 **    ##   ##            ##          ##              ##                      **
 **   ##     ##                       ##            ######                    **
 **   ##     ##  ##   ##  ##   #####  ##  ##   ####   ##    #####    #####    **
 **   ##     ##  ##   ##  ##  ##      ## ##   ##      ##   ##   ##  ##   ##   **
 **   ##  ## ##  ##   ##  ##  ##      ####     ###    ##   ######   ######    **
 **    ##  ###   ##   ##  ##  ##      ## ##      ##   ##   ##       ##        **
 **     #######   #####   ##   #####  ##  ##  ####    ##    #####   ##        **
 **           ##                                                    ##        **
 **                                                                           **
 **                                                ... make the atoms dance   **
 **                                                                           **
 **            Copyright (C) by CP2K developers group (2000-2025)             **
 **                      J. Chem. Phys. 152, 194103 (2020)                    **
 **                                                                           **
 *******************************************************************************

 DFT| Spin restricted Kohn-Sham (RKS) calculation                            RKS
 DFT| Multiplicity                                                             1
 DFT| Number of spin states                                                    1
 DFT| Charge                                                                   0
 DFT| Self-interaction correction (SIC)                                       NO
 DFT| Cutoffs: density                                              1.000000E-10
 DFT|          gradient                                             1.000000E-10
 DFT|          tau                                                  1.000000E-10
 DFT|          cutoff_smoothing_range                               0.000000E+00
 DFT| XC density smoothing                                                  NONE
 DFT| XC derivatives                                                          PW

 FUNCTIONAL| PBE:
 FUNCTIONAL| J.P.Perdew, K.Burke, M.Ernzerhof, Phys. Rev. Letter, vol. 77, n 18,
 FUNCTIONAL|  pp. 3865-3868, (1996) {spin unpolarized}                          


 QS| Method:                                                                 GPW
 QS| Density plane wave grid type                        NON-SPHERICAL FULLSPACE
 QS| Number of grid levels:                                                    4
 QS| Density cutoff [a.u.]:                                                500.0
 QS| Multi grid cutoff [a.u.]: 1) grid level                               500.0
 QS|                           2) grid level                               166.7
 QS|                           3) grid level                                55.6
 QS|                           4) grid level                                18.5
 QS| Grid level progression factor:                                          3.0
 QS| Relative density cutoff [a.u.]:                                        50.0
 QS| Interaction thresholds: eps_pgf_orb:                                1.0E-16
 QS|                         eps_filter_matrix:                          0.0E+00
 QS|                         eps_core_charge:                            1.0E-18
 QS|                         eps_rho_gspace:                             1.0E-16
 QS|                         eps_rho_rspace:                             1.0E-16
 QS|                         eps_gvg_rspace:                             1.0E-08
 QS|                         eps_ppl:                                    1.0E-02
 QS|                         eps_ppnl:                                   1.0E-10


 ATOMIC KIND INFORMATION

  1. Atomic kind: H                                     Number of atoms:       4

     Orbital Basis Set                                aug-TZVP-MOLOPT-GTH-tier-2

       Number of orbital shell sets:                                           1
       Number of orbital shells:                                               9
       Number of primitive Cartesian functions:                                7
       Number of Cartesian basis functions:                                   25
       Number of spherical basis functions:                                   23
       Norm type:                                                              2

       Normalised Cartesian orbitals:

                        Set   Shell   Orbital            Exponent    Coefficient

                          1       1    2s                0.021708      -0.000053
                                                         0.066918       0.004062
                                                         0.247919       0.094768
                                                         0.716815       0.245670
                                                         1.446884       0.141285
                                                         3.700759       0.177012
                                                        11.478000       0.129129

                          1       2    3s                0.021708      -0.003429
                                                         0.066918       0.058630
                                                         0.247919       0.210690
                                                         0.716815      -0.331234
                                                         1.446884       0.015066
                                                         3.700759      -0.152992
                                                        11.478000      -0.079256

                          1       3    4s                0.021708       0.005696
                                                         0.066918      -0.037343
                                                         0.247919      -0.227968
                                                         0.716815       1.524652
                                                         1.446884      -1.109374
                                                         3.700759       0.023016
                                                        11.478000      -0.246880

                          1       4    5s                0.021708       0.055312
                                                         0.066918      -0.069873
                                                         0.247919      -0.119879
                                                         0.716815       0.054024
                                                         1.446884      -0.067271
                                                         3.700759       0.000000
                                                        11.478000       0.000000

                          1       5    3px               0.021708       0.000629
                                                         0.066918       0.019092
                                                         0.247919       0.088285
                                                         0.716815       0.267738
                                                         1.446884       0.443300
                                                         3.700759       0.187466
                                                        11.478000       0.325290
                          1       5    3py               0.021708       0.000629
                                                         0.066918       0.019092
                                                         0.247919       0.088285
                                                         0.716815       0.267738
                                                         1.446884       0.443300
                                                         3.700759       0.187466
                                                        11.478000       0.325290
                          1       5    3pz               0.021708       0.000629
                                                         0.066918       0.019092
                                                         0.247919       0.088285
                                                         0.716815       0.267738
                                                         1.446884       0.443300
                                                         3.700759       0.187466
                                                        11.478000       0.325290

                          1       6    4px               0.021708       0.007345
                                                         0.066918       0.006339
                                                         0.247919      -0.262425
                                                         0.716815       1.901151
                                                         1.446884      -3.813128
                                                         3.700759      -0.598393
                                                        11.478000      -1.727188
                          1       6    4py               0.021708       0.007345
                                                         0.066918       0.006339
                                                         0.247919      -0.262425
                                                         0.716815       1.901151
                                                         1.446884      -3.813128
                                                         3.700759      -0.598393
                                                        11.478000      -1.727188
                          1       6    4pz               0.021708       0.007345
                                                         0.066918       0.006339
                                                         0.247919      -0.262425
                                                         0.716815       1.901151
                                                         1.446884      -3.813128
                                                         3.700759      -0.598393
                                                        11.478000      -1.727188

                          1       7    5px               0.021708       0.007746
                                                         0.066918       0.015555
                                                         0.247919      -0.223025
                                                         0.716815      -0.014214
                                                         1.446884       0.104377
                                                         3.700759       0.000000
                                                        11.478000       0.000000
                          1       7    5py               0.021708       0.007746
                                                         0.066918       0.015555
                                                         0.247919      -0.223025
                                                         0.716815      -0.014214
                                                         1.446884       0.104377
                                                         3.700759       0.000000
                                                        11.478000       0.000000
                          1       7    5pz               0.021708       0.007746
                                                         0.066918       0.015555
                                                         0.247919      -0.223025
                                                         0.716815      -0.014214
                                                         1.446884       0.104377
                                                         3.700759       0.000000
                                                        11.478000       0.000000

                          1       8    4dx2              0.021708      -0.000487
                                                         0.066918       0.007845
                                                         0.247919       0.007293
                                                         0.716815       0.107950
                                                         1.446884       2.173380
                                                         3.700759       1.070407
                                                        11.478000       1.122827
                          1       8    4dxy              0.021708      -0.000843
                                                         0.066918       0.013587
                                                         0.247919       0.012631
                                                         0.716815       0.186975
                                                         1.446884       3.764405
                                                         3.700759       1.853999
                                                        11.478000       1.944794
                          1       8    4dxz              0.021708      -0.000843
                                                         0.066918       0.013587
                                                         0.247919       0.012631
                                                         0.716815       0.186975
                                                         1.446884       3.764405
                                                         3.700759       1.853999
                                                        11.478000       1.944794
                          1       8    4dy2              0.021708      -0.000487
                                                         0.066918       0.007845
                                                         0.247919       0.007293
                                                         0.716815       0.107950
                                                         1.446884       2.173380
                                                         3.700759       1.070407
                                                        11.478000       1.122827
                          1       8    4dyz              0.021708      -0.000843
                                                         0.066918       0.013587
                                                         0.247919       0.012631
                                                         0.716815       0.186975
                                                         1.446884       3.764405
                                                         3.700759       1.853999
                                                        11.478000       1.944794
                          1       8    4dz2              0.021708      -0.000487
                                                         0.066918       0.007845
                                                         0.247919       0.007293
                                                         0.716815       0.107950
                                                         1.446884       2.173380
                                                         3.700759       1.070407
                                                        11.478000       1.122827

                          1       9    5dx2              0.021708       0.000551
                                                         0.066918       0.009172
                                                         0.247919       0.049921
                                                         0.716815      -0.058804
                                                         1.446884      -0.170277
                                                         3.700759       0.000000
                                                        11.478000       0.000000
                          1       9    5dxy              0.021708       0.000954
                                                         0.066918       0.015887
                                                         0.247919       0.086466
                                                         0.716815      -0.101851
                                                         1.446884      -0.294929
                                                         3.700759       0.000000
                                                        11.478000       0.000000
                          1       9    5dxz              0.021708       0.000954
                                                         0.066918       0.015887
                                                         0.247919       0.086466
                                                         0.716815      -0.101851
                                                         1.446884      -0.294929
                                                         3.700759       0.000000
                                                        11.478000       0.000000
                          1       9    5dy2              0.021708       0.000551
                                                         0.066918       0.009172
                                                         0.247919       0.049921
                                                         0.716815      -0.058804
                                                         1.446884      -0.170277
                                                         3.700759       0.000000
                                                        11.478000       0.000000
                          1       9    5dyz              0.021708       0.000954
                                                         0.066918       0.015887
                                                         0.247919       0.086466
                                                         0.716815      -0.101851
                                                         1.446884      -0.294929
                                                         3.700759       0.000000
                                                        11.478000       0.000000
                          1       9    5dz2              0.021708       0.000551
                                                         0.066918       0.009172
                                                         0.247919       0.049921
                                                         0.716815      -0.058804
                                                         1.446884      -0.170277
                                                         3.700759       0.000000
                                                        11.478000       0.000000

       Atomic covalent radius [Angstrom]:                                  0.320

       Atomic van der Waals radius [Angstrom]:                             1.090

     GTH Potential information for                                       GTH-PBE

       Description:                       Goedecker-Teter-Hutter pseudopotential
                                           Goedecker et al., PRB 54, 1703 (1996)
                                          Hartwigsen et al., PRB 58, 3641 (1998)
                                                      Krack, TCA 114, 145 (2005)

       Gaussian exponent of the core charge distribution:              12.500000
       Electronic configuration (s p d ...):                                   1

       Parameters of the local part of the GTH pseudopotential:

                          rloc        C1          C2          C3          C4
                        0.200000   -4.178900    0.724463


 MOLECULE KIND INFORMATION


 All atoms are their own molecule, skipping detailed information


 TOTAL NUMBERS AND MAXIMUM NUMBERS

  Total number of            - Atomic kinds:                                   1
                             - Atoms:                                          4
                             - Shell sets:                                     4
                             - Shells:                                        36
                             - Primitive Cartesian functions:                 28
                             - Cartesian basis functions:                    100
                             - Spherical basis functions:                     92

  Maximum angular momentum of- Orbital basis functions:                        2
                             - Local part of the GTH pseudopotential:          2


 MODULE QUICKSTEP: ATOMIC COORDINATES IN ANGSTROM

   Atom Kind Element         X             Y             Z       Z(eff)     Mass
      1    1 H     1     -0.000020      2.313795      0.875437   1.0000   1.0079
      2    1 H     1      2.003815      1.156880      4.127633   1.0000   1.0079
      3    1 H     1      2.003815      1.156880      3.376972   1.0000   1.0079
      4    1 H     1     -0.000020      2.313795      1.626098   1.0000   1.0079



 SCF PARAMETERS         Density guess:                                    ATOMIC
                        --------------------------------------------------------
                        max_scf:                                             500
                        max_scf_history:                                       0
                        max_diis:                                              4
                        --------------------------------------------------------
                        eps_scf:                                        1.00E-09
                        eps_scf_history:                                0.00E+00
                        eps_diis:                                       1.00E-01
                        eps_eigval:                                     1.00E-05
                        --------------------------------------------------------
                        level_shift [a.u.]:                             0.000000
                        added MOs                                        90    0
                        --------------------------------------------------------
                        Mixing method:                            BROYDEN_MIXING
                                                charge density mixing in g-space
                        --------------------------------------------------------
                        No outer SCF

 PW_GRID| Information for grid number                                          1
 PW_GRID| Grid distributed over                                    16 processors
 PW_GRID| Real space group dimensions                                    16    1
 PW_GRID| the grid is blocked:                                                NO
 PW_GRID| Cutoff [a.u.]                                                    500.0
 PW_GRID| spherical cutoff:                                                   NO
 PW_GRID|   Bounds   1            -40      39                Points:          80
 PW_GRID|   Bounds   2            -40      39                Points:          80
 PW_GRID|   Bounds   3            -48      47                Points:          96
 PW_GRID| Volume element (a.u.^3)  0.7643E-03     Volume (a.u.^3)       469.6025
 PW_GRID| Grid span                                                    FULLSPACE
 PW_GRID|   Distribution                         Average         Max         Min
 PW_GRID|   G-Vectors                            38400.0       38400       38400
 PW_GRID|   G-Rays                                 480.0         480         480
 PW_GRID|   Real Space Points                    38400.0       38400       38400

 PW_GRID| Information for grid number                                          2
 PW_GRID| Number of the reference grid                                         1
 PW_GRID| Grid distributed over                                    16 processors
 PW_GRID| Real space group dimensions                                    16    1
 PW_GRID| the grid is blocked:                                                NO
 PW_GRID| Cutoff [a.u.]                                                    166.7
 PW_GRID| spherical cutoff:                                                   NO
 PW_GRID|   Bounds   1            -22      22                Points:          45
 PW_GRID|   Bounds   2            -22      22                Points:          45
 PW_GRID|   Bounds   3            -30      29                Points:          60
 PW_GRID| Volume element (a.u.^3)  0.3865E-02     Volume (a.u.^3)       469.6025
 PW_GRID| Grid span                                                    FULLSPACE
 PW_GRID|   Distribution                         Average         Max         Min
 PW_GRID|   G-Vectors                             7593.8        7740        7425
 PW_GRID|   G-Rays                                 168.8         172         165
 PW_GRID|   Real Space Points                     7593.8        8100        5400

 PW_GRID| Information for grid number                                          3
 PW_GRID| Number of the reference grid                                         1
 PW_GRID| Grid distributed over                                    16 processors
 PW_GRID| Real space group dimensions                                    16    1
 PW_GRID| the grid is blocked:                                                NO
 PW_GRID| Cutoff [a.u.]                                                     55.6
 PW_GRID| spherical cutoff:                                                   NO
 PW_GRID|   Bounds   1            -12      12                Points:          25
 PW_GRID|   Bounds   2            -12      12                Points:          25
 PW_GRID|   Bounds   3            -16      15                Points:          32
 PW_GRID| Volume element (a.u.^3)  0.2348E-01     Volume (a.u.^3)       469.6025
 PW_GRID| Grid span                                                    FULLSPACE
 PW_GRID|   Distribution                         Average         Max         Min
 PW_GRID|   G-Vectors                             1250.0        1325        1175
 PW_GRID|   G-Rays                                  50.0          53          47
 PW_GRID|   Real Space Points                     1250.0        1600         800

 PW_GRID| Information for grid number                                          4
 PW_GRID| Number of the reference grid                                         1
 PW_GRID| Grid distributed over                                    16 processors
 PW_GRID| Real space group dimensions                                     4    4
 PW_GRID| the grid is blocked:                                                NO
 PW_GRID| Cutoff [a.u.]                                                     18.5
 PW_GRID| spherical cutoff:                                                   NO
 PW_GRID|   Bounds   1             -7       7                Points:          15
 PW_GRID|   Bounds   2             -7       7                Points:          15
 PW_GRID|   Bounds   3            -10       9                Points:          20
 PW_GRID| Volume element (a.u.^3)  0.1044         Volume (a.u.^3)       469.6025
 PW_GRID| Grid span                                                    FULLSPACE
 PW_GRID|   Distribution                         Average         Max         Min
 PW_GRID|   G-Vectors                              281.2         315         270
 PW_GRID|   G-Rays                                  18.8          21          18
 PW_GRID|   Real Space Points                      281.2         320         180

 POISSON| Solver                                                        PERIODIC
 POISSON| Periodicity                                                        XYZ

 RS_GRID| Information for grid number                                          1
 RS_GRID|   Bounds   1            -40      39                Points:          80
 RS_GRID|   Bounds   2            -40      39                Points:          80
 RS_GRID|   Bounds   3            -48      47                Points:          96
 RS_GRID| Real space fully replicated
 RS_GRID| Group size                                                           1

 RS_GRID| Information for grid number                                          2
 RS_GRID|   Bounds   1            -22      22                Points:          45
 RS_GRID|   Bounds   2            -22      22                Points:          45
 RS_GRID|   Bounds   3            -30      29                Points:          60
 RS_GRID| Real space fully replicated
 RS_GRID| Group size                                                           1

 RS_GRID| Information for grid number                                          3
 RS_GRID|   Bounds   1            -12      12                Points:          25
 RS_GRID|   Bounds   2            -12      12                Points:          25
 RS_GRID|   Bounds   3            -16      15                Points:          32
 RS_GRID| Real space fully replicated
 RS_GRID| Group size                                                           1

 RS_GRID| Information for grid number                                          4
 RS_GRID|   Bounds   1             -7       7                Points:          15
 RS_GRID|   Bounds   2             -7       7                Points:          15
 RS_GRID|   Bounds   3            -10       9                Points:          20
 RS_GRID| Real space fully replicated
 RS_GRID| Group size                                                           1

 Number of electrons:                                                          4
 Number of occupied orbitals:                                                  2
 Number of molecular orbitals:                                                92

 Number of orbital functions:                                                 92
 Number of independent orbital functions:                                     92

 Extrapolation method: initial_guess

 Atomic guess: The first density matrix is obtained in terms of atomic orbitals
               and electronic configurations assigned to each atomic kind

 Guess for atomic kind: H

 Electronic structure
    Total number of core electrons                                          0.00
    Total number of valence electrons                                       1.00
    Total number of electrons                                               1.00
    Multiplicity                                                   not specified
    S      1.00


 *******************************************************************************
                  Iteration          Convergence                     Energy [au]
 *******************************************************************************
                          1        0.353010E-02                  -0.424371691503
                          2        0.413020E-03                  -0.424390003169
                          3        0.298155E-04                  -0.424390217543
                          4        0.282821E-07                  -0.424390218566

 Energy components [Hartree]           Total Energy ::           -0.424390218566
                                        Band Energy ::           -0.198177449726
                                     Kinetic Energy ::            0.463038392763
                                   Potential Energy ::           -0.887428611329
                                      Virial (-V/T) ::            1.916533542787
                                        Core Energy ::           -0.479836214499
                                          XC Energy ::           -0.245200383934
                                     Coulomb Energy ::            0.300646379868
                       Total Pseudopotential Energy ::           -0.961879571408
                       Local Pseudopotential Energy ::           -0.961879571408
                    Nonlocal Pseudopotential Energy ::            0.000000000000
                                        Confinement ::            0.190049641450

 Orbital energies  State     L     Occupation   Energy[a.u.]          Energy[eV]

                       1     0          1.000      -0.198177           -5.392683


 Total Electron Density at R=0:                                         0.235043
 Re-scaling the density matrix to get the right number of electrons
                  # Electrons              Trace(P)               Scaling factor
                            4                 4.000                        1.000


 SCF WAVEFUNCTION OPTIMIZATION

  Step     Update method      Time    Convergence         Total energy    Change
  ------------------------------------------------------------------------------
     1 NoMix/Diag. 0.50E-01   13.3     0.50285512        -1.9591373722 -1.96E+00
     2 Broy./Diag. 0.50E-01   14.5     0.00193666        -1.4745039505  4.85E-01
     3 Broy./Diag. 0.50E-01   14.5     0.05080789        -2.1629345193 -6.88E-01
     4 Broy./Diag. 0.50E-01   14.5     0.00561535        -2.2822512137 -1.19E-01
     5 Broy./Diag. 0.50E-01   14.5     0.00698928        -2.3307707143 -4.85E-02
     6 Broy./Diag. 0.50E-01   14.5     0.00631119        -2.3133908259  1.74E-02
     7 Broy./Diag. 0.50E-01   14.5     0.00039329        -2.3121186649  1.27E-03
     8 Broy./Diag. 0.50E-01   14.6     0.00655107        -2.3257620684 -1.36E-02
     9 Broy./Diag. 0.50E-01   14.5     0.00025528        -2.3321905815 -6.43E-03
    10 Broy./Diag. 0.50E-01   14.5     0.00500710        -2.3312550180  9.36E-04
    11 Broy./Diag. 0.50E-01   14.6     0.00213444        -2.3322563031 -1.00E-03
    12 Broy./Diag. 0.50E-01   14.5     0.00015975        -2.3329103347 -6.54E-04
    13 Broy./Diag. 0.50E-01   14.6     0.00181730        -2.3336375675 -7.27E-04
    14 Broy./Diag. 0.50E-01   14.5     0.00004149        -2.3337168117 -7.92E-05
    15 Broy./Diag. 0.50E-01   14.6     0.00071857        -2.3336947130  2.21E-05
    16 Broy./Diag. 0.50E-01   14.5     0.00007211        -2.3337376543 -4.29E-05
    17 Broy./Diag. 0.50E-01   14.6     0.00002817        -2.3337493530 -1.17E-05
    18 Broy./Diag. 0.50E-01   14.5     0.00002585        -2.3337477207  1.63E-06
    19 Broy./Diag. 0.50E-01   14.5     0.00000060        -2.3337368873  1.08E-05
    20 Broy./Diag. 0.50E-01   14.5     0.00001048        -2.3337349026  1.98E-06
    21 Broy./Diag. 0.50E-01   14.5     0.00000151        -2.3337316753  3.23E-06
    22 Broy./Diag. 0.50E-01   14.5     0.00000454        -2.3337307165  9.59E-07
    23 Broy./Diag. 0.50E-01   14.5     0.00000264        -2.3337298284  8.88E-07
    24 Broy./Diag. 0.50E-01   14.5     0.00000515        -2.3337303703 -5.42E-07
    25 Broy./Diag. 0.50E-01   14.5     0.00000020        -2.3337309240 -5.54E-07
    26 Broy./Diag. 0.50E-01   14.5     0.00000092        -2.3337306938  2.30E-07
    27 Broy./Diag. 0.50E-01   14.5     0.00000006        -2.3337304694  2.24E-07
    28 Broy./Diag. 0.50E-01   14.5     0.00000101        -2.3337299409  5.28E-07
    29 Broy./Diag. 0.50E-01   14.5     0.00000005        -2.3337298449  9.59E-08
    30 Broy./Diag. 0.50E-01   14.6     0.00000007        -2.3337298372  7.78E-09
    31 Broy./Diag. 0.50E-01   14.5     0.00000004        -2.3337298672 -3.01E-08
    32 Broy./Diag. 0.50E-01   14.5     0.00000002        -2.3337298425  2.47E-08
    33 Broy./Diag. 0.50E-01   14.5     0.00000011        -2.3337298202  2.24E-08
    34 Broy./Diag. 0.50E-01   14.5     0.00000001        -2.3337298191  1.07E-09
    35 Broy./Diag. 0.50E-01   14.5     0.00000009        -2.3337298158  3.32E-09
    36 Broy./Diag. 0.50E-01   14.6     0.00000007        -2.3337298298 -1.40E-08
    37 Broy./Diag. 0.50E-01   14.5     0.00000002        -2.3337298556 -2.58E-08
    38 Broy./Diag. 0.50E-01   14.5     0.00000003        -2.3337298746 -1.90E-08
    39 Broy./Diag. 0.50E-01   14.5     8.0705E-09        -2.3337298682  6.41E-09
    40 Broy./Diag. 0.50E-01   14.6     0.00000003        -2.3337298430  2.52E-08
    41 Broy./Diag. 0.50E-01   14.7     7.2286E-09        -2.3337298286  1.44E-08
    42 Broy./Diag. 0.50E-01   14.6     0.00000001        -2.3337298233  5.36E-09
    43 Broy./Diag. 0.50E-01   14.5     4.1220E-09        -2.3337298256 -2.31E-09
    44 Broy./Diag. 0.50E-01   14.5     2.1197E-09        -2.3337298254  1.40E-10
    45 Broy./Diag. 0.50E-01   14.6     3.7008E-09        -2.3337298255 -1.06E-10
    46 Broy./Diag. 0.50E-01   14.5     2.3076E-09        -2.3337298254  1.00E-10
    47 Broy./Diag. 0.50E-01   14.5     2.3121E-09        -2.3337298246  8.46E-10
    48 Broy./Diag. 0.50E-01   14.5     1.1610E-09        -2.3337298239  6.49E-10
    49 Broy./Diag. 0.50E-01   14.5     1.6271E-09        -2.3337298247 -7.51E-10
    50 Broy./Diag. 0.50E-01   14.6     1.1842E-09        -2.3337298271 -2.44E-09
    51 Broy./Diag. 0.50E-01   14.5     5.5771E-11        -2.3337298281 -9.48E-10

  *** SCF run converged in    51 steps ***


  Electronic density on regular grids:         -4.0000000000        0.0000000000
  Core density on regular grids:                4.0000000000       -0.0000000000
  Total charge density on r-space grids:        0.0000000000
  Total charge density g-space grids:           0.0000000000

  Overlap energy of the core charge distribution:               0.00000074652500
  Self energy of the core charge distribution:                 -5.64189583547756
  Core Hamiltonian energy:                                      1.94928055361258
  Hartree energy:                                               2.73689167370747
  Exchange-correlation energy:                                 -1.37800696643822

  Total energy:                                                -2.33372982807073

 !-----------------------------------------------------------------------------!
                     Mulliken Population Analysis

 #  Atom  Element  Kind  Atomic population                           Net charge
       1     H        1          1.000000                              0.000000
       2     H        1          1.000000                              0.000000
       3     H        1          1.000000                             -0.000000
       4     H        1          1.000000                             -0.000000
 # Total charge                              4.000000                  0.000000

 !-----------------------------------------------------------------------------!

 !-----------------------------------------------------------------------------!
                           Hirshfeld Charges

  #Atom  Element  Kind  Ref Charge     Population                    Net charge
      1       H      1       1.000          0.932                         0.068
      2       H      1       1.000          0.932                         0.068
      3       H      1       1.000          0.932                         0.068
      4       H      1       1.000          0.932                         0.068

  Total Charge                                                            0.271
 !-----------------------------------------------------------------------------!

 KPOINTS| Band Structure Calculation
 KPOINTS| Number of k-point sets                                               1
 KPOINTS| Number of added MOs/bands                                           -1
 KPOINTS| Number of k-points in set    1                                     148
 KPOINTS| In units of b-vector [2pi/Bohr]
 KPOINTS| Special point     1 not specifi     0.000000     0.000000     0.000000
 KPOINTS| Special point     2 not specifi     0.500000     0.000000     0.000000
 KPOINTS| Special point     3 not specifi     0.333333     0.333333     0.000000
 KPOINTS| Special point     4 not specifi     0.000000     0.000000     0.000000
 KPOINTS| Time for k-point line                                            4.925

 ENERGY| Total FORCE_EVAL ( QS ) energy [hartree]             -2.333729828070727

 -------------------------------------------------------------------------------
 -                                                                             -
 -                                DBCSR STATISTICS                             -
 -                                                                             -
 -------------------------------------------------------------------------------
 COUNTER                                    TOTAL       BLAS       SMM       ACC
 flops inhomo. stacks                           0       0.0%      0.0%      0.0%
 flops total                         0.000000E+00       0.0%      0.0%      0.0%
 flops max/rank                      0.000000E+00       0.0%      0.0%      0.0%
 matmuls inhomo. stacks                         0       0.0%      0.0%      0.0%
 matmuls total                                  0       0.0%      0.0%      0.0%
 number of processed stacks                     0       0.0%      0.0%      0.0%
 average stack size                                     0.0       0.0       0.0
 marketing flops                     0.000000E+00
 -------------------------------------------------------------------------------
 -                                                                             -
 -                      DBCSR MESSAGE PASSING PERFORMANCE                      -
 -                                                                             -
 -------------------------------------------------------------------------------
 ROUTINE             CALLS      AVE VOLUME [Bytes]
 MP_Bcast                1                     12.
 MP_Allreduce           19                     21.
 MP_Alltoall       1303316                   2949.
 -------------------------------------------------------------------------------

 -------------------------------------------------------------------------------
 -                                                                             -
 -                                DBM STATISTICS                               -
 -                                                                             -
 -------------------------------------------------------------------------------
    M  x    N  x    K                                          COUNT     PERCENT
 -------------------------------------------------------------------------------

 -------------------------------------------------------------------------------
 -                                                                             -
 -                                GRID STATISTICS                              -
 -                                                                             -
 -------------------------------------------------------------------------------
 LP    KERNEL             BACKEND                              COUNT     PERCENT
 4     collocate general  CPU                                8834384      50.49%
 4     integrate general  CPU                                8664492      49.51%
 0     collocate general  CPU                                      8       0.00%
 0     integrate general  CPU                                      4       0.00%
 -------------------------------------------------------------------------------

 MEMORY| Estimated peak process memory [MiB]                                 597

 -------------------------------------------------------------------------------
 ----                             MULTIGRID INFO                            ----
 -------------------------------------------------------------------------------
 count for grid        1:         165266          cutoff [a.u.]          500.00
 count for grid        2:          77852          cutoff [a.u.]          166.67
 count for grid        3:          66560          cutoff [a.u.]           55.56
 count for grid        4:         193926          cutoff [a.u.]           18.52
 total gridlevel count  :         503604

 -------------------------------------------------------------------------------
 -                                                                             -
 -                         MESSAGE PASSING PERFORMANCE                         -
 -                                                                             -
 -------------------------------------------------------------------------------

 ROUTINE             CALLS      AVE VOLUME [Bytes]
 MP_Group                6
 MP_Bcast           473773                    575.
 MP_Allreduce       947648                     19.
 MP_Sync                 4
 MP_Alltoall          1027                 158391.
 MP_SendRecv          3150                  98843.
 MP_ISendRecv         3075                  97866.
 MP_Wait            323831
 MP_comm_split           4
 MP_ISend           330844                   1029.
 MP_IRecv           552496                    619.
 -------------------------------------------------------------------------------


 -------------------------------------------------------------------------------
 -                                                                             -
 -                           R E F E R E N C E S                               -
 -                                                                             -
 -------------------------------------------------------------------------------
 
 CP2K version 2025.1 (Development Version), the CP2K developers group (2025).
 CP2K is freely available from https://www.cp2k.org/ .
 
 T. D. Kuehne, M. Iannuzzi, M. Del Ben, V. V. Rybkin, P. Seewald, F. Stein, T. 
 Laino, R. Z. Khaliullin, O. Schuett, F. Schiffmann, D. Golze, J. Wilhelm, S. 
 Chulkov, M. H. Bani-Hashemian, V. Weber, U. Borstnik, M. Taillefumier, A. S. 
 Jakobovits, A. Lazzaro, H. Pabst, T. Mueller, R. Schade, M. Guidon, S. 
 Andermatt, N. Holmberg, G. K. Schenter, A. Hehn, A. Bussy, F. Belleflamme, G. 
 Tabacchi, A. Gloess, M. Lass, I. Bethune, C. J. Mundy, C. Plessl, M. Watkins, 
 J. VandeVondele, M. Krack, J. Hutter.
 J. Chem. Phys. 152, 194103 (2020).
 CP2K: An electronic structure and molecular dynamics software package - 
 Quickstep: Efficient and accurate electronic structure calculations.
 https://doi.org/10.1063/5.0007045

 O. Schuett, P. Messmer, J. Hutter, J. VandeVondele.
 Electronic Structure Calculations on Graphics Processing Units, 173-190 (2016).
 GPU-Accelerated Sparse Matrix-Matrix Multiplication for Linear Scaling Density 
 Functional Theory.
 https://doi.org/10.1002/9781118670712.ch8

 J. Hutter, M. Iannuzzi, F. Schiffmann, J. VandeVondele.
 WIREs Comput Mol Sci. 4, 15-25 (2014).
 CP2K: atomistic simulations of condensed matter systems.
 https://doi.org/10.1002/wcms.1159

 U. Borstnik, J. VandeVondele, V. Weber, J. Hutter.
 Parallel Comput. 40, 47-58 (2014).
 Sparse matrix multiplication: The distributed block-compressed sparse row 
 library.
 https://doi.org/10.1016/j.parco.2014.03.012

 J. VandeVondele, J. Hutter.
 J. Chem. Phys. 127, 114105 (2007).
 Gaussian basis sets for accurate calculations on molecular systems in gas and 
 condensed phases.
 https://doi.org/10.1063/1.2770708

 J. VandeVondele, M. Krack, F. Mohamed, M. Parrinello, T. Chassaing, J. Hutter.
 Comput. Phys. Commun. 167, 103-128 (2005).
 QUICKSTEP: Fast and accurate density functional calculations using a mixed 
 Gaussian and plane waves approach.
 https://doi.org/10.1016/j.cpc.2004.12.014

 M. Krack.
 Theor. Chem. Acc. 114, 145-152 (2005).
 Pseudopotentials for H to Kr optimized for gradient-corrected 
 exchange-correlation functionals.
 https://doi.org/10.1007/s00214-005-0655-y

 M. Frigo, S. G. Johnson.
 Proc. IEEE 93, 216-231 (2005).
 The design and implementation of FFTW3.
 https://doi.org/10.1109/JPROC.2004.840301

 C. Hartwigsen, S. Goedecker, J. Hutter.
 Phys. Rev. B 58, 3641-3662 (1998).
 Relativistic separable dual-space Gaussian pseudopotentials from H to Rn.
 https://doi.org/10.1103/PhysRevB.58.3641

 G. Lippert, J. Hutter, M. Parrinello.
 Mol. Phys. 92, 477-487 (1997).
 A hybrid Gaussian and plane wave density functional scheme.
 https://doi.org/10.1080/002689797170220

 S. Goedecker, M. Teter, J. Hutter.
 Phys. Rev. B 54, 1703-1710 (1996).
 Separable dual-space Gaussian pseudopotentials.
 https://doi.org/10.1103/PhysRevB.54.1703

 J. P. Perdew, K. Burke, M. Ernzerhof.
 Phys. Rev. Lett. 77, 3865-3868 (1996).
 Generalized gradient approximation made simple.
 https://doi.org/10.1103/PhysRevLett.77.3865


 -------------------------------------------------------------------------------
 -                                                                             -
 -                                T I M I N G                                  -
 -                                                                             -
 -------------------------------------------------------------------------------
 SUBROUTINE                       CALLS  ASD         SELF TIME        TOTAL TIME
                                MAXIMUM       AVERAGE  MAXIMUM  AVERAGE  MAXIMUM
 CP2K                                 1  1.0    0.039    0.042  776.987  776.987
 qs_energies                          1  2.0    0.021    0.054  776.717  776.746
 scf_env_do_scf                       1  3.0    0.000    0.000  758.886  758.887
 scf_env_do_scf_inner_loop           51  4.0    0.277    0.289  758.886  758.886
 do_general_diag_kp                  52  5.9    0.319    0.376  618.374  660.585
 qs_scf_new_mos_kp                   51  5.0    0.000    0.001  613.603  655.803
 mp_alltoall_i22                 221670  8.7  244.754  608.395  244.754  608.395
 dbcsr_desymmetrize_deep         124187  7.4    1.992    2.159  186.826  450.903
 rskp_transform                   26408  7.0  220.580  360.716  220.580  360.716
 dbcsr_complete_redistribute      97483  8.1    3.511    3.759  101.854  201.222
 kpoint_density_transform            51  7.0    0.315    0.343  180.011  180.270
 copy_fm_to_dbcsr                 26112  8.0    0.169    0.187   75.378  173.967
 transform_dmat                   13056  8.0   98.880  166.016   98.880  166.016
 qs_ks_update_qs_env                 51  5.0    0.000    0.000   57.813   84.295
 rebuild_ks_matrix                   51  6.0    0.000    0.000   46.876   73.359
 qs_ks_build_kohn_sham_matrix        51  7.0    0.523    0.543   46.876   73.358
 sum_up_and_integrate                51  8.0    0.001    0.001   43.321   69.780
 integrate_v_rspace                  51  9.0    0.314    0.520   43.319   69.778
 grid_integrate_task_list            51 10.0   42.268   68.543   42.268   68.543
 transfer_rs2pw                     210  8.0    0.003    0.003   26.070   66.814
 transfer_rs2pw_500                  54  8.9    0.129    0.134   25.968   66.710
 mp_sendrecv_dv                    3150 10.0   25.910   66.654   25.910   66.654
 qs_rho_update_rho_low               52  5.0    0.000    0.000   62.276   62.526
 calculate_rho_elec                  52  6.0    0.045    0.078   62.275   62.525
 density_rs2pw                       52  7.0    0.002    0.002   24.443   62.357
 grid_collocate_task_list            52  7.0   37.784   61.349   37.784   61.349
 copy_dbcsr_to_fm                 71371  6.7    0.795    0.860   42.815   43.818
 write_kpoints_restart               51  5.0    0.144    0.165   17.440   17.440
 dbcsr_dot                       630871  8.0    2.959    3.374   11.917   13.627
 cp_fm_start_copy_general         78928  7.3    1.226    1.823   10.948   11.146
 evaluate_core_matrix_traces         51  6.0    0.000    0.000   10.936   10.936
 calculate_ptrace_kp                102  7.0    0.459    0.476   10.936   10.936
 mp_sum_d                        631699  9.0    7.680   10.865    7.680   10.865
 cp_dbcsr_alloc_block_from_nbl    43603  5.0    5.864    9.699    6.050    9.971
 dbcsr_finalize                  321246  7.9    1.156    1.248    7.974    8.755
 mp_cart_sub                     142745  8.7    8.259    8.351    8.259    8.351
 mp_alltoall_d11v                665010  9.2    6.997    7.547    6.997    7.547
 cp_fm_write_unformatted          18555  6.0    4.822    6.502    5.089    7.092
 mp_allgather_i                  157856  8.3    6.228    6.528    6.228    6.528
 qs_energies_init_hamiltonians        1  3.0    0.000    0.000    6.470    6.470
 self_consistency_check              51  5.0    0.445    0.469    5.855    6.242
 dbcsr_copy                      663167  6.6    3.872    4.203    5.396    5.836
 cp_sm_mix                       315435  6.0    1.012    1.215    4.915    5.408
 dbcsr_merge_all                  97483 10.1    2.388    3.006    4.328    5.017
 mp_alltoall_i11v                416636  8.9    4.760    4.950    4.760    4.950
 build_core_hamiltonian_matrix        1  4.0    0.022    0.023    3.128    4.891
 mp_cart_create                   71378  8.7    4.434    4.680    4.434    4.680
 qs_env_update_s_mstruct              1  4.0    0.000    0.000    2.701    4.670
 hybrid_alltoall_any             124187  8.4    0.527    0.554    4.376    4.662
 calculate_rho_core                   1  5.0    0.000    0.001    1.775    4.607
 init_scf_run                         1  3.0    0.000    0.000    2.683    4.377
 scf_env_initial_rho_setup            1  4.0    0.000    0.000    2.682    4.377
 mp_max_d                        315437  7.0    3.153    3.962    3.153    3.962
 dbcsr_create_new                993679  7.6    2.551    2.706    3.152    3.345
 mixing_allocate                      1  3.0    0.035    0.036    1.822    3.262
 calculate_first_density_matrix       1  5.0    0.004    0.004    1.457    3.152
 calculate_atomic_block_dm            1  6.0    0.001    0.001    1.444    3.140
 dbcsr_iterator_start           1557910  8.6    2.400    2.617    2.839    3.004
 cp_cfm_geeig                       853  6.9    0.007    0.008    2.780    2.814
 mp_bcast_iv                     315735  8.3    2.438    2.639    2.438    2.639
 dbcsr_work_create               221670  8.7    1.395    1.444    2.351    2.494
 cp_cfm_heevd                       853  7.9    0.001    0.002    2.162    2.193
 cp_cfm_heevd_base                  853  8.9    2.161    2.191    2.161    2.191
 dbcsr_iterator_stop            1557910  8.6    1.633    1.664    1.964    2.001
 dbcsr_data_new                 2457176  9.5    1.743    1.902    1.743    1.902
 mp_sum_iv                           24  5.3    0.947    1.810    0.947    1.810
 qs_scf_ensure_work_matrices          1  3.0    0.000    0.000    0.946    1.810
 mp_send_dv                       18555  7.0    0.230    1.807    0.230    1.807
 dbcsr_work_destroy_all          221670  9.7    1.086    1.112    1.639    1.700
 tree_to_linear_d                 97483 11.1    1.548    1.679    1.548    1.679
 copy_dbcsr_to_fm_bc              71371  7.7    0.705    0.743    1.555    1.584
 dbcsr_data_release             4263460  9.8    1.447    1.527    1.447    1.527
 build_overlap_matrix_low             1  5.0    0.058    0.075    0.927    1.441
 build_kinetic_matrix_low             1  5.0    0.058    0.076    0.926    1.440
 qs_env_rebuild_rho                   1  5.0    0.000    0.000    0.894    1.404
 qs_rho_rebuild                       1  6.0    0.017    0.018    0.894    1.404
 dbcsr_set                       818484  7.1    0.720    0.746    1.235    1.394
 calculate_ecore_overlap              1  4.0    0.000    0.000    0.528    1.392
 copy_fm_to_dbcsr_bc              26112  9.0    0.366    0.401    1.238    1.355
 dbcsr_destroy                   362809  7.5    0.621    0.664    1.217    1.318
 fft_wrap_pw1pw2                    923 10.0    0.007    0.008    0.897    1.206
 fft_wrap_pw1pw2_500                614 11.3    0.042    0.044    0.821    1.132
 fft3d_ps                           923 12.0    0.205    0.209    0.776    1.086
 potential_pw2rs                     51 10.0    0.002    0.003    0.736    1.047
 mp_alltoall_z22v                   923 14.0    0.499    0.812    0.499    0.812
 quick_finalize                  124187  9.4    0.407    0.431    0.760    0.805
 mp_comm_free                    214157  8.7    0.679    0.762    0.679    0.762
 mp_bcast_im                     157856  8.3    0.711    0.732    0.711    0.732
 yz_to_x                            361 13.1    0.018    0.019    0.386    0.695
 mp_waitall_1                    323831  8.4    0.367    0.682    0.367    0.682
 dbcsr_zero                      818484  8.1    0.515    0.652    0.515    0.652
 cp_fm_finish_copy_general        29524  7.9    0.498    0.539    0.562    0.633
 mp_recv_dv                       55665  7.0    0.037    0.591    0.037    0.591
 dbcsr_copy_into_existing         32297  9.2    0.288    0.369    0.473    0.558
 dbcsr_iterator_seek            1557910  9.6    0.439    0.500    0.439    0.500
 build_core_ppl                       1  5.0    0.280    0.493    0.280    0.493
 dbcsr_make_index_exist          993679  8.6    0.423    0.453    0.423    0.453
 qs_vxc_create                       51  8.0    0.001    0.001    0.438    0.440
 xc_vxc_pw_create                    51  9.0    0.018    0.018    0.438    0.439
 dbcsr_reserve_blocks             69715  7.9    0.275    0.370    0.323    0.435
 transfer_pw2rs                     205 11.0    0.001    0.002    0.393    0.394
 gspace_mixing                       50  5.0    0.014    0.014    0.383    0.384
 cp_cfm_triangular_multiply        2559  7.9    0.350    0.356    0.350    0.356
 broyden_mixing                      50  6.0    0.301    0.305    0.319    0.321
 dbcsr_sort_indices              291385 10.4    0.278    0.319    0.278    0.319
 transfer_pw2rs_500                  52 11.9    0.154    0.161    0.297    0.303
 xc_pw_derive                       306 11.0    0.001    0.001    0.280    0.281
 kpoint_density_matrices             51  7.0    0.016    0.016    0.257    0.261
 parallel_gemm_fm                  3264  8.0    0.003    0.003    0.232    0.236
 parallel_gemm_fm_gemm             3264  9.0    0.003    0.003    0.229    0.233
 cp_fm_gemm                        3264 10.0    0.226    0.230    0.226    0.230
 xc_rho_set_and_dset_create          51 10.0    0.013    0.014    0.226    0.228
 dbcsr_reserve_all_blocks         26112 10.0    0.045    0.054    0.199    0.226
 kpoint_init_cell_index               2  3.5    0.200    0.212    0.212    0.216
 merge_index                      97483 11.1    0.190    0.214    0.190    0.214
 mp_comm_size                    632370  9.0    0.156    0.196    0.156    0.196
 xc_pw_divergence                    51 10.0    0.001    0.001    0.187    0.188
 dbcsr_switch_data_area          124187 10.4    0.126    0.133    0.176    0.185
 mp_isend_dv                      78928  8.3    0.167    0.180    0.167    0.180
 kpoint_set_mo_occupation            51  7.0    0.063    0.063    0.129    0.174
 x_to_yz                            459 13.1    0.037    0.039    0.168    0.172
 mp_irecv_iv                     315712  8.3    0.010    0.168    0.010    0.168
 mp_comm_rank                    632370  9.0    0.142    0.161    0.142    0.161
 cp_cfm_cholesky_decompose          853  7.9    0.124    0.128    0.124    0.128
 cp_cfm_triangular_invert           853  7.9    0.119    0.123    0.119    0.123
 cp_fm_cleanup_copy_general       54448  7.0    0.079    0.081    0.116    0.119
 mp_isend_iv                     167944  8.3    0.016    0.118    0.016    0.118
 mp_sum_dm3                          51  8.0    0.066    0.111    0.066    0.111
 dbcsr_make_dbcsr_index          291385 10.4    0.092    0.104    0.092    0.104
 mp_isendrecv_dv                   3075 13.0    0.038    0.101    0.038    0.101
 dbcsr_get_data_size_used        221670  9.7    0.091    0.100    0.091    0.100
 dbcsr_distribution_new           97485  8.3    0.084    0.099    0.084    0.099
 parser_read_line                  3841  4.1    0.001    0.001    0.081    0.082
 parser_read_line_low                22  6.3    0.006    0.029    0.080    0.081
 mp_irecv_im2                    157856  8.3    0.005    0.079    0.005    0.079
 -------------------------------------------------------------------------------

 The number of warnings for this run is : 1
 
 -------------------------------------------------------------------------------
  **** **** ******  **  PROGRAM ENDED AT                 2025-08-06 05:43:11.533
 ***** ** ***  *** **   PROGRAM RAN ON                              i04r01c01s03
 **    ****   ******    PROGRAM RAN BY                                   di38fab
 ***** **    ** ** **   PROGRAM PROCESS ID                               1047591
  **** **  *******  **  PROGRAM STOPPED IN /hppfs/scratch/04/di38fab/09_GTH/Delt
                                           a_Set/H/aug-TZVP-MOLOPT-GTH-tier-2/8x
                                           8x8
