Ta                                      
   1.00000000000000     
     3.321690    0.000000    0.000000
     0.000000    3.321690    0.000000
     0.000000    0.000000    3.321690
   Ta
     2
Direct
  0.000000  0.000000  0.000000
  0.500000  0.500000  0.500000
 
   28   28   28
  158.47      156.55      149.85      136.48      115.70      89.476      62.318      39.265      23.418      14.772    
  10.904      9.1017      8.3138      8.0294      7.9659      8.0294      8.3138      9.1017      10.904      14.772    
  23.418      39.265      62.318      89.476      115.70      136.48      149.85      156.55      156.55      154.52    
  147.56      133.96      113.13      87.154      60.523      38.110      22.827      14.550      10.837      9.0888    
  8.3226      8.0442      7.9815      8.0442      8.3226      9.0888      10.837      14.550      22.827      38.110    
  60.523      87.154      113.13      133.96      147.56      154.52      149.85      147.56      140.02      125.94    
  105.23      80.237      55.300      34.821      21.183      13.942      10.647      9.0527      8.3480      8.0869    
  8.0265      8.0869      8.3480      9.0527      10.647      13.942      21.183      34.821      55.300      80.237    
  105.23      125.94      140.02      147.56      136.48      133.96      125.94      111.76      91.980      69.155    
  47.269      29.958      18.845      13.096      10.364      9.0004      8.3870      8.1513      8.0944      8.1513    
  8.3870      9.0004      10.364      13.096      18.845      29.958      47.269      69.155      91.980      111.76    
  125.94      133.96      115.70      113.13      105.23      91.980      74.457      55.240      37.682      24.443    
  16.323      12.176      10.031      8.9398      8.4329      8.2267      8.1738      8.2267      8.4329      8.9398    
  10.031      12.176      16.323      24.443      37.682      55.240      74.457      91.980      105.23      113.13    
  89.476      87.154      80.237      69.155      55.240      40.774      28.258      19.330      14.085      11.270    
  9.6961      8.8762      8.4748      8.2978      8.2489      8.2978      8.4748      8.8762      9.6961      11.270    
  14.085      19.330      28.258      40.774      55.240      69.155      80.237      87.154      62.318      60.523    
  55.300      47.269      37.682      28.258      20.578      15.390      12.323      10.464      9.3940      8.8100    
  8.4999      8.3483      8.3027      8.3483      8.4999      8.8100      9.3940      10.464      12.323      15.390    
  20.578      28.258      37.682      47.269      55.300      60.523      39.265      38.110      34.821      29.958    
  24.443      19.330      15.390      12.741      10.960      9.8226      9.1405      8.7369      8.4968      8.3650    
  8.3223      8.3650      8.4968      8.7369      9.1405      9.8226      10.960      12.741      15.390      19.330    
  24.443      29.958      34.821      38.110      23.418      22.827      21.183      18.845      16.323      14.085    
  12.323      10.960      9.9908      9.3487      8.9308      8.6505      8.4594      8.3427      8.3027      8.3427    
  8.4594      8.6505      8.9308      9.3487      9.9907      10.960      12.323      14.085      16.323      18.845    
  21.183      22.827      14.772      14.550      13.942      13.096      12.176      11.270      10.464      9.8226    
  9.3487      9.0061      8.7494      8.5469      8.3895      8.2856      8.2489      8.2856      8.3895      8.5469    
  8.7494      9.0061      9.3487      9.8226      10.464      11.270      12.176      13.096      13.942      14.550    
  10.904      10.837      10.647      10.364      10.031      9.6961      9.3940      9.1405      8.9308      8.7494    
  8.5828      8.4284      8.2968      8.2063      8.1738      8.2063      8.2968      8.4284      8.5828      8.7494    
  8.9308      9.1405      9.3940      9.6961      10.031      10.364      10.647      10.837      9.1017      9.0888    
  9.0527      9.0004      8.9398      8.8762      8.8100      8.7369      8.6505      8.5469      8.4284      8.3061    
  8.1972      8.1216      8.0944      8.1216      8.1972      8.3061      8.4284      8.5469      8.6505      8.7369    
  8.8100      8.8762      8.9398      9.0004      9.0527      9.0888      8.3138      8.3226      8.3480      8.3870    
  8.4329      8.4748      8.4999      8.4968      8.4594      8.3895      8.2968      8.1972      8.1088      8.0481    
  8.0265      8.0481      8.1088      8.1972      8.2968      8.3895      8.4594      8.4968      8.4999      8.4748    
  8.4329      8.3870      8.3480      8.3226      8.0294      8.0442      8.0869      8.1513      8.2267      8.2978    
  8.3483      8.3650      8.3427      8.2856      8.2063      8.1216      8.0481      7.9988      7.9815      7.9988    
  8.0481      8.1216      8.2063      8.2856      8.3427      8.3650      8.3483      8.2978      8.2267      8.1513    
  8.0869      8.0442      7.9659      7.9815      8.0265      8.0944      8.1738      8.2489      8.3027      8.3223    
  8.3027      8.2489      8.1738      8.0944      8.0265      7.9815      7.9659      7.9815      8.0265      8.0944    
  8.1738      8.2489      8.3027      8.3223      8.3027      8.2489      8.1738      8.0944      8.0265      7.9815    
  8.0294      8.0442      8.0869      8.1513      8.2267      8.2978      8.3483      8.3650      8.3427      8.2856    
  8.2063      8.1216      8.0481      7.9988      7.9815      7.9988      8.0481      8.1216      8.2063      8.2856    
  8.3427      8.3650      8.3483      8.2978      8.2267      8.1513      8.0869      8.0442      8.3138      8.3226    
  8.3480      8.3870      8.4329      8.4748      8.4999      8.4968      8.4594      8.3895      8.2968      8.1972    
  8.1088      8.0481      8.0265      8.0481      8.1088      8.1972      8.2968      8.3895      8.4594      8.4968    
  8.4999      8.4748      8.4329      8.3870      8.3480      8.3226      9.1017      9.0888      9.0527      9.0004    
  8.9398      8.8762      8.8100      8.7369      8.6505      8.5469      8.4284      8.3061      8.1972      8.1216    
  8.0944      8.1216      8.1972      8.3061      8.4284      8.5469      8.6505      8.7369      8.8100      8.8762    
  8.9398      9.0004      9.0527      9.0888      10.904      10.837      10.647      10.364      10.031      9.6961    
  9.3940      9.1405      8.9308      8.7494      8.5828      8.4284      8.2968      8.2063      8.1738      8.2063    
  8.2968      8.4284      8.5828      8.7494      8.9308      9.1405      9.3940      9.6961      10.031      10.364    
  10.647      10.837      14.772      14.550      13.942      13.096      12.176      11.270      10.464      9.8226    
  9.3487      9.0061      8.7494      8.5469      8.3895      8.2856      8.2489      8.2856      8.3895      8.5469    
  8.7494      9.0061      9.3487      9.8226      10.464      11.270      12.176      13.096      13.942      14.550    
  23.418      22.827      21.183      18.845      16.323      14.085      12.323      10.960      9.9907      9.3487    
  8.9308      8.6505      8.4594      8.3427      8.3027      8.3427      8.4594      8.6505      8.9308      9.3487    
  9.9908      10.960      12.323      14.085      16.323      18.845      21.183      22.827      39.265      38.110    
  34.821      29.958      24.443      19.330      15.390      12.741      10.960      9.8226      9.1405      8.7369    
  8.4968      8.3650      8.3223      8.3650      8.4968      8.7369      9.1405      9.8226      10.960      12.741    
  15.390      19.330      24.443      29.958      34.821      38.110      62.318      60.523      55.300      47.269    
  37.682      28.258      20.578      15.390      12.323      10.464      9.3940      8.8100      8.4999      8.3483    
  8.3027      8.3483      8.4999      8.8100      9.3940      10.464      12.323      15.390      20.578      28.258    
  37.682      47.269      55.300      60.523      89.476      87.154      80.237      69.155      55.240      40.774    
  28.258      19.330      14.085      11.270      9.6961      8.8762      8.4748      8.2978      8.2489      8.2978    
  8.4748      8.8762      9.6961      11.270      14.085      19.330      28.258      40.774      55.240      69.155    
  80.237      87.154      115.70      113.13      105.23      91.980      74.457      55.240      37.682      24.443    
  16.323      12.176      10.031      8.9398      8.4329      8.2267      8.1738      8.2267      8.4329      8.9398    
  10.031      12.176      16.323      24.443      37.682      55.240      74.457      91.980      105.23      113.13    
  136.48      133.96      125.94      111.76      91.980      69.155      47.269      29.958      18.845      13.096    
  10.364      9.0004      8.3870      8.1513      8.0944      8.1513      8.3870      9.0004      10.364      13.096    
  18.845      29.958      47.269      69.155      91.980      111.76      125.94      133.96      149.85      147.56    
  140.02      125.94      105.23      80.237      55.300      34.821      21.183      13.942      10.647      9.0527    
  8.3480      8.0869      8.0265      8.0869      8.3480      9.0527      10.647      13.942      21.183      34.821    
  55.300      80.237      105.23      125.94      140.02      147.56      156.55      154.52      147.56      133.96    
  113.13      87.154      60.523      38.110      22.827      14.550      10.837      9.0888      8.3226      8.0442    
  7.9815      8.0442      8.3226      9.0888      10.837      14.550      22.827      38.110      60.523      87.154    
  113.13      133.96      147.56      154.52      156.55      154.52      147.56      133.96      113.13      87.154    
  60.523      38.110      22.827      14.550      10.837      9.0888      8.3226      8.0442      7.9815      8.0442    
  8.3226      9.0888      10.837      14.550      22.827      38.110      60.523      87.154      113.13      133.96    
  147.56      154.52      154.52      152.39      145.20      131.39      110.54      84.852      58.762      36.988    
  22.261      14.341      10.774      9.0782      8.3331      8.0607      7.9988      8.0607      8.3331      9.0782    
  10.774      14.341      22.261      36.988      58.762      84.852      110.54      131.39      145.20      152.39    
  147.56      145.20      137.49      123.28      102.65      78.018      53.652      33.803      20.687      13.766    
  10.595      9.0487      8.3634      8.1077      8.0481      8.1077      8.3634      9.0487      10.595      13.766    
  20.687      33.803      53.652      78.018      102.65      123.28      137.49      145.20      133.96      131.39    
  123.28      109.11      89.525      67.132      45.832      29.111      18.455      12.965      10.327      9.0056    
  8.4088      8.1778      8.1216      8.1778      8.4088      9.0056      10.327      12.965      18.455      29.111    
  45.832      67.132      89.525      109.11      123.28      131.39      113.13      110.54      102.65      89.525    
  72.299      53.552      36.547      23.816      16.057      12.088      10.013      8.9549      8.4611      8.2587    
  8.2063      8.2587      8.4611      8.9549      10.013      12.088      16.057      23.816      36.547      53.552    
  72.299      89.525      102.65      110.54      87.154      84.852      78.018      67.132      53.552      39.527    
  27.475      18.932      13.930      11.219      9.6961      8.9005      8.5086      8.3342      8.2856      8.3342    
  8.5086      8.9005      9.6961      11.219      13.930      18.932      27.475      39.527      53.552      67.132    
  78.018      84.852      60.523      58.762      53.652      45.832      36.547      27.475      20.125      15.181    
  12.242      10.446      9.4100      8.8420      8.5380      8.3880      8.3427      8.3880      8.5380      8.8420    
  9.4100      10.446      12.242      15.181      20.125      27.475      36.547      45.832      53.652      58.762    
  38.110      36.988      33.803      29.111      23.816      18.932      15.181      12.648      10.929      9.8302    
  9.1688      8.7747      8.5382      8.4075      8.3650      8.4075      8.5382      8.7747      9.1688      9.8302    
  10.929      12.648      15.181      18.932      23.816      29.111      33.803      36.988      22.827      22.261    
  20.687      18.455      16.057      13.930      12.242      10.929      9.9947      9.3740      8.9675      8.6927    
  8.5038      8.3880      8.3483      8.3880      8.5038      8.6927      8.9675      9.3740      9.9947      10.929    
  12.242      13.930      16.057      18.455      20.687      22.261      14.550      14.341      13.766      12.965    
  12.088      11.219      10.446      9.8302      9.3740      9.0423      8.7916      8.5925      8.4370      8.3342    
  8.2978      8.3342      8.4370      8.5925      8.7916      9.0423      9.3740      9.8302      10.446      11.219    
  12.088      12.965      13.766      14.341      10.837      10.774      10.595      10.327      10.013      9.6961    
  9.4100      9.1688      8.9675      8.7916      8.6288      8.4772      8.3478      8.2587      8.2267      8.2587    
  8.3478      8.4772      8.6288      8.7916      8.9675      9.1688      9.4100      9.6961      10.013      10.327    
  10.595      10.774      9.0888      9.0782      9.0487      9.0056      8.9549      8.9005      8.8420      8.7747    
  8.6927      8.5925      8.4772      8.3578      8.2516      8.1778      8.1513      8.1778      8.2516      8.3578    
  8.4772      8.5925      8.6927      8.7747      8.8420      8.9005      8.9549      9.0056      9.0487      9.0782    
  8.3226      8.3331      8.3634      8.4088      8.4611      8.5086      8.5380      8.5382      8.5038      8.4370    
  8.3478      8.2516      8.1663      8.1077      8.0869      8.1077      8.1663      8.2516      8.3478      8.4370    
  8.5038      8.5382      8.5380      8.5086      8.4611      8.4088      8.3634      8.3331      8.0442      8.0607    
  8.1077      8.1778      8.2587      8.3342      8.3880      8.4075      8.3880      8.3342      8.2587      8.1778    
  8.1077      8.0607      8.0442      8.0607      8.1077      8.1778      8.2587      8.3342      8.3880      8.4075    
  8.3880      8.3342      8.2587      8.1778      8.1077      8.0607      7.9815      7.9988      8.0481      8.1216    
  8.2063      8.2856      8.3427      8.3650      8.3483      8.2978      8.2267      8.1513      8.0869      8.0442    
  8.0294      8.0442      8.0869      8.1513      8.2267      8.2978      8.3483      8.3650      8.3427      8.2856    
  8.2063      8.1216      8.0481      7.9988      8.0442      8.0607      8.1077      8.1778      8.2587      8.3342    
  8.3880      8.4075      8.3880      8.3342      8.2587      8.1778      8.1077      8.0607      8.0442      8.0607    
  8.1077      8.1778      8.2587      8.3342      8.3880      8.4075      8.3880      8.3342      8.2587      8.1778    
  8.1077      8.0607      8.3226      8.3331      8.3634      8.4088      8.4611      8.5086      8.5380      8.5382    
  8.5038      8.4370      8.3478      8.2516      8.1663      8.1077      8.0869      8.1077      8.1663      8.2516    
  8.3478      8.4370      8.5038      8.5382      8.5380      8.5086      8.4611      8.4088      8.3634      8.3331    
  9.0888      9.0782      9.0487      9.0056      8.9549      8.9005      8.8420      8.7747      8.6927      8.5925    
  8.4772      8.3578      8.2516      8.1778      8.1513      8.1778      8.2516      8.3578      8.4772      8.5925    
  8.6927      8.7747      8.8420      8.9005      8.9549      9.0056      9.0487      9.0782      10.837      10.774    
  10.595      10.327      10.013      9.6961      9.4100      9.1688      8.9675      8.7916      8.6288      8.4772    
  8.3478      8.2587      8.2267      8.2587      8.3478      8.4772      8.6288      8.7916      8.9675      9.1688    
  9.4100      9.6961      10.013      10.327      10.595      10.774      14.550      14.341      13.766      12.965    
  12.088      11.219      10.446      9.8302      9.3740      9.0423      8.7916      8.5925      8.4370      8.3342    
  8.2978      8.3342      8.4370      8.5925      8.7916      9.0423      9.3740      9.8302      10.446      11.219    
  12.088      12.965      13.766      14.341      22.827      22.261      20.687      18.455      16.057      13.930    
  12.242      10.929      9.9947      9.3740      8.9675      8.6927      8.5038      8.3880      8.3483      8.3880    
  8.5038      8.6927      8.9675      9.3740      9.9947      10.929      12.242      13.930      16.057      18.455    
  20.687      22.261      38.110      36.988      33.803      29.111      23.816      18.932      15.181      12.648    
  10.929      9.8302      9.1688      8.7747      8.5382      8.4075      8.3650      8.4075      8.5382      8.7747    
  9.1688      9.8302      10.929      12.648      15.181      18.932      23.816      29.111      33.803      36.988    
  60.523      58.762      53.652      45.832      36.547      27.475      20.125      15.181      12.242      10.446    
  9.4100      8.8420      8.5380      8.3880      8.3427      8.3880      8.5380      8.8420      9.4100      10.446    
  12.242      15.181      20.125      27.475      36.547      45.832      53.652      58.762      87.154      84.852    
  78.018      67.132      53.552      39.527      27.475      18.932      13.930      11.219      9.6961      8.9005    
  8.5086      8.3342      8.2856      8.3342      8.5086      8.9005      9.6961      11.219      13.930      18.932    
  27.475      39.527      53.552      67.132      78.018      84.852      113.13      110.54      102.65      89.525    
  72.299      53.552      36.547      23.816      16.057      12.088      10.013      8.9549      8.4611      8.2587    
  8.2063      8.2587      8.4611      8.9549      10.013      12.088      16.057      23.816      36.547      53.552    
  72.299      89.525      102.65      110.54      133.96      131.39      123.28      109.11      89.525      67.132    
  45.832      29.111      18.455      12.965      10.327      9.0056      8.4088      8.1778      8.1216      8.1778    
  8.4088      9.0056      10.327      12.965      18.455      29.111      45.832      67.132      89.525      109.11    
  123.28      131.39      147.56      145.20      137.49      123.28      102.65      78.018      53.652      33.803    
  20.687      13.766      10.595      9.0487      8.3634      8.1077      8.0481      8.1077      8.3634      9.0487    
  10.595      13.766      20.687      33.803      53.652      78.018      102.65      123.28      137.49      145.20    
  154.52      152.39      145.20      131.39      110.54      84.852      58.762      36.988      22.261      14.341    
  10.774      9.0782      8.3331      8.0607      7.9988      8.0607      8.3331      9.0782      10.774      14.341    
  22.261      36.988      58.762      84.852      110.54      131.39      145.20      152.39      149.85      147.56    
  140.02      125.94      105.23      80.237      55.300      34.821      21.183      13.942      10.647      9.0527    
  8.3480      8.0869      8.0265      8.0869      8.3480      9.0527      10.647      13.942      21.183      34.821    
  55.300      80.237      105.23      125.94      140.02      147.56      147.56      145.20      137.49      123.28    
  102.65      78.018      53.652      33.803      20.687      13.766      10.595      9.0487      8.3634      8.1077    
  8.0481      8.1077      8.3634      9.0487      10.595      13.766      20.687      33.803      53.652      78.018    
  102.65      123.28      137.49      145.20      140.02      137.49      129.41      115.06      94.902      71.492    
  48.907      30.929      19.314      13.281      10.445      9.0372      8.4066      8.1663      8.1088      8.1663    
  8.4066      9.0372      10.445      13.281      19.314      30.929      48.907      71.492      94.902      115.06    
  129.41      137.49      125.94      123.28      115.06      101.07      82.251      61.255      41.733      26.741    
  17.384      12.603      10.223      9.0195      8.4695      8.2516      8.1972      8.2516      8.4695      9.0195    
  10.223      12.603      17.384      26.741      41.733      61.255      82.251      101.07      115.06      123.28    
  105.23      102.65      94.902      82.251      66.013      48.715      33.349      22.079      15.328      11.840    
  9.9606      8.9967      8.5399      8.3478      8.2968      8.3478      8.5399      8.9967      9.9606      11.840    
  15.328      22.079      33.349      48.715      66.013      82.251      94.902      102.65      80.237      78.018    
  71.492      61.255      48.715      36.008      25.297      17.841      13.503      11.074      9.6960      8.9690    
  8.6038      8.4370      8.3895      8.4370      8.6038      8.9690      9.6960      11.074      13.503      17.841    
  25.297      36.008      48.715      61.255      71.492      78.018      55.300      53.652      48.907      41.733    
  33.349      25.297      18.883      14.611      12.013      10.395      9.4563      8.9342      8.6484      8.5038    
  8.4594      8.5038      8.6484      8.9342      9.4563      10.395      12.013      14.611      18.883      25.297    
  33.349      41.733      48.907      53.652      34.821      33.803      30.929      26.741      22.079      17.841    
  14.611      12.384      10.842      9.8539      9.2528      8.8881      8.6644      8.5382      8.4968      8.5382    
  8.6644      8.8881      9.2528      9.8539      10.842      12.384      14.611      17.841      22.079      26.741    
  30.929      33.803      21.183      20.687      19.314      17.384      15.328      13.503      12.013      10.842    
  10.009      9.4514      9.0813      8.8264      8.6484      8.5380      8.4999      8.5380      8.6484      8.8264    
  9.0813      9.4514      10.009      10.842      12.013      13.503      15.328      17.384      19.314      20.687    
  13.942      13.766      13.281      12.603      11.840      11.074      10.395      9.8539      9.4514      9.1558    
  8.9294      8.7473      8.6038      8.5086      8.4748      8.5086      8.6038      8.7473      8.9294      9.1558    
  9.4514      9.8539      10.395      11.074      11.840      12.603      13.281      13.766      10.647      10.595    
  10.445      10.223      9.9606      9.6960      9.4563      9.2528      9.0813      8.9294      8.7873      8.6541    
  8.5399      8.4611      8.4329      8.4611      8.5399      8.6541      8.7873      8.9294      9.0813      9.2528    
  9.4563      9.6960      9.9606      10.223      10.445      10.595      9.0527      9.0487      9.0372      9.0195    
  8.9967      8.9690      8.9342      8.8881      8.8264      8.7473      8.6541      8.5566      8.4695      8.4088    
  8.3870      8.4088      8.4695      8.5566      8.6541      8.7473      8.8264      8.8881      8.9342      8.9690    
  8.9967      9.0195      9.0372      9.0487      8.3480      8.3634      8.4066      8.4695      8.5399      8.6038    
  8.6484      8.6644      8.6484      8.6038      8.5399      8.4695      8.4066      8.3634      8.3480      8.3634    
  8.4066      8.4695      8.5399      8.6038      8.6484      8.6644      8.6484      8.6038      8.5399      8.4695    
  8.4066      8.3634      8.0869      8.1077      8.1663      8.2516      8.3478      8.4370      8.5038      8.5382    
  8.5380      8.5086      8.4611      8.4088      8.3634      8.3331      8.3226      8.3331      8.3634      8.4088    
  8.4611      8.5086      8.5380      8.5382      8.5038      8.4370      8.3478      8.2516      8.1663      8.1077    
  8.0265      8.0481      8.1088      8.1972      8.2968      8.3895      8.4594      8.4968      8.4999      8.4748    
  8.4329      8.3870      8.3480      8.3226      8.3138      8.3226      8.3480      8.3870      8.4329      8.4748    
  8.4999      8.4968      8.4594      8.3895      8.2968      8.1972      8.1088      8.0481      8.0869      8.1077    
  8.1663      8.2516      8.3478      8.4370      8.5038      8.5382      8.5380      8.5086      8.4611      8.4088    
  8.3634      8.3331      8.3226      8.3331      8.3634      8.4088      8.4611      8.5086      8.5380      8.5382    
  8.5038      8.4370      8.3478      8.2516      8.1663      8.1077      8.3480      8.3634      8.4066      8.4695    
  8.5399      8.6038      8.6484      8.6644      8.6484      8.6038      8.5399      8.4695      8.4066      8.3634    
  8.3480      8.3634      8.4066      8.4695      8.5399      8.6038      8.6484      8.6644      8.6484      8.6038    
  8.5399      8.4695      8.4066      8.3634      9.0527      9.0487      9.0372      9.0195      8.9967      8.9690    
  8.9342      8.8881      8.8264      8.7473      8.6541      8.5566      8.4695      8.4088      8.3870      8.4088    
  8.4695      8.5566      8.6541      8.7473      8.8264      8.8881      8.9342      8.9690      8.9967      9.0195    
  9.0372      9.0487      10.647      10.595      10.445      10.223      9.9606      9.6960      9.4563      9.2528    
  9.0813      8.9294      8.7873      8.6541      8.5399      8.4611      8.4329      8.4611      8.5399      8.6541    
  8.7873      8.9294      9.0813      9.2528      9.4563      9.6960      9.9606      10.223      10.445      10.595    
  13.942      13.766      13.281      12.603      11.840      11.074      10.395      9.8539      9.4514      9.1558    
  8.9294      8.7473      8.6038      8.5086      8.4748      8.5086      8.6038      8.7473      8.9294      9.1558    
  9.4514      9.8539      10.395      11.074      11.840      12.603      13.281      13.766      21.183      20.687    
  19.314      17.384      15.328      13.503      12.013      10.842      10.009      9.4514      9.0813      8.8264    
  8.6484      8.5380      8.4999      8.5380      8.6484      8.8264      9.0813      9.4514      10.009      10.842    
  12.013      13.503      15.328      17.384      19.314      20.687      34.821      33.803      30.929      26.741    
  22.079      17.841      14.611      12.384      10.842      9.8539      9.2528      8.8881      8.6644      8.5382    
  8.4968      8.5382      8.6644      8.8881      9.2528      9.8539      10.842      12.384      14.611      17.841    
  22.079      26.741      30.929      33.803      55.300      53.652      48.907      41.733      33.349      25.297    
  18.883      14.611      12.013      10.395      9.4563      8.9342      8.6484      8.5038      8.4594      8.5038    
  8.6484      8.9342      9.4563      10.395      12.013      14.611      18.883      25.297      33.349      41.733    
  48.907      53.652      80.237      78.018      71.492      61.255      48.715      36.008      25.297      17.841    
  13.503      11.074      9.6960      8.9690      8.6038      8.4370      8.3895      8.4370      8.6038      8.9690    
  9.6960      11.074      13.503      17.841      25.297      36.008      48.715      61.255      71.492      78.018    
  105.23      102.65      94.902      82.251      66.013      48.715      33.349      22.079      15.328      11.840    
  9.9606      8.9967      8.5399      8.3478      8.2968      8.3478      8.5399      8.9967      9.9606      11.840    
  15.328      22.079      33.349      48.715      66.013      82.251      94.902      102.65      125.94      123.28    
  115.06      101.07      82.251      61.255      41.733      26.741      17.384      12.603      10.223      9.0195    
  8.4695      8.2516      8.1972      8.2516      8.4695      9.0195      10.223      12.603      17.384      26.741    
  41.733      61.255      82.251      101.07      115.06      123.28      140.02      137.49      129.41      115.06    
  94.902      71.492      48.907      30.929      19.314      13.281      10.445      9.0372      8.4066      8.1663    
  8.1088      8.1663      8.4066      9.0372      10.445      13.281      19.314      30.929      48.907      71.492    
  94.902      115.06      129.41      137.49      147.56      145.20      137.49      123.28      102.65      78.018    
  53.652      33.803      20.687      13.766      10.595      9.0487      8.3634      8.1077      8.0481      8.1077    
  8.3634      9.0487      10.595      13.766      20.687      33.803      53.652      78.018      102.65      123.28    
  137.49      145.20      136.48      133.96      125.94      111.76      91.980      69.155      47.269      29.958    
  18.845      13.096      10.364      9.0004      8.3870      8.1513      8.0944      8.1513      8.3870      9.0004    
  10.364      13.096      18.845      29.958      47.269      69.155      91.980      111.76      125.94      133.96    
  133.96      131.39      123.28      109.11      89.525      67.132      45.832      29.111      18.455      12.965    
  10.327      9.0056      8.4088      8.1778      8.1216      8.1778      8.4088      9.0056      10.327      12.965    
  18.455      29.111      45.832      67.132      89.525      109.11      123.28      131.39      125.94      123.28    
  115.06      101.07      82.251      61.255      41.733      26.741      17.384      12.603      10.223      9.0195    
  8.4695      8.2516      8.1972      8.2516      8.4695      9.0195      10.223      12.603      17.384      26.741    
  41.733      61.255      82.251      101.07      115.06      123.28      111.76      109.11      101.07      87.846    
  70.697      52.235      35.651      23.343      15.896      12.081      10.066      9.0381      8.5566      8.3578    