Ta                                      
   1.00000000000000     
     3.321690    0.000000    0.000000
     0.000000    3.321690    0.000000
     0.000000    0.000000    3.321690
   Ta
     2
Direct
  0.000000  0.000000  0.000000
  0.500000  0.500000  0.500000
 
   28   28   28
 0.15846947585E+03 0.15654671893E+03 0.14984537511E+03 0.13648464727E+03 0.11570324580E+03
 0.89475577397E+02 0.62318296420E+02 0.39264887507E+02 0.23417560975E+02 0.14772484043E+02
 0.10903821152E+02 0.91016713885E+01 0.83138474116E+01 0.80294438620E+01 0.79658607068E+01
 0.80294438620E+01 0.83138474116E+01 0.91016713885E+01 0.10903821152E+02 0.14772484043E+02
 0.23417560975E+02 0.39264887507E+02 0.62318296420E+02 0.89475577397E+02 0.11570324580E+03
 0.13648464727E+03 0.14984537511E+03 0.15654671893E+03 0.15654671893E+03 0.15451842637E+03
 0.14756234040E+03 0.13395763947E+03 0.11312702768E+03 0.87154098170E+02 0.60522871173E+02
 0.38109511245E+02 0.22827276601E+02 0.14550481189E+02 0.10837091402E+02 0.90887630221E+01
 0.83225861175E+01 0.80442480317E+01 0.79815060435E+01 0.80442479243E+01 0.83225859251E+01
 0.90887627585E+01 0.10837091026E+02 0.14550480574E+02 0.22827275640E+02 0.38109510045E+02
 0.60522870257E+02 0.87154098454E+02 0.11312702998E+03 0.13395764374E+03 0.14756234524E+03
 0.15451842963E+03 0.14984537511E+03 0.14756234040E+03 0.14001749686E+03 0.12593507664E+03
 0.10522805748E+03 0.80236699130E+02 0.55299948959E+02 0.34820738963E+02 0.21182723679E+02
 0.13942219550E+02 0.10647244424E+02 0.90527299541E+01 0.83480099996E+01 0.80868525874E+01
 0.80264816999E+01 0.80868523994E+01 0.83480096587E+01 0.90527294824E+01 0.10647243754E+02
 0.13942218463E+02 0.21182721943E+02 0.34820736669E+02 0.55299946878E+02 0.80236698734E+02
 0.10522806020E+03 0.12593508256E+03 0.14001750393E+03 0.14756234524E+03 0.13648464727E+03
 0.13395763947E+03 0.12593507664E+03 0.11176291844E+03 0.91980052044E+02 0.69154794335E+02
 0.47269071871E+02 0.29957794032E+02 0.18844853948E+02 0.13096100558E+02 0.10364052594E+02
 0.90004364997E+01 0.83870238556E+01 0.81512991503E+01 0.80944063462E+01 0.81512989169E+01
 0.83870234216E+01 0.90004358860E+01 0.10364051733E+02 0.13096099200E+02 0.18844851750E+02
 0.29957790934E+02 0.47269068538E+02 0.69154792283E+02 0.91980052945E+02 0.11176292273E+03
 0.12593508256E+03 0.13395764374E+03 0.11570324580E+03 0.11312702768E+03 0.10522805748E+03
 0.91980052043E+02 0.74457408298E+02 0.55240329155E+02 0.37682120718E+02 0.24442532062E+02
 0.16323100612E+02 0.12175622678E+02 0.10031383264E+02 0.89398050193E+01 0.84328679556E+01
 0.82266913635E+01 0.81737937210E+01 0.82266911055E+01 0.84328674568E+01 0.89398042914E+01
 0.10031382261E+02 0.12175621201E+02 0.16323098280E+02 0.24442528638E+02 0.37682116540E+02
 0.55240325387E+02 0.74457406477E+02 0.91980052949E+02 0.10522806020E+03 0.11312702999E+03
 0.89475577397E+02 0.87154098168E+02 0.80236699127E+02 0.69154794333E+02 0.55240329154E+02
 0.40773984182E+02 0.28258110922E+02 0.19330316048E+02 0.14085182116E+02 0.11270089522E+02
 0.96960839863E+01 0.88761982484E+01 0.84747968802E+01 0.82978369193E+01 0.82488575721E+01
 0.82978366313E+01 0.84747963032E+01 0.88761973831E+01 0.96960828220E+01 0.11270087963E+02
 0.14085179874E+02 0.19330312792E+02 0.28258106673E+02 0.40773979604E+02 0.55240325391E+02
 0.69154792290E+02 0.80236698741E+02 0.87154098457E+02 0.62318296420E+02 0.60522871170E+02
 0.55299948954E+02 0.47269071868E+02 0.37682120715E+02 0.28258110921E+02 0.20577700929E+02
 0.15389653148E+02 0.12322941113E+02 0.10464372122E+02 0.93940310980E+01 0.88100355977E+01
 0.84999127264E+01 0.83482800871E+01 0.83027356712E+01 0.83482797454E+01 0.84999120329E+01
 0.88100345517E+01 0.93940297261E+01 0.10464370439E+02 0.12322939009E+02 0.15389650353E+02
 0.20577697286E+02 0.28258106677E+02 0.37682116547E+02 0.47269068547E+02 0.55299946886E+02
 0.60522870262E+02 0.39264887507E+02 0.38109511241E+02 0.34820738958E+02 0.29957794028E+02
 0.24442532060E+02 0.19330316047E+02 0.15389653148E+02 0.12740982117E+02 0.10960362011E+02
 0.98225990330E+01 0.91405498055E+01 0.87369323689E+01 0.84967926666E+01 0.83649892031E+01
 0.83223429677E+01 0.83649887860E+01 0.84967918286E+01 0.87369311248E+01 0.91405482161E+01
 0.98225971929E+01 0.10960359967E+02 0.12740979782E+02 0.15389650354E+02 0.19330312797E+02
 0.24442528645E+02 0.29957790943E+02 0.34820736677E+02 0.38109510049E+02 0.23417560975E+02
 0.22827276598E+02 0.21182723675E+02 0.18844853945E+02 0.16323100609E+02 0.14085182115E+02
 0.12322941113E+02 0.10960362010E+02 0.99907501542E+01 0.93486571034E+01 0.89308101361E+01
 0.86505231651E+01 0.84593767782E+01 0.83426581672E+01 0.83027356714E+01 0.83426576730E+01
 0.84593758057E+01 0.86505217588E+01 0.89308083873E+01 0.93486551478E+01 0.99907481252E+01
 0.10960359968E+02 0.12322939011E+02 0.14085179878E+02 0.16323098286E+02 0.18844851757E+02
 0.21182721949E+02 0.22827275644E+02 0.14772484043E+02 0.14550481188E+02 0.13942219548E+02
 0.13096100556E+02 0.12175622677E+02 0.11270089521E+02 0.10464372122E+02 0.98225990328E+01
 0.93486571032E+01 0.90061351712E+01 0.87493748711E+01 0.85468547955E+01 0.83894532111E+01
 0.82855822454E+01 0.82488575723E+01 0.82855817005E+01 0.83894521602E+01 0.85468533163E+01
 0.87493730808E+01 0.90061332198E+01 0.93486551480E+01 0.98225971934E+01 0.10464370440E+02
 0.11270087966E+02 0.12175621205E+02 0.13096099204E+02 0.13942218466E+02 0.14550480576E+02
 0.10903821152E+02 0.10837091402E+02 0.10647244423E+02 0.10364052593E+02 0.10031383263E+02
 0.96960839861E+01 0.93940310977E+01 0.91405498050E+01 0.89308101354E+01 0.87493748706E+01
 0.85827588767E+01 0.84284372592E+01 0.82968273154E+01 0.82062727533E+01 0.81737937212E+01
 0.82062722068E+01 0.82968262778E+01 0.84284358319E+01 0.85827571932E+01 0.87493730811E+01
 0.89308083876E+01 0.91405482165E+01 0.93940297267E+01 0.96960828228E+01 0.10031382262E+02
 0.10364051735E+02 0.10647243756E+02 0.10837091026E+02 0.91016713885E+01 0.90887630220E+01
 0.90527299541E+01 0.90004364999E+01 0.89398050195E+01 0.88761982485E+01 0.88100355974E+01
 0.87369323682E+01 0.86505231641E+01 0.85468547946E+01 0.84284372587E+01 0.83060569297E+01
 0.81972421575E+01 0.81215702539E+01 0.80944063463E+01 0.81215697669E+01 0.81972412428E+01
 0.83060556929E+01 0.84284358322E+01 0.85468533168E+01 0.86505217593E+01 0.87369311252E+01
 0.88100345520E+01 0.88761973832E+01 0.89398042915E+01 0.90004358862E+01 0.90527294825E+01
 0.90887627586E+01 0.83138474116E+01 0.83225861177E+01 0.83480100000E+01 0.83870238561E+01
 0.84328679560E+01 0.84747968804E+01 0.84999127262E+01 0.84967926659E+01 0.84593767772E+01
 0.83894532101E+01 0.82968273147E+01 0.81972421572E+01 0.81088224935E+01 0.80480870092E+01
 0.80264817000E+01 0.80480866426E+01 0.81088218094E+01 0.81972412429E+01 0.82968262782E+01
 0.83894521606E+01 0.84593758063E+01 0.84967918290E+01 0.84999120332E+01 0.84747963032E+01
 0.84328674566E+01 0.83870234213E+01 0.83480096584E+01 0.83225859250E+01 0.80294438620E+01
 0.80442480319E+01 0.80868525877E+01 0.81512991506E+01 0.82266913639E+01 0.82978369196E+01
 0.83482800870E+01 0.83649892027E+01 0.83426581665E+01 0.82855822447E+01 0.82062727528E+01
 0.81215702536E+01 0.80480870091E+01 0.79987911567E+01 0.79815060435E+01 0.79987909596E+01
 0.80480866426E+01 0.81215697670E+01 0.82062722070E+01 0.82855817008E+01 0.83426576734E+01
 0.83649887863E+01 0.83482797457E+01 0.82978366314E+01 0.82266911054E+01 0.81512989167E+01
 0.80868523992E+01 0.80442479242E+01 0.79658607068E+01 0.79815060435E+01 0.80264817000E+01
 0.80944063463E+01 0.81737937212E+01 0.82488575723E+01 0.83027356714E+01 0.83223429677E+01
 0.83027356712E+01 0.82488575721E+01 0.81737937210E+01 0.80944063462E+01 0.80264816999E+01
 0.79815060435E+01 0.79658607068E+01 0.79815060435E+01 0.80264816999E+01 0.80944063462E+01
 0.81737937210E+01 0.82488575721E+01 0.83027356712E+01 0.83223429677E+01 0.83027356714E+01
 0.82488575723E+01 0.81737937212E+01 0.80944063463E+01 0.80264817000E+01 0.79815060435E+01
 0.80294438620E+01 0.80442479242E+01 0.80868523992E+01 0.81512989167E+01 0.82266911054E+01
 0.82978366314E+01 0.83482797457E+01 0.83649887863E+01 0.83426576734E+01 0.82855817008E+01
 0.82062722070E+01 0.81215697670E+01 0.80480866426E+01 0.79987909596E+01 0.79815060435E+01
 0.79987911567E+01 0.80480870091E+01 0.81215702536E+01 0.82062727528E+01 0.82855822447E+01
 0.83426581665E+01 0.83649892027E+01 0.83482800870E+01 0.82978369196E+01 0.82266913639E+01
 0.81512991506E+01 0.80868525877E+01 0.80442480319E+01 0.83138474116E+01 0.83225859250E+01
 0.83480096584E+01 0.83870234213E+01 0.84328674566E+01 0.84747963032E+01 0.84999120332E+01
 0.84967918290E+01 0.84593758063E+01 0.83894521606E+01 0.82968262782E+01 0.81972412429E+01
 0.81088218094E+01 0.80480866426E+01 0.80264817000E+01 0.80480870092E+01 0.81088224935E+01
 0.81972421572E+01 0.82968273147E+01 0.83894532101E+01 0.84593767772E+01 0.84967926659E+01
 0.84999127262E+01 0.84747968804E+01 0.84328679560E+01 0.83870238561E+01 0.83480100000E+01
 0.83225861177E+01 0.91016713885E+01 0.90887627586E+01 0.90527294825E+01 0.90004358862E+01
 0.89398042915E+01 0.88761973832E+01 0.88100345520E+01 0.87369311252E+01 0.86505217593E+01
 0.85468533168E+01 0.84284358322E+01 0.83060556929E+01 0.81972412428E+01 0.81215697669E+01
 0.80944063463E+01 0.81215702539E+01 0.81972421575E+01 0.83060569297E+01 0.84284372587E+01
 0.85468547946E+01 0.86505231641E+01 0.87369323682E+01 0.88100355974E+01 0.88761982485E+01
 0.89398050195E+01 0.90004364999E+01 0.90527299541E+01 0.90887630220E+01 0.10903821152E+02
 0.10837091026E+02 0.10647243756E+02 0.10364051735E+02 0.10031382262E+02 0.96960828228E+01
 0.93940297267E+01 0.91405482165E+01 0.89308083876E+01 0.87493730811E+01 0.85827571932E+01
 0.84284358319E+01 0.82968262778E+01 0.82062722068E+01 0.81737937212E+01 0.82062727533E+01
 0.82968273154E+01 0.84284372592E+01 0.85827588767E+01 0.87493748706E+01 0.89308101354E+01
 0.91405498050E+01 0.93940310977E+01 0.96960839861E+01 0.10031383263E+02 0.10364052593E+02
 0.10647244423E+02 0.10837091402E+02 0.14772484043E+02 0.14550480576E+02 0.13942218466E+02
 0.13096099204E+02 0.12175621205E+02 0.11270087966E+02 0.10464370440E+02 0.98225971934E+01
 0.93486551480E+01 0.90061332198E+01 0.87493730808E+01 0.85468533163E+01 0.83894521602E+01
 0.82855817005E+01 0.82488575723E+01 0.82855822454E+01 0.83894532111E+01 0.85468547955E+01
 0.87493748711E+01 0.90061351712E+01 0.93486571032E+01 0.98225990328E+01 0.10464372122E+02
 0.11270089521E+02 0.12175622677E+02 0.13096100556E+02 0.13942219548E+02 0.14550481188E+02
 0.23417560975E+02 0.22827275644E+02 0.21182721949E+02 0.18844851757E+02 0.16323098286E+02
 0.14085179878E+02 0.12322939011E+02 0.10960359968E+02 0.99907481252E+01 0.93486551478E+01
 0.89308083873E+01 0.86505217588E+01 0.84593758057E+01 0.83426576730E+01 0.83027356714E+01
 0.83426581672E+01 0.84593767782E+01 0.86505231651E+01 0.89308101361E+01 0.93486571034E+01
 0.99907501542E+01 0.10960362010E+02 0.12322941113E+02 0.14085182115E+02 0.16323100609E+02
 0.18844853945E+02 0.21182723675E+02 0.22827276598E+02 0.39264887507E+02 0.38109510049E+02
 0.34820736677E+02 0.29957790943E+02 0.24442528645E+02 0.19330312797E+02 0.15389650354E+02
 0.12740979782E+02 0.10960359967E+02 0.98225971929E+01 0.91405482161E+01 0.87369311248E+01
 0.84967918286E+01 0.83649887860E+01 0.83223429677E+01 0.83649892031E+01 0.84967926666E+01
 0.87369323689E+01 0.91405498055E+01 0.98225990330E+01 0.10960362011E+02 0.12740982117E+02
 0.15389653148E+02 0.19330316047E+02 0.24442532060E+02 0.29957794028E+02 0.34820738958E+02
 0.38109511241E+02 0.62318296420E+02 0.60522870262E+02 0.55299946886E+02 0.47269068547E+02
 0.37682116547E+02 0.28258106677E+02 0.20577697286E+02 0.15389650353E+02 0.12322939009E+02
 0.10464370439E+02 0.93940297261E+01 0.88100345517E+01 0.84999120329E+01 0.83482797454E+01
 0.83027356712E+01 0.83482800871E+01 0.84999127264E+01 0.88100355977E+01 0.93940310980E+01
 0.10464372122E+02 0.12322941113E+02 0.15389653148E+02 0.20577700929E+02 0.28258110921E+02
 0.37682120715E+02 0.47269071868E+02 0.55299948954E+02 0.60522871170E+02 0.89475577397E+02
 0.87154098457E+02 0.80236698741E+02 0.69154792290E+02 0.55240325391E+02 0.40773979604E+02
 0.28258106673E+02 0.19330312792E+02 0.14085179874E+02 0.11270087963E+02 0.96960828220E+01
 0.88761973831E+01 0.84747963032E+01 0.82978366313E+01 0.82488575721E+01 0.82978369193E+01
 0.84747968802E+01 0.88761982484E+01 0.96960839863E+01 0.11270089522E+02 0.14085182116E+02
 0.19330316048E+02 0.28258110922E+02 0.40773984182E+02 0.55240329154E+02 0.69154794333E+02
 0.80236699127E+02 0.87154098168E+02 0.11570324580E+03 0.11312702999E+03 0.10522806020E+03
 0.91980052949E+02 0.74457406477E+02 0.55240325387E+02 0.37682116540E+02 0.24442528638E+02
 0.16323098280E+02 0.12175621201E+02 0.10031382261E+02 0.89398042914E+01 0.84328674568E+01
 0.82266911055E+01 0.81737937210E+01 0.82266913635E+01 0.84328679556E+01 0.89398050193E+01
 0.10031383264E+02 0.12175622678E+02 0.16323100612E+02 0.24442532062E+02 0.37682120718E+02
 0.55240329155E+02 0.74457408298E+02 0.91980052043E+02 0.10522805748E+03 0.11312702768E+03
 0.13648464727E+03 0.13395764374E+03 0.12593508256E+03 0.11176292273E+03 0.91980052945E+02
 0.69154792283E+02 0.47269068538E+02 0.29957790934E+02 0.18844851750E+02 0.13096099200E+02
 0.10364051733E+02 0.90004358860E+01 0.83870234216E+01 0.81512989169E+01 0.80944063462E+01
 0.81512991503E+01 0.83870238556E+01 0.90004364997E+01 0.10364052594E+02 0.13096100558E+02
 0.18844853948E+02 0.29957794032E+02 0.47269071871E+02 0.69154794335E+02 0.91980052044E+02
 0.11176291844E+03 0.12593507664E+03 0.13395763947E+03 0.14984537511E+03 0.14756234524E+03
 0.14001750393E+03 0.12593508256E+03 0.10522806020E+03 0.80236698734E+02 0.55299946878E+02
 0.34820736669E+02 0.21182721943E+02 0.13942218463E+02 0.10647243754E+02 0.90527294824E+01
 0.83480096587E+01 0.80868523994E+01 0.80264816999E+01 0.80868525874E+01 0.83480099996E+01
 0.90527299541E+01 0.10647244424E+02 0.13942219550E+02 0.21182723679E+02 0.34820738963E+02
 0.55299948959E+02 0.80236699130E+02 0.10522805748E+03 0.12593507664E+03 0.14001749686E+03
 0.14756234040E+03 0.15654671893E+03 0.15451842963E+03 0.14756234524E+03 0.13395764374E+03
 0.11312702998E+03 0.87154098454E+02 0.60522870257E+02 0.38109510045E+02 0.22827275640E+02
 0.14550480574E+02 0.10837091026E+02 0.90887627585E+01 0.83225859251E+01 0.80442479243E+01
 0.79815060435E+01 0.80442480317E+01 0.83225861175E+01 0.90887630221E+01 0.10837091402E+02
 0.14550481189E+02 0.22827276601E+02 0.38109511245E+02 0.60522871173E+02 0.87154098170E+02
 0.11312702768E+03 0.13395763947E+03 0.14756234040E+03 0.15451842637E+03 0.15654671893E+03
 0.15451842637E+03 0.14756234040E+03 0.13395763947E+03 0.11312702768E+03 0.87154098168E+02
 0.60522871170E+02 0.38109511241E+02 0.22827276598E+02 0.14550481188E+02 0.10837091402E+02
 0.90887630220E+01 0.83225861177E+01 0.80442480319E+01 0.79815060435E+01 0.80442479242E+01
 0.83225859250E+01 0.90887627586E+01 0.10837091026E+02 0.14550480576E+02 0.22827275644E+02
 0.38109510049E+02 0.60522870262E+02 0.87154098457E+02 0.11312702999E+03 0.13395764374E+03
 0.14756234524E+03 0.15451842963E+03 0.15451842637E+03 0.15239196558E+03 0.14520259438E+03
 0.13138619417E+03 0.11054190150E+03 0.84852442802E+02 0.58761795667E+02 0.36988115467E+02
 0.22261130502E+02 0.14340563344E+02 0.10774057293E+02 0.90782335665E+01 0.83331320227E+01
 0.80607091409E+01 0.79987911567E+01 0.80607089512E+01 0.83331316793E+01 0.90782330892E+01
 0.10774056603E+02 0.14340562202E+02 0.22261128689E+02 0.36988113152E+02 0.58761793800E+02
 0.84852443089E+02 0.11054190551E+03 0.13138620185E+03 0.14520260323E+03 0.15239197154E+03
 0.14756234040E+03 0.14520259438E+03 0.13748576928E+03 0.12328094346E+03 0.10265448427E+03
 0.78018097181E+02 0.53652343837E+02 0.33802910207E+02 0.20686624468E+02 0.13765588576E+02
 0.10594741934E+02 0.90487379067E+01 0.83633889943E+01 0.81076901018E+01 0.80480870091E+01
 0.81076898735E+01 0.83633885707E+01 0.90487373020E+01 0.10594741050E+02 0.13765587105E+02
 0.20686622066E+02 0.33802906968E+02 0.53652340807E+02 0.78018096422E+02 0.10265448782E+03
 0.12328095151E+03 0.13748577903E+03 0.14520260110E+03 0.13395763947E+03 0.13138619417E+03
 0.12328094346E+03 0.10910904662E+03 0.89525361049E+02 0.67131579115E+02 0.45831509650E+02
 0.29111062562E+02 0.18455256462E+02 0.12964994453E+02 0.10327288629E+02 0.90056084070E+01
 0.84088244425E+01 0.81777989269E+01 0.81215702536E+01 0.81777986957E+01 0.84088239944E+01
 0.90056077406E+01 0.10327287654E+02 0.12964992866E+02 0.18455253823E+02 0.29111058767E+02
 0.45831505491E+02 0.67131576478E+02 0.89525362055E+02 0.10910905186E+03 0.12328095077E+03
 0.13138619946E+03 0.11312702768E+03 0.11054190150E+03 0.10265448427E+03 0.89525361049E+02
 0.72299157668E+02 0.53551645100E+02 0.36546941088E+02 0.23815590016E+02 0.16056525160E+02
 0.12088320390E+02 0.10013076647E+02 0.89549272876E+01 0.84611322745E+01 0.82586549649E+01
 0.82062727528E+01 0.82586547379E+01 0.84611318088E+01 0.89549265623E+01 0.10013075602E+02
 0.12088318810E+02 0.16056522599E+02 0.23815586169E+02 0.36546936322E+02 0.53551640764E+02
 0.72299155584E+02 0.89525362158E+02 0.10265448751E+03 0.11054190424E+03 0.87154098170E+02
 0.84852442802E+02 0.78018097180E+02 0.67131579114E+02 0.53551645099E+02 0.39527292853E+02
 0.27474706659E+02 0.18932165260E+02 0.13930014736E+02 0.11218927638E+02 0.96961478658E+01
 0.89005294632E+01 0.85085600389E+01 0.83342130305E+01 0.82855822447E+01 0.83342127845E+01
 0.85085595143E+01 0.89005286264E+01 0.96961466971E+01 0.11218926050E+02 0.13930012418E+02
 0.18932161816E+02 0.27474702088E+02 0.39527287888E+02 0.53551641039E+02 0.67131576986E+02
 0.78018096897E+02 0.84852443220E+02 0.60522871173E+02 0.58761795667E+02 0.53652343835E+02
 0.45831509649E+02 0.36546941087E+02 0.27474706659E+02 0.20125052369E+02 0.15181140792E+02
 0.12241907611E+02 0.10446088122E+02 0.94100257331E+01 0.88419665287E+01 0.85379590076E+01
 0.83879890450E+01 0.83426581665E+01 0.83879887425E+01 0.85379583666E+01 0.88419655194E+01
 0.94100243749E+01 0.10446086444E+02 0.12241905508E+02 0.15181137955E+02 0.20125048604E+02
 0.27474702225E+02 0.36546936733E+02 0.45831506221E+02 0.53652341752E+02 0.58761794782E+02
 0.38109511245E+02 0.36988115467E+02 0.33802910206E+02 0.29111062560E+02 0.23815590015E+02
 0.18932165260E+02 0.15181140792E+02 0.12647762256E+02 0.10929256044E+02 0.98301688165E+01
 0.91687674460E+01 0.87746812242E+01 0.85382245430E+01 0.84074741389E+01 0.83649892027E+01
 0.84074737524E+01 0.85382237500E+01 0.87746800201E+01 0.91687658836E+01 0.98301669958E+01
 0.10929254018E+02 0.12647759925E+02 0.15181137959E+02 0.18932161921E+02 0.23815586495E+02
 0.29111059396E+02 0.33802907889E+02 0.36988114268E+02 0.22827276601E+02 0.22261130502E+02
 0.20686624466E+02 0.18455256460E+02 0.16056525159E+02 0.13930014736E+02 0.12241907611E+02
 0.10929256044E+02 0.99947433245E+01 0.93739710600E+01 0.89675094483E+01 0.86926532538E+01
 0.85038347110E+01 0.83879890453E+01 0.83482800870E+01 0.83879885713E+01 0.85038337730E+01
 0.86926518876E+01 0.89675077360E+01 0.93739691281E+01 0.99947412964E+01 0.10929253968E+02
 0.12241905434E+02 0.13930012383E+02 0.16056522698E+02 0.18455254147E+02 0.20686622654E+02
 0.22261129505E+02 0.14550481189E+02 0.14340563344E+02 0.13765588575E+02 0.12964994452E+02
 0.12088320389E+02 0.11218927638E+02 0.10446088122E+02 0.98301688165E+01 0.93739710599E+01
 0.90422927549E+01 0.87916487695E+01 0.85925057270E+01 0.84370268185E+01 0.83342130311E+01
 0.82978369196E+01 0.83342124915E+01 0.84370257819E+01 0.85925042726E+01 0.87916470067E+01
 0.90422908130E+01 0.93739690683E+01 0.98301668708E+01 0.10446086257E+02 0.11218925837E+02
 0.12088318646E+02 0.12964992847E+02 0.13765587300E+02 0.14340562629E+02 0.10837091402E+02
 0.10774057293E+02 0.10594741933E+02 0.10327288628E+02 0.10013076647E+02 0.96961478660E+01
 0.94100257332E+01 0.91687674459E+01 0.89675094480E+01 0.87916487692E+01 0.86287915644E+01
 0.84772449951E+01 0.83477731085E+01 0.82586549654E+01 0.82266913639E+01 0.82586544007E+01
 0.83477720460E+01 0.84772435482E+01 0.86287898646E+01 0.87916469433E+01 0.89675076052E+01
 0.91687656678E+01 0.94100240636E+01 0.96961463134E+01 0.10013075215E+02 0.10327287362E+02
 0.10594740949E+02 0.10774056745E+02 0.90887630221E+01 0.90782335665E+01 0.90487379067E+01
 0.90056084071E+01 0.89549272879E+01 0.89005294635E+01 0.88419665288E+01 0.87746812239E+01
 0.86926532532E+01 0.85925057264E+01 0.84772449947E+01 0.83578408391E+01 0.82516369629E+01
 0.81777989273E+01 0.81512991506E+01 0.81777983890E+01 0.82516359645E+01 0.83578395093E+01
 0.84772434736E+01 0.85925041340E+01 0.86926516755E+01 0.87746797104E+01 0.88419650975E+01
 0.89005281139E+01 0.89549260292E+01 0.90056072919E+01 0.90487370434E+01 0.90782330882E+01
 0.83225861175E+01 0.83331320227E+01 0.83633889945E+01 0.84088244428E+01 0.84611322750E+01
 0.85085600393E+01 0.85379590078E+01 0.85382245427E+01 0.85038347104E+01 0.84370268178E+01
 0.83477731079E+01 0.82516369626E+01 0.81662873687E+01 0.81076901019E+01 0.80868525877E+01
 0.81076896494E+01 0.81662865379E+01 0.82516358738E+01 0.83477718869E+01 0.84370255642E+01
 0.85038334840E+01 0.85382233654E+01 0.85379578752E+01 0.85085589417E+01 0.84611312245E+01
 0.84088234971E+01 0.83633882580E+01 0.83331316145E+01 0.80442480317E+01 0.80607091409E+01
 0.81076901019E+01 0.81777989273E+01 0.82586549654E+01 0.83342130311E+01 0.83879890453E+01
 0.84074741389E+01 0.83879890450E+01 0.83342130305E+01 0.82586549649E+01 0.81777989269E+01
 0.81076901018E+01 0.80607091409E+01 0.80442480319E+01 0.80607088352E+01 0.81076895467E+01
 0.81777982098E+01 0.82586541702E+01 0.83342122155E+01 0.83879882335E+01 0.84074733312E+01
 0.83879882332E+01 0.83342122149E+01 0.82586541696E+01 0.81777982092E+01 0.81076895462E+01
 0.80607088349E+01 0.79815060435E+01 0.79987911567E+01 0.80480870092E+01 0.81215702539E+01
 0.82062727533E+01 0.82855822454E+01 0.83426581672E+01 0.83649892031E+01 0.83482800871E+01
 0.82978369193E+01 0.82266913635E+01 0.81512991503E+01 0.80868525874E+01 0.80442480317E+01
 0.80294438620E+01 0.80442479243E+01 0.80868523994E+01 0.81512989169E+01 0.82266911055E+01
 0.82978366313E+01 0.83482797454E+01 0.83649887860E+01 0.83426576730E+01 0.82855817005E+01
 0.82062722068E+01 0.81215697669E+01 0.80480866426E+01 0.79987909596E+01 0.80442479243E+01
 0.80607089512E+01 0.81076898735E+01 0.81777986958E+01 0.82586547384E+01 0.83342127853E+01
 0.83879887434E+01 0.84074737531E+01 0.83879885717E+01 0.83342124916E+01 0.82586544004E+01
 0.81777983886E+01 0.81076896490E+01 0.80607088349E+01 0.80442479242E+01 0.80607089512E+01
 0.81076898735E+01 0.81777986957E+01 0.82586547379E+01 0.83342127845E+01 0.83879887425E+01
 0.84074737524E+01 0.83879885713E+01 0.83342124915E+01 0.82586544007E+01 0.81777983890E+01
 0.81076896494E+01 0.80607088352E+01 0.83225859251E+01 0.83331316793E+01 0.83633885707E+01
 0.84088239946E+01 0.84611318093E+01 0.85085595150E+01 0.85379583674E+01 0.85382237508E+01
 0.85038337735E+01 0.84370257820E+01 0.83477720457E+01 0.82516359639E+01 0.81662865372E+01
 0.81076895462E+01 0.80868523992E+01 0.81076898735E+01 0.81662871513E+01 0.82516367843E+01
 0.83477729566E+01 0.84370266480E+01 0.85038344682E+01 0.85382241916E+01 0.85379585413E+01
 0.85085594784E+01 0.84611316594E+01 0.84088238258E+01 0.83633884433E+01 0.83331316149E+01
 0.90887627585E+01 0.90782330892E+01 0.90487373023E+01 0.90056077412E+01 0.89549265630E+01
 0.89005286272E+01 0.88419655202E+01 0.87746800207E+01 0.86926518880E+01 0.85925042725E+01
 0.84772435477E+01 0.83578395084E+01 0.82516358729E+01 0.81777982092E+01 0.81512989167E+01
 0.81777986958E+01 0.82516367846E+01 0.83578407295E+01 0.84772449228E+01 0.85925056282E+01
 0.86926530627E+01 0.87746809002E+01 0.88419660674E+01 0.89005288890E+01 0.89549266419E+01
 0.90056077437E+01 0.90487372944E+01 0.90782330882E+01 0.10837091026E+02 0.10774056603E+02
 0.10594741051E+02 0.10327287655E+02 0.10013075604E+02 0.96961466984E+01 0.94100243758E+01
 0.91687658841E+01 0.89675077360E+01 0.87916470063E+01 0.86287898639E+01 0.84772434725E+01
 0.83477718859E+01 0.82586541696E+01 0.82266911054E+01 0.82586547384E+01 0.83477729574E+01
 0.84772449233E+01 0.86287915290E+01 0.87916486998E+01 0.89675092791E+01 0.91687671428E+01
 0.94100252970E+01 0.96961473214E+01 0.10013076028E+02 0.10327287972E+02 0.10594741294E+02
 0.10774056744E+02 0.14550480574E+02 0.14340562202E+02 0.13765587107E+02 0.12964992869E+02
 0.12088318813E+02 0.11218926052E+02 0.10446086445E+02 0.98301669961E+01 0.93739691279E+01
 0.90422908125E+01 0.87916469425E+01 0.85925041330E+01 0.84370255633E+01 0.83342122149E+01
 0.82978366314E+01 0.83342127853E+01 0.84370266492E+01 0.85925056293E+01 0.87916487004E+01
 0.90422926544E+01 0.93739708785E+01 0.98301685303E+01 0.10446087729E+02 0.11218927143E+02
 0.12088319796E+02 0.12964993771E+02 0.13765587842E+02 0.14340562626E+02 0.22827275640E+02
 0.22261128689E+02 0.20686622069E+02 0.18455253828E+02 0.16056522604E+02 0.13930012421E+02
 0.12241905509E+02 0.10929254018E+02 0.99947412960E+01 0.93739690677E+01 0.89675076046E+01
 0.86926516748E+01 0.85038334834E+01 0.83879882332E+01 0.83482797457E+01 0.83879887434E+01
 0.85038344695E+01 0.86926530640E+01 0.89675092800E+01 0.93739708789E+01 0.99947431025E+01
 0.10929255755E+02 0.12241907220E+02 0.13930014199E+02 0.16056524459E+02 0.18455255611E+02
 0.20686623510E+02 0.22261129500E+02 0.38109510045E+02 0.36988113152E+02 0.33802906972E+02
 0.29111058773E+02 0.23815586175E+02 0.18932161820E+02 0.15181137957E+02 0.12647759925E+02
 0.10929253967E+02 0.98301668701E+01 0.91687656674E+01 0.87746797102E+01 0.85382233652E+01
 0.84074733312E+01 0.83649887863E+01 0.84074737531E+01 0.85382241926E+01 0.87746809013E+01
 0.91687671437E+01 0.98301685309E+01 0.10929255755E+02 0.12647761901E+02 0.15181140268E+02
 0.18932164510E+02 0.23815589056E+02 0.29111061461E+02 0.33802909033E+02 0.36988114261E+02
 0.60522870257E+02 0.58761793800E+02 0.53652340811E+02 0.45831505497E+02 0.36546936327E+02
 0.27474702090E+02 0.20125048603E+02 0.15181137957E+02 0.12241905432E+02 0.10446086256E+02
 0.94100240634E+01 0.88419650978E+01 0.85379578756E+01 0.83879882335E+01 0.83426576734E+01
 0.83879885717E+01 0.85379585418E+01 0.88419660680E+01 0.94100252976E+01 0.10446087730E+02
 0.12241907221E+02 0.15181140269E+02 0.20125051588E+02 0.27474705611E+02 0.36546939902E+02
 0.45831508511E+02 0.53652342845E+02 0.58761794775E+02 0.87154098454E+02 0.84852443089E+02
 0.78018096425E+02 0.67131576483E+02 0.53551640767E+02 0.39527287887E+02 0.27474702222E+02
 0.18932161916E+02 0.13930012379E+02 0.11218925835E+02 0.96961463132E+01 0.89005281145E+01
 0.85085589425E+01 0.83342122155E+01 0.82855817008E+01 0.83342124916E+01 0.85085594784E+01
 0.89005288890E+01 0.96961473217E+01 0.11218927144E+02 0.13930014201E+02 0.18932164512E+02
 0.27474705612E+02 0.39527291636E+02 0.53551644054E+02 0.67131578591E+02 0.78018097267E+02
 0.84852443215E+02 0.11312702998E+03 0.11054190551E+03 0.10265448783E+03 0.89525362056E+02
 0.72299155583E+02 0.53551641034E+02 0.36546936726E+02 0.23815586487E+02 0.16056522692E+02
 0.12088318643E+02 0.10013075214E+02 0.89549260298E+01 0.84611312254E+01 0.82586541702E+01
 0.82062722070E+01 0.82586544004E+01 0.84611316589E+01 0.89549266416E+01 0.10013076028E+02
 0.12088319798E+02 0.16056524462E+02 0.23815589060E+02 0.36546939905E+02 0.53551644055E+02
 0.72299157386E+02 0.89525362040E+02 0.10265448649E+03 0.11054190424E+03 0.13395764374E+03
 0.13138620185E+03 0.12328095151E+03 0.10910905186E+03 0.89525362154E+02 0.67131576978E+02
 0.45831506211E+02 0.29111059386E+02 0.18455254140E+02 0.12964992843E+02 0.10327287361E+02
 0.90056072924E+01 0.84088234980E+01 0.81777982098E+01 0.81215697670E+01 0.81777983886E+01
 0.84088238251E+01 0.90056077433E+01 0.10327287973E+02 0.12964993774E+02 0.18455255616E+02
 0.29111061467E+02 0.45831508517E+02 0.67131578595E+02 0.89525362042E+02 0.10910904969E+03
 0.12328094828E+03 0.13138619946E+03 0.14756234524E+03 0.14520260323E+03 0.13748577903E+03
 0.12328095077E+03 0.10265448751E+03 0.78018096889E+02 0.53652341742E+02 0.33802907879E+02
 0.20686622646E+02 0.13765587296E+02 0.10594740948E+02 0.90487370435E+01 0.83633882587E+01
 0.81076895467E+01 0.80480866426E+01 0.81076896490E+01 0.83633884427E+01 0.90487372943E+01
 0.10594741295E+02 0.13765587846E+02 0.20686623516E+02 0.33802909040E+02 0.53652342852E+02
 0.78018097272E+02 0.10265448649E+03 0.12328094828E+03 0.13748577596E+03 0.14520260110E+03
 0.15451842963E+03 0.15239197154E+03 0.14520260110E+03 0.13138619946E+03 0.11054190424E+03
 0.84852443215E+02 0.58761794775E+02 0.36988114261E+02 0.22261129500E+02 0.14340562626E+02
 0.10774056744E+02 0.90782330882E+01 0.83331316149E+01 0.80607088352E+01 0.79987909596E+01
 0.80607088349E+01 0.83331316145E+01 0.90782330882E+01 0.10774056745E+02 0.14340562629E+02
 0.22261129505E+02 0.36988114268E+02 0.58761794782E+02 0.84852443220E+02 0.11054190424E+03
 0.13138619946E+03 0.14520260110E+03 0.15239197154E+03 0.14984537511E+03 0.14756234040E+03
 0.14001749686E+03 0.12593507664E+03 0.10522805748E+03 0.80236699127E+02 0.55299948954E+02
 0.34820738958E+02 0.21182723675E+02 0.13942219548E+02 0.10647244423E+02 0.90527299541E+01
 0.83480100000E+01 0.80868525877E+01 0.80264817000E+01 0.80868523992E+01 0.83480096584E+01
 0.90527294825E+01 0.10647243756E+02 0.13942218466E+02 0.21182721949E+02 0.34820736677E+02
 0.55299946886E+02 0.80236698741E+02 0.10522806020E+03 0.12593508256E+03 0.14001750393E+03
 0.14756234524E+03 0.14756234040E+03 0.14520259438E+03 0.13748576928E+03 0.12328094346E+03
 0.10265448427E+03 0.78018097180E+02 0.53652343835E+02 0.33802910206E+02 0.20686624466E+02
 0.13765588575E+02 0.10594741933E+02 0.90487379067E+01 0.83633889945E+01 0.81076901019E+01
 0.80480870092E+01 0.81076898735E+01 0.83633885707E+01 0.90487373023E+01 0.10594741051E+02
 0.13765587107E+02 0.20686622069E+02 0.33802906972E+02 0.53652340811E+02 0.78018096425E+02
 0.10265448783E+03 0.12328095151E+03 0.13748577903E+03 0.14520260110E+03 0.14001749686E+03
 0.13748576928E+03 0.12941373161E+03 0.11506398181E+03 0.94901532715E+02 0.71491538079E+02