   2   2   0   0
  0.1832514E+02  0.3321690E-09  0.3321690E-09  0.3321690E-09  0.5000000E-15
  1.000000000000000E-004
  CAR 
 Ta                                      
     26.84027670    -36.66045339  301      5.32875383      1.00000000
    -36.660  0.0000E+00  0.0000E+00
    -36.449  0.0000E+00  0.0000E+00
    -36.237  0.0000E+00  0.0000E+00
    -36.025  0.0000E+00  0.0000E+00
    -35.814  0.0000E+00  0.0000E+00
    -35.602  0.0000E+00  0.0000E+00
    -35.390  0.0000E+00  0.0000E+00
    -35.179  0.0000E+00  0.0000E+00
    -34.967  0.0000E+00  0.0000E+00
    -34.755  0.0000E+00  0.0000E+00
    -34.544  0.0000E+00  0.0000E+00
    -34.332  0.0000E+00  0.0000E+00
    -34.120  0.0000E+00  0.0000E+00
    -33.909  0.3117E-05  0.6598E-06
    -33.697  0.1545E+01  0.3271E+00
    -33.485  0.1433E+02  0.3359E+01
    -33.274  0.2973E+01  0.3989E+01
    -33.062  0.5368E-01  0.4000E+01
    -32.850  0.0000E+00  0.4000E+01
    -32.639  0.0000E+00  0.4000E+01
    -32.427  0.0000E+00  0.4000E+01
    -32.215  0.0000E+00  0.4000E+01
    -32.004  0.0000E+00  0.4000E+01
    -31.792  0.0000E+00  0.4000E+01
    -31.580  0.0000E+00  0.4000E+01
    -31.369  0.0000E+00  0.4000E+01
    -31.157  0.0000E+00  0.4000E+01
    -30.945  0.0000E+00  0.4000E+01
    -30.734  0.0000E+00  0.4000E+01
    -30.522  0.0000E+00  0.4000E+01
    -30.310  0.0000E+00  0.4000E+01
    -30.099  0.0000E+00  0.4000E+01
    -29.887  0.0000E+00  0.4000E+01
    -29.675  0.0000E+00  0.4000E+01
    -29.464  0.0000E+00  0.4000E+01
    -29.252  0.0000E+00  0.4000E+01
    -29.040  0.0000E+00  0.4000E+01
    -28.829  0.0000E+00  0.4000E+01
    -28.617  0.0000E+00  0.4000E+01
    -28.405  0.0000E+00  0.4000E+01
    -28.194  0.0000E+00  0.4000E+01
    -27.982  0.0000E+00  0.4000E+01
    -27.770  0.0000E+00  0.4000E+01
    -27.559  0.0000E+00  0.4000E+01
    -27.347  0.0000E+00  0.4000E+01
    -27.135  0.0000E+00  0.4000E+01
    -26.924  0.0000E+00  0.4000E+01
    -26.712  0.0000E+00  0.4000E+01
    -26.500  0.1788E-13  0.4000E+01
    -26.289  0.1066E+00  0.4023E+01
    -26.077  0.1207E+02  0.6577E+01
    -25.865  0.5300E+01  0.7699E+01
    -25.654  0.5848E+01  0.8937E+01
    -25.442  0.9782E+01  0.1101E+02
    -25.230  0.4593E+01  0.1198E+02
    -25.019  0.9670E-01  0.1200E+02
    -24.807  0.0000E+00  0.1200E+02
    -24.595  0.0000E+00  0.1200E+02
    -24.384  0.0000E+00  0.1200E+02
    -24.172  0.0000E+00  0.1200E+02
    -23.960  0.0000E+00  0.1200E+02
    -23.749  0.0000E+00  0.1200E+02
    -23.537  0.0000E+00  0.1200E+02
    -23.325  0.0000E+00  0.1200E+02
    -23.114  0.0000E+00  0.1200E+02
    -22.902  0.0000E+00  0.1200E+02
    -22.690  0.0000E+00  0.1200E+02
    -22.479  0.0000E+00  0.1200E+02
    -22.267  0.0000E+00  0.1200E+02
    -22.055  0.0000E+00  0.1200E+02
    -21.844  0.0000E+00  0.1200E+02
    -21.632  0.0000E+00  0.1200E+02
    -21.420  0.0000E+00  0.1200E+02
    -21.209  0.0000E+00  0.1200E+02
    -20.997  0.0000E+00  0.1200E+02
    -20.785  0.0000E+00  0.1200E+02
    -20.574  0.0000E+00  0.1200E+02
    -20.362  0.0000E+00  0.1200E+02
    -20.150  0.0000E+00  0.1200E+02
    -19.939  0.0000E+00  0.1200E+02
    -19.727  0.0000E+00  0.1200E+02
    -19.515  0.0000E+00  0.1200E+02
    -19.304  0.0000E+00  0.1200E+02
    -19.092  0.0000E+00  0.1200E+02
    -18.880  0.0000E+00  0.1200E+02
    -18.669  0.0000E+00  0.1200E+02
    -18.457  0.0000E+00  0.1200E+02
    -18.245  0.0000E+00  0.1200E+02
    -18.034  0.0000E+00  0.1200E+02
    -17.822  0.0000E+00  0.1200E+02
    -17.610  0.0000E+00  0.1200E+02
    -17.399  0.0000E+00  0.1200E+02
    -17.187  0.0000E+00  0.1200E+02
    -16.975  0.0000E+00  0.1200E+02
    -16.764  0.0000E+00  0.1200E+02
    -16.552  0.0000E+00  0.1200E+02
    -16.340  0.0000E+00  0.1200E+02
    -16.129  0.0000E+00  0.1200E+02
    -15.917  0.0000E+00  0.1200E+02
    -15.705  0.0000E+00  0.1200E+02
    -15.494  0.0000E+00  0.1200E+02
    -15.282  0.0000E+00  0.1200E+02
    -15.070  0.0000E+00  0.1200E+02
    -14.859  0.0000E+00  0.1200E+02
    -14.647  0.0000E+00  0.1200E+02
    -14.435  0.0000E+00  0.1200E+02
    -14.224  0.0000E+00  0.1200E+02
    -14.012  0.0000E+00  0.1200E+02
    -13.800  0.0000E+00  0.1200E+02
    -13.589  0.0000E+00  0.1200E+02
    -13.377  0.0000E+00  0.1200E+02
    -13.165  0.0000E+00  0.1200E+02
    -12.954  0.0000E+00  0.1200E+02
    -12.742  0.0000E+00  0.1200E+02
    -12.530  0.0000E+00  0.1200E+02
    -12.319  0.0000E+00  0.1200E+02
    -12.107  0.0000E+00  0.1200E+02
    -11.895  0.0000E+00  0.1200E+02
    -11.683  0.0000E+00  0.1200E+02
    -11.472  0.0000E+00  0.1200E+02
    -11.260  0.0000E+00  0.1200E+02
    -11.048  0.0000E+00  0.1200E+02
    -10.837  0.0000E+00  0.1200E+02
    -10.625  0.0000E+00  0.1200E+02
    -10.413  0.0000E+00  0.1200E+02
    -10.202  0.0000E+00  0.1200E+02
     -9.990  0.0000E+00  0.1200E+02
     -9.778  0.0000E+00  0.1200E+02
     -9.567  0.0000E+00  0.1200E+02
     -9.355  0.0000E+00  0.1200E+02
     -9.143  0.0000E+00  0.1200E+02
     -8.932  0.0000E+00  0.1200E+02
     -8.720  0.0000E+00  0.1200E+02
     -8.508  0.0000E+00  0.1200E+02
     -8.297  0.0000E+00  0.1200E+02
     -8.085  0.0000E+00  0.1200E+02
     -7.873  0.0000E+00  0.1200E+02
     -7.662  0.0000E+00  0.1200E+02
     -7.450  0.0000E+00  0.1200E+02
     -7.238  0.0000E+00  0.1200E+02
     -7.027  0.0000E+00  0.1200E+02
     -6.815  0.0000E+00  0.1200E+02
     -6.603  0.0000E+00  0.1200E+02
     -6.392  0.0000E+00  0.1200E+02
     -6.180  0.0000E+00  0.1200E+02
     -5.968  0.0000E+00  0.1200E+02
     -5.757  0.0000E+00  0.1200E+02
     -5.545  0.0000E+00  0.1200E+02
     -5.333  0.0000E+00  0.1200E+02
     -5.122  0.0000E+00  0.1200E+02
     -4.910  0.0000E+00  0.1200E+02
     -4.698  0.0000E+00  0.1200E+02
     -4.487  0.0000E+00  0.1200E+02
     -4.275  0.0000E+00  0.1200E+02
     -4.063  0.0000E+00  0.1200E+02
     -3.852  0.0000E+00  0.1200E+02
     -3.640  0.0000E+00  0.1200E+02
     -3.428  0.0000E+00  0.1200E+02
     -3.217  0.0000E+00  0.1200E+02
     -3.005  0.0000E+00  0.1200E+02
     -2.793  0.2049E-17  0.1200E+02
     -2.582  0.2309E-03  0.1200E+02
     -2.370  0.1822E-01  0.1200E+02
     -2.158  0.5517E-01  0.1202E+02
     -1.947  0.5570E-01  0.1203E+02
     -1.735  0.2207E+00  0.1207E+02
     -1.523  0.6710E-01  0.1209E+02
     -1.312  0.8121E-01  0.1211E+02
     -1.100  0.1102E+00  0.1213E+02
     -0.888  0.3833E+00  0.1221E+02
     -0.677  0.1714E+00  0.1225E+02
     -0.465  0.3316E+00  0.1232E+02
     -0.253  0.5259E-01  0.1233E+02
     -0.042  0.1693E+00  0.1236E+02
      0.170  0.4631E+00  0.1246E+02
      0.382  0.4303E+00  0.1255E+02
      0.593  0.5004E+00  0.1266E+02
      0.805  0.5220E+00  0.1277E+02
      1.017  0.1198E+01  0.1302E+02
      1.228  0.5967E+00  0.1315E+02
      1.440  0.6486E+00  0.1329E+02
      1.652  0.1745E+01  0.1366E+02
      1.863  0.2285E+01  0.1414E+02
      2.075  0.7767E+00  0.1430E+02
      2.287  0.1547E+01  0.1463E+02
      2.498  0.2963E+01  0.1526E+02
      2.710  0.1743E+01  0.1563E+02
      2.922  0.2001E+01  0.1605E+02
      3.133  0.3760E+00  0.1613E+02
      3.345  0.5939E+00  0.1626E+02
      3.557  0.1576E+01  0.1659E+02
      3.768  0.7339E+00  0.1674E+02
      3.980  0.3912E+01  0.1757E+02
      4.192  0.4060E+01  0.1843E+02
      4.403  0.3639E+01  0.1920E+02
      4.615  0.1946E+01  0.1961E+02
      4.827  0.2907E+01  0.2023E+02
      5.038  0.3364E+01  0.2094E+02
      5.250  0.4173E+01  0.2183E+02
      5.462  0.2574E+01  0.2237E+02
      5.673  0.1641E+01  0.2272E+02
      5.885  0.2470E+01  0.2324E+02
      6.097  0.7066E+00  0.2339E+02
      6.308  0.6885E+00  0.2354E+02
      6.520  0.9944E+00  0.2375E+02
      6.732  0.2766E+00  0.2380E+02
      6.943  0.4335E+00  0.2390E+02
      7.155  0.6009E+00  0.2402E+02
      7.367  0.1602E+01  0.2436E+02
      7.578  0.1788E+01  0.2474E+02
      7.790  0.5200E+00  0.2485E+02
      8.002  0.1075E+01  0.2508E+02
      8.213  0.2374E+01  0.2558E+02
      8.425  0.2261E+01  0.2606E+02
      8.637  0.2030E+01  0.2649E+02
      8.848  0.1436E+01  0.2679E+02
      9.060  0.2458E+01  0.2731E+02
      9.272  0.3104E+01  0.2797E+02
      9.483  0.1628E+01  0.2832E+02
      9.695  0.2561E+01  0.2886E+02
      9.907  0.2191E+01  0.2932E+02
     10.118  0.4623E+01  0.3030E+02
     10.330  0.5603E+01  0.3149E+02
     10.542  0.2278E+01  0.3197E+02
     10.753  0.2536E+01  0.3250E+02
     10.965  0.1610E+01  0.3285E+02
     11.177  0.9256E+00  0.3304E+02
     11.388  0.3182E+00  0.3311E+02
     11.600  0.2742E+00  0.3317E+02
     11.812  0.9574E+00  0.3337E+02
     12.023  0.8200E+00  0.3354E+02
     12.235  0.1735E+01  0.3391E+02
     12.447  0.1265E+01  0.3418E+02
     12.658  0.2652E+00  0.3423E+02
     12.870  0.3078E+00  0.3430E+02
     13.082  0.4471E+00  0.3439E+02
     13.293  0.1017E+01  0.3461E+02
     13.505  0.1019E+01  0.3482E+02
     13.717  0.1758E+01  0.3520E+02
     13.928  0.8567E+00  0.3538E+02
     14.140  0.5802E-01  0.3539E+02
     14.352  0.7776E-02  0.3539E+02
     14.563  0.1356E+01  0.3568E+02
     14.775  0.3851E+00  0.3576E+02
     14.987  0.1261E+01  0.3603E+02
     15.198  0.1158E+01  0.3627E+02
     15.410  0.6371E+00  0.3641E+02
     15.622  0.9697E+00  0.3661E+02
     15.833  0.2790E+00  0.3667E+02
     16.045  0.1131E+01  0.3691E+02
     16.257  0.2738E+00  0.3697E+02
     16.468  0.1547E+01  0.3730E+02
     16.680  0.1824E+01  0.3768E+02
     16.892  0.6106E+00  0.3781E+02
     17.103  0.8167E+00  0.3799E+02
     17.315  0.1211E+01  0.3824E+02
     17.527  0.7354E-02  0.3824E+02
     17.739  0.1105E+01  0.3848E+02
     17.950  0.2789E+00  0.3854E+02
     18.162  0.1506E+01  0.3885E+02
     18.374  0.7051E+00  0.3900E+02
     18.585  0.2874E+01  0.3961E+02
     18.797  0.1906E+01  0.4002E+02
     19.009  0.1724E+01  0.4038E+02
     19.220  0.2233E+01  0.4085E+02
     19.432  0.1329E+01  0.4113E+02
     19.644  0.1298E+00  0.4116E+02
     19.855  0.1649E+01  0.4151E+02
     20.067  0.1766E+02  0.4525E+02
     20.279  0.1648E+01  0.4560E+02
     20.490  0.2427E+00  0.4565E+02
     20.702  0.1408E+01  0.4595E+02
     20.914  0.3567E+01  0.4670E+02
     21.125  0.4115E+00  0.4679E+02
     21.337  0.7683E+00  0.4695E+02
     21.549  0.4515E+00  0.4705E+02
     21.760  0.7753E+00  0.4721E+02
     21.972  0.9812E+00  0.4742E+02
     22.184  0.1264E+00  0.4745E+02
     22.395  0.1821E+00  0.4748E+02
     22.607  0.8685E+00  0.4767E+02
     22.819  0.1014E+01  0.4788E+02
     23.030  0.3845E-03  0.4788E+02
     23.242  0.4416E+00  0.4798E+02
     23.454  0.9559E-03  0.4798E+02
     23.665  0.1844E-16  0.4798E+02
     23.877  0.1647E-02  0.4798E+02
     24.089  0.1091E+00  0.4800E+02
     24.300  0.7588E-05  0.4800E+02
     24.512  0.0000E+00  0.4800E+02
     24.724  0.0000E+00  0.4800E+02
     24.935  0.0000E+00  0.4800E+02
     25.147  0.0000E+00  0.4800E+02
     25.359  0.0000E+00  0.4800E+02
     25.570  0.0000E+00  0.4800E+02
     25.782  0.0000E+00  0.4800E+02
     25.994  0.0000E+00  0.4800E+02
     26.205  0.0000E+00  0.4800E+02
     26.417  0.0000E+00  0.4800E+02
     26.629  0.0000E+00  0.4800E+02
     26.840  0.0000E+00  0.4800E+02
