    2    2    1    1
  0.1832514E+02  0.3321690E-09  0.3321690E-09  0.3321690E-09  0.5000000E-15
  1.000000000000000E-004
  CAR 
 Ta                                      
     22     90     48
 
  0.0000000E+00  0.0000000E+00  0.0000000E+00  0.1953125E-02
      1        -33.774057   1.000000
      2        -33.773979   1.000000
      3        -33.276872   1.000000
      4        -33.276798   1.000000
      5        -26.186219   1.000000
      6        -26.186127   1.000000
      7        -26.186046   1.000000
      8        -26.185957   1.000000
      9        -25.232048   1.000000
     10        -25.231964   1.000000
     11        -25.231890   1.000000
     12        -25.231809   1.000000
     13         -2.502747   1.000000
     14         -2.502236   1.000000
     15          1.635896   1.000000
     16          1.635897   1.000000
     17          1.636244   1.000000
     18          1.636244   1.000000
     19          5.913620   0.000000
     20          5.913781   0.000000
     21          5.913949   0.000000
     22          5.914107   0.000000
     23          6.327975   0.000000
     24          6.328152   0.000000
     25          9.311655   0.000000
     26          9.311655   0.000000
     27          9.311878   0.000000
     28          9.311878   0.000000
     29         11.823210   0.000000
     30         11.823331   0.000000
     31         11.823463   0.000000
     32         11.823582   0.000000
     33         12.428089   0.000000
     34         12.428226   0.000000
     35         12.574065   0.000000
     36         12.574267   0.000000
     37         14.564385   0.000000
     38         14.564579   0.000000
     39         14.564768   0.000000
     40         14.564959   0.000000
     41         19.857210   0.000000
     42         19.857405   0.000000
     43         19.918110   0.000000
     44         19.918289   0.000000
     45         20.284262   0.000000
     46         20.284265   0.000000
     47         20.284265   0.000000
     48         20.284782   0.000000
 
  0.1250000E+00 -0.6004686E-32  0.0000000E+00  0.1171875E-01
      1        -33.759026   1.000000
      2        -33.758948   1.000000
      3        -33.301541   1.000000
      4        -33.301468   1.000000
      5        -26.175449   1.000000
      6        -26.175301   1.000000
      7        -26.148659   1.000000
      8        -26.148511   1.000000
      9        -25.298045   1.000000
     10        -25.297908   1.000000
     11        -25.267273   1.000000
     12        -25.267137   1.000000
     13         -2.158486   1.000000
     14         -2.157977   1.000000
     15          1.819391   1.000000
     16          1.819737   1.000000
     17          1.888397   1.000000
     18          1.888747   1.000000
     19          5.865174   0.000000
     20          5.865457   0.000000
     21          5.979056   0.000000
     22          5.979232   0.000000
     23          6.376710   0.000000
     24          6.376951   0.000000
     25          8.762600   0.000000
     26          8.762841   0.000000
     27          9.500511   0.000000
     28          9.500733   0.000000
     29         10.133351   0.000000
     30         10.133597   0.000000
     31         10.783039   0.000000
     32         10.783263   0.000000
     33         11.735686   0.000000
     34         11.736036   0.000000
     35         12.774331   0.000000
     36         12.774810   0.000000
     37         15.349702   0.000000
     38         15.349958   0.000000
     39         16.323306   0.000000
     40         16.323601   0.000000
     41         19.898686   0.000000
     42         19.898870   0.000000
     43         19.916399   0.000000
     44         19.916579   0.000000
     45         20.869983   0.000000
     46         20.870185   0.000000
     47         20.874265   0.000000
     48         20.874564   0.000000
 
  0.2500000E+00 -0.1200937E-31  0.0000000E+00  0.1171875E-01
      1        -33.717197   1.000000
      2        -33.717120   1.000000
      3        -33.367897   1.000000
      4        -33.367823   1.000000
      5        -26.135337   1.000000
      6        -26.135189   1.000000
      7        -26.042947   1.000000
      8        -26.042800   1.000000
      9        -25.470040   1.000000
     10        -25.469901   1.000000
     11        -25.368055   1.000000
     12        -25.367918   1.000000
     13         -1.192077   1.000000
     14         -1.191574   1.000000
     15          2.362902   1.000000
     16          2.363243   1.000000
     17          2.430829   1.000000
     18          2.431193   1.000000
     19          5.808885   0.000000
     20          5.809169   0.000000
     21          6.038795   0.000000
     22          6.039019   0.000000
     23          6.712774   0.000000
     24          6.713153   0.000000
     25          7.503568   0.000000
     26          7.503815   0.000000
     27          8.435600   0.000000
     28          8.435859   0.000000
     29          9.076765   0.000000
     30          9.077026   0.000000
     31          9.981773   0.000000
     32          9.981995   0.000000
     33         10.811165   0.000000
     34         10.811566   0.000000
     35         11.132597   0.000000
     36         11.133068   0.000000
     37         18.024925   0.000000
     38         18.025199   0.000000
     39         19.149236   0.000000
     40         19.149516   0.000000
     41         19.911948   0.000000
     42         19.912129   0.000000
     43         19.915675   0.000000
     44         19.915855   0.000000
     45         22.261191   0.000000
     46         22.261606   0.000000
     47         22.505606   0.000000
     48         22.505923   0.000000
 
  0.3750000E+00 -0.1376869E-31  0.0000000E+00  0.1171875E-01
      1        -33.648898   1.000000
      2        -33.648821   1.000000
      3        -33.460682   1.000000
      4        -33.460608   1.000000
      5        -26.045241   1.000000
      6        -26.045095   1.000000
      7        -25.885694   1.000000
      8        -25.885549   1.000000
      9        -25.688764   1.000000
     10        -25.688623   1.000000
     11        -25.520262   1.000000
     12        -25.520122   1.000000
     13          0.200252   1.000000
     14          0.200743   1.000000
     15          2.557454   1.000000
     16          2.557864   1.000000
     17          3.248359   1.000000
     18          3.248693   1.000000
     19          5.796300   0.000000
     20          5.796533   0.000000
     21          5.922129   0.000000
     22          5.922412   0.000000
     23          6.331497   0.000000
     24          6.331720   0.000000
     25          7.176623   0.000000
     26          7.176895   0.000000
     27          7.530642   0.000000
     28          7.531094   0.000000
     29          7.713984   0.000000
     30          7.714254   0.000000
     31          9.662460   0.000000
     32          9.662890   0.000000
     33         10.152722   0.000000
     34         10.153123   0.000000
     35         10.412622   0.000000
     36         10.412860   0.000000
     37         19.909337   0.000000
     38         19.909521   0.000000
     39         19.911444   0.000000
     40         19.911626   0.000000
     41         20.737451   0.000000
     42         20.737851   0.000000
     43         20.768217   0.000000
     44         20.768375   0.000000
     45         21.233603   0.000000
     46         21.233737   0.000000
     47         22.197485   0.000000
     48         22.197753   0.000000
 
  0.5000000E+00 -0.2401874E-31  0.0000000E+00  0.5859375E-02
      1        -33.560226   1.000000
      2        -33.560226   1.000000
      3        -33.560150   1.000000
      4        -33.560150   1.000000
      5        -25.893370   1.000000
      6        -25.893370   1.000000
      7        -25.893227   1.000000
      8        -25.893227   1.000000
      9        -25.702061   1.000000
     10        -25.702061   1.000000
     11        -25.701919   1.000000
     12        -25.701919   1.000000
     13          1.660296   1.000000
     14          1.660296   1.000000
     15          1.660759   1.000000
     16          1.660759   1.000000
     17          4.435617   1.000000
     18          4.435617   1.000000
     19          4.435935   1.000000
     20          4.435935   1.000000
     21          6.353293   0.000000
     22          6.353293   0.000000
     23          6.353573   0.000000
     24          6.353573   0.000000
     25          6.787775   0.000000
     26          6.787775   0.000000
     27          6.788048   0.000000
     28          6.788048   0.000000
     29          8.513376   0.000000
     30          8.513376   0.000000
     31          8.513825   0.000000
     32          8.513825   0.000000
     33         10.292831   0.000000
     34         10.292831   0.000000
     35         10.293135   0.000000
     36         10.293135   0.000000
     37         19.786698   0.000000
     38         19.786698   0.000000
     39         19.787012   0.000000
     40         19.787012   0.000000
     41         19.973240   0.000000
     42         19.973240   0.000000
     43         19.973471   0.000000
     44         19.973471   0.000000
     45         23.953625   0.000000
     46         23.953625   0.000000
     47         23.953880   0.000000
     48         23.953880   0.000000
 
  0.1250000E+00  0.1250000E+00  0.0000000E+00  0.1171875E-01
      1        -33.746600   1.000000
      2        -33.746521   1.000000
      3        -33.324062   1.000000
      4        -33.323991   1.000000
      5        -26.197587   1.000000
      6        -26.197397   1.000000
      7        -26.082788   1.000000
      8        -26.082747   1.000000
      9        -25.394320   1.000000
     10        -25.394233   1.000000
     11        -25.263520   1.000000
     12        -25.263328   1.000000
     13         -1.833058   1.000000
     14         -1.832550   1.000000
     15          2.005292   1.000000
     16          2.005630   1.000000
     17          2.125576   1.000000
     18          2.125917   1.000000
     19          5.604041   0.000000
     20          5.604505   0.000000
     21          5.855772   0.000000
     22          5.856173   0.000000
     23          6.772655   0.000000
     24          6.773071   0.000000
     25          8.787870   0.000000
     26          8.788114   0.000000
     27          8.965562   0.000000
     28          8.965583   0.000000
     29          9.331640   0.000000
     30          9.331866   0.000000
     31          9.620187   0.000000
     32          9.620202   0.000000
     33         12.154736   0.000000
     34         12.155105   0.000000
     35         13.671304   0.000000
     36         13.671794   0.000000
     37         15.187498   0.000000
     38         15.187863   0.000000
     39         16.658370   0.000000
     40         16.658834   0.000000
     41         19.911640   0.000000
     42         19.911822   0.000000
     43         19.917161   0.000000
     44         19.917342   0.000000
     45         20.792959   0.000000
     46         20.793462   0.000000
     47         21.448508   0.000000
     48         21.449019   0.000000
 
 -0.1250000E+00  0.1250000E+00  0.0000000E+00  0.1171875E-01
      1        -33.746598   1.000000
      2        -33.746523   1.000000
      3        -33.324065   1.000000
      4        -33.323989   1.000000
      5        -26.197538   1.000000
      6        -26.197444   1.000000
      7        -26.082872   1.000000
      8        -26.082664   1.000000
      9        -25.394366   1.000000
     10        -25.394189   1.000000
     11        -25.263442   1.000000
     12        -25.263404   1.000000
     13         -1.833058   1.000000
     14         -1.832550   1.000000
     15          2.005293   1.000000
     16          2.005628   1.000000
     17          2.125578   1.000000
     18          2.125915   1.000000
     19          5.604067   0.000000
     20          5.604482   0.000000
     21          5.855771   0.000000
     22          5.856174   0.000000
     23          6.772633   0.000000
     24          6.773091   0.000000
     25          8.787869   0.000000
     26          8.788115   0.000000
     27          8.965384   0.000000
     28          8.965759   0.000000
     29          9.331640   0.000000
     30          9.331866   0.000000
     31          9.620008   0.000000
     32          9.620379   0.000000
     33         12.154740   0.000000
     34         12.155103   0.000000
     35         13.671323   0.000000
     36         13.671777   0.000000
     37         15.187489   0.000000
     38         15.187873   0.000000
     39         16.658366   0.000000
     40         16.658838   0.000000
     41         19.911640   0.000000
     42         19.911822   0.000000
     43         19.917161   0.000000
     44         19.917342   0.000000
     45         20.792963   0.000000
     46         20.793461   0.000000
     47         21.448509   0.000000
     48         21.449018   0.000000
 
  0.2500000E+00  0.1250000E+00  0.0000000E+00  0.1171875E-01
      1        -33.709835   1.000000
      2        -33.709754   1.000000
      3        -33.386663   1.000000
      4        -33.386594   1.000000
      5        -26.184632   1.000000
      6        -26.184445   1.000000
      7        -25.961592   1.000000
      8        -25.961546   1.000000
      9        -25.577278   1.000000
     10        -25.577186   1.000000
     11        -25.331329   1.000000
     12        -25.331137   1.000000
     13         -0.927508   1.000000
     14         -0.927005   1.000000
     15          2.433063   1.000000
     16          2.433412   1.000000
     17          2.721398   1.000000
     18          2.721749   1.000000
     19          5.356012   0.220361
     20          5.356486   0.216406
     21          5.602654   0.000000
     22          5.603080   0.000000
     23          7.469653   0.000000
     24          7.470067   0.000000
     25          7.537088   0.000000
     26          7.537175   0.000000
     27          8.021487   0.000000
     28          8.021751   0.000000
     29          8.128877   0.000000
     30          8.128960   0.000000
     31          9.784370   0.000000
     32          9.784599   0.000000
     33         11.658797   0.000000
     34         11.659156   0.000000
     35         12.321810   0.000000
     36         12.322248   0.000000
     37         17.056162   0.000000
     38         17.056561   0.000000
     39         18.735657   0.000000
     40         18.736124   0.000000
     41         19.916004   0.000000
     42         19.916185   0.000000
     43         19.918795   0.000000
     44         19.918975   0.000000
     45         21.305093   0.000000
     46         21.305557   0.000000
     47         22.616030   0.000000
     48         22.616434   0.000000
 
 -0.1250000E+00  0.2500000E+00  0.0000000E+00  0.1171875E-01
      1        -33.709830   1.000000
      2        -33.709758   1.000000
      3        -33.386668   1.000000
      4        -33.386589   1.000000
      5        -26.184587   1.000000
      6        -26.184489   1.000000
      7        -25.961672   1.000000
      8        -25.961468   1.000000
      9        -25.577322   1.000000
     10        -25.577144   1.000000
     11        -25.331254   1.000000
     12        -25.331211   1.000000
     13         -0.927507   1.000000
     14         -0.927005   1.000000
     15          2.433064   1.000000
     16          2.433411   1.000000
     17          2.721399   1.000000
     18          2.721747   1.000000
     19          5.356018   0.220312
     20          5.356483   0.216435
     21          5.602649   0.000000
     22          5.603083   0.000000
     23          7.469638   0.000000
     24          7.470079   0.000000
     25          7.536940   0.000000
     26          7.537321   0.000000
     27          8.021483   0.000000
     28          8.021756   0.000000
     29          8.128726   0.000000
     30          8.129108   0.000000
     31          9.784370   0.000000
     32          9.784599   0.000000
     33         11.658813   0.000000
     34         11.659142   0.000000
     35         12.321825   0.000000
     36         12.322235   0.000000
     37         17.056173   0.000000
     38         17.056552   0.000000
     39         18.735668   0.000000
     40         18.736114   0.000000
     41         19.916004   0.000000
     42         19.916185   0.000000
     43         19.918795   0.000000
     44         19.918975   0.000000
     45         21.305096   0.000000
     46         21.305556   0.000000
     47         22.616029   0.000000
     48         22.616434   0.000000
 
  0.4977065E-33  0.1250000E+00  0.2500000E+00  0.1171875E-01
      1        -33.709835   1.000000
      2        -33.709754   1.000000
      3        -33.386663   1.000000
      4        -33.386594   1.000000
      5        -26.184632   1.000000
      6        -26.184445   1.000000
      7        -25.961592   1.000000
      8        -25.961546   1.000000
      9        -25.577278   1.000000
     10        -25.577186   1.000000
     11        -25.331329   1.000000
     12        -25.331137   1.000000
     13         -0.927508   1.000000
     14         -0.927005   1.000000
     15          2.433063   1.000000
     16          2.433412   1.000000
     17          2.721398   1.000000
     18          2.721749   1.000000
     19          5.356012   0.220361
     20          5.356486   0.216406
     21          5.602654   0.000000
     22          5.603080   0.000000
     23          7.469653   0.000000
     24          7.470067   0.000000
     25          7.537088   0.000000
     26          7.537175   0.000000
     27          8.021487   0.000000
     28          8.021751   0.000000
     29          8.128877   0.000000
     30          8.128960   0.000000
     31          9.784370   0.000000
     32          9.784599   0.000000
     33         11.658797   0.000000
     34         11.659156   0.000000
     35         12.321810   0.000000
     36         12.322248   0.000000
     37         17.056162   0.000000
     38         17.056561   0.000000
     39         18.735657   0.000000
     40         18.736124   0.000000
     41         19.916004   0.000000
     42         19.916185   0.000000
     43         19.918795   0.000000
     44         19.918975   0.000000
     45         21.305093   0.000000
     46         21.305557   0.000000
     47         22.616030   0.000000
     48         22.616434   0.000000
 
  0.2488532E-33 -0.2500000E+00  0.1250000E+00  0.1171875E-01
      1        -33.709830   1.000000
      2        -33.709758   1.000000
      3        -33.386668   1.000000
      4        -33.386589   1.000000
      5        -26.184587   1.000000
      6        -26.184489   1.000000
      7        -25.961672   1.000000
      8        -25.961468   1.000000
      9        -25.577322   1.000000
     10        -25.577144   1.000000
     11        -25.331254   1.000000
     12        -25.331211   1.000000
     13         -0.927507   1.000000
     14         -0.927005   1.000000
     15          2.433064   1.000000
     16          2.433411   1.000000
     17          2.721399   1.000000
     18          2.721747   1.000000
     19          5.356018   0.220312
     20          5.356483   0.216435
     21          5.602649   0.000000
     22          5.603083   0.000000
     23          7.469638   0.000000
     24          7.470079   0.000000
     25          7.536940   0.000000
     26          7.537321   0.000000
     27          8.021483   0.000000
     28          8.021756   0.000000
     29          8.128726   0.000000
     30          8.129108   0.000000
     31          9.784370   0.000000
     32          9.784599   0.000000
     33         11.658813   0.000000
     34         11.659142   0.000000
     35         12.321825   0.000000
     36         12.322235   0.000000
     37         17.056173   0.000000
     38         17.056552   0.000000
     39         18.735668   0.000000
     40         18.736114   0.000000
     41         19.916004   0.000000
     42         19.916185   0.000000
     43         19.918795   0.000000
     44         19.918975   0.000000
     45         21.305096   0.000000
     46         21.305556   0.000000
     47         22.616029   0.000000
     48         22.616434   0.000000
 
  0.3750000E+00  0.1250000E+00  0.0000000E+00  0.1171875E-01
      1        -33.648039   1.000000
      2        -33.647957   1.000000
      3        -33.473479   1.000000
      4        -33.473409   1.000000
      5        -26.114601   1.000000
      6        -26.114419   1.000000
      7        -25.803031   1.000000
      8        -25.802981   1.000000
      9        -25.789206   1.000000
     10        -25.789108   1.000000
     11        -25.461011   1.000000
     12        -25.460818   1.000000
     13          0.355484   1.000000
     14          0.355977   1.000000
     15          2.559067   1.000000
     16          2.559478   1.000000
     17          3.419877   1.000000
     18          3.420223   1.000000
     19          5.179749   0.999987
     20          5.180112   0.999987
     21          5.381929   0.066287
     22          5.382387   0.064637
     23          6.500831   0.000000
     24          6.501224   0.000000
     25          7.201224   0.000000
     26          7.201601   0.000000
     27          7.335731   0.000000
     28          7.336089   0.000000
     29          8.415093   0.000000
     30          8.415542   0.000000
     31         10.312781   0.000000
     32         10.313020   0.000000
     33         10.521569   0.000000
     34         10.521868   0.000000
     35         10.931228   0.000000
     36         10.931524   0.000000
     37         19.020076   0.000000
     38         19.020448   0.000000
     39         19.887122   0.000000
     40         19.887335   0.000000
     41         19.929840   0.000000
     42         19.930022   0.000000
     43         20.131965   0.000000
     44         20.132343   0.000000
     45         21.321010   0.000000
     46         21.321441   0.000000
     47         22.656724   0.000000
     48         22.657071   0.000000
 
 -0.1250000E+00  0.3750000E+00  0.0000000E+00  0.1171875E-01
      1        -33.648033   1.000000
      2        -33.647962   1.000000
      3        -33.473484   1.000000
      4        -33.473404   1.000000
      5        -26.114560   1.000000
      6        -26.114459   1.000000
      7        -25.803107   1.000000
      8        -25.802907   1.000000
      9        -25.789246   1.000000
     10        -25.789070   1.000000
     11        -25.460938   1.000000
     12        -25.460889   1.000000
     13          0.355485   1.000000
     14          0.355977   1.000000
     15          2.559067   1.000000
     16          2.559479   1.000000
     17          3.419878   1.000000
     18          3.420224   1.000000
     19          5.179740   0.999987
     20          5.180120   0.999987
     21          5.381932   0.066276
     22          5.382386   0.064640
     23          6.500805   0.000000
     24          6.501247   0.000000
     25          7.201230   0.000000
     26          7.201596   0.000000
     27          7.335700   0.000000
     28          7.336117   0.000000
     29          8.415089   0.000000
     30          8.415544   0.000000
     31         10.312782   0.000000
     32         10.313020   0.000000
     33         10.521612   0.000000
     34         10.521826   0.000000
     35         10.931272   0.000000
     36         10.931482   0.000000
     37         19.020084   0.000000
     38         19.020441   0.000000
     39         19.887122   0.000000
     40         19.887334   0.000000
     41         19.929840   0.000000
     42         19.930021   0.000000
     43         20.131966   0.000000
     44         20.132343   0.000000
     45         21.321016   0.000000
     46         21.321436   0.000000
     47         22.656721   0.000000
     48         22.657075   0.000000
 
 -0.1253080E-32  0.1250000E+00  0.3750000E+00  0.1171875E-01
      1        -33.648039   1.000000
      2        -33.647957   1.000000
      3        -33.473479   1.000000
      4        -33.473409   1.000000
      5        -26.114601   1.000000
      6        -26.114419   1.000000
      7        -25.803031   1.000000
      8        -25.802981   1.000000
      9        -25.789206   1.000000
     10        -25.789108   1.000000
     11        -25.461011   1.000000
     12        -25.460818   1.000000
     13          0.355484   1.000000
     14          0.355977   1.000000
     15          2.559067   1.000000
     16          2.559478   1.000000
     17          3.419877   1.000000
     18          3.420223   1.000000
     19          5.179749   0.999987
     20          5.180112   0.999987
     21          5.381929   0.066287
     22          5.382387   0.064637
     23          6.500831   0.000000
     24          6.501224   0.000000
     25          7.201224   0.000000
     26          7.201601   0.000000
     27          7.335731   0.000000
     28          7.336089   0.000000
     29          8.415093   0.000000
     30          8.415542   0.000000
     31         10.312781   0.000000
     32         10.313020   0.000000
     33         10.521569   0.000000
     34         10.521868   0.000000
     35         10.931228   0.000000
     36         10.931524   0.000000
     37         19.020076   0.000000
     38         19.020448   0.000000
     39         19.887122   0.000000
     40         19.887335   0.000000
     41         19.929840   0.000000
     42         19.930022   0.000000
     43         20.131965   0.000000
     44         20.132343   0.000000
     45         21.321010   0.000000
     46         21.321441   0.000000
     47         22.656724   0.000000
     48         22.657071   0.000000
 
  0.2488532E-33 -0.3750000E+00  0.1250000E+00  0.1171875E-01
      1        -33.648033   1.000000
      2        -33.647962   1.000000
      3        -33.473484   1.000000
      4        -33.473404   1.000000
      5        -26.114560   1.000000
      6        -26.114459   1.000000
      7        -25.803107   1.000000
      8        -25.802907   1.000000
      9        -25.789246   1.000000
     10        -25.789070   1.000000
     11        -25.460938   1.000000
     12        -25.460889   1.000000
     13          0.355485   1.000000
     14          0.355977   1.000000
     15          2.559067   1.000000
     16          2.559479   1.000000
     17          3.419878   1.000000
     18          3.420224   1.000000
     19          5.179740   0.999987
     20          5.180120   0.999987
     21          5.381932   0.066276
     22          5.382386   0.064640
     23          6.500805   0.000000
     24          6.501247   0.000000
     25          7.201230   0.000000
     26          7.201596   0.000000
     27          7.335700   0.000000
     28          7.336117   0.000000
     29          8.415089   0.000000
     30          8.415544   0.000000
     31         10.312782   0.000000
     32         10.313020   0.000000
     33         10.521612   0.000000
     34         10.521826   0.000000
     35         10.931272   0.000000
     36         10.931482   0.000000
     37         19.020084   0.000000
     38         19.020441   0.000000
     39         19.887122   0.000000
     40         19.887334   0.000000
     41         19.929840   0.000000
     42         19.930021   0.000000
     43         20.131966   0.000000
     44         20.132343   0.000000
     45         21.321016   0.000000
     46         21.321436   0.000000
     47         22.656721   0.000000
     48         22.657075   0.000000
 
  0.5000000E+00  0.1250000E+00  0.0000000E+00  0.1171875E-01
      1        -33.566431   1.000000
      2        -33.566425   1.000000
      3        -33.566355   1.000000
      4        -33.566349   1.000000
      5        -25.979667   1.000000
      6        -25.979627   1.000000
      7        -25.979526   1.000000
      8        -25.979488   1.000000
      9        -25.627690   1.000000
     10        -25.627617   1.000000
     11        -25.627566   1.000000
     12        -25.627494   1.000000
     13          1.688025   1.000000
     14          1.688026   1.000000
     15          1.688492   1.000000
     16          1.688493   1.000000
     17          4.351427   1.000000
     18          4.351427   1.000000
     19          4.351775   1.000000
     20          4.351775   1.000000
     21          5.751314   0.000000
     22          5.751321   0.000000
     23          5.751782   0.000000
     24          5.751788   0.000000
     25          7.126334   0.000000
     26          7.126341   0.000000
     27          7.126757   0.000000
     28          7.126762   0.000000
     29          9.472344   0.000000
     30          9.472349   0.000000
     31          9.472771   0.000000
     32          9.472773   0.000000
     33         10.409814   0.000000
     34         10.409817   0.000000
     35         10.410106   0.000000
     36         10.410107   0.000000
     37         19.212778   0.000000
     38         19.212779   0.000000
     39         19.213150   0.000000
     40         19.213150   0.000000
     41         19.930773   0.000000
     42         19.930773   0.000000
     43         19.930955   0.000000
     44         19.930955   0.000000
     45         23.140826   0.000000
     46         23.140842   0.000000
     47         23.141147   0.000000
     48         23.141162   0.000000
 
 -0.1250000E+00  0.5000000E+00  0.0000000E+00  0.1171875E-01
      1        -33.566431   1.000000
      2        -33.566425   1.000000
      3        -33.566355   1.000000
      4        -33.566349   1.000000
      5        -25.979667   1.000000
      6        -25.979627   1.000000
      7        -25.979526   1.000000
      8        -25.979488   1.000000