       N       E                     dE             d eps       ncg     rms          rms(c)
DAV:   1    -0.250334835914E+02   -0.25033E+02   -0.14816E-05  4848   0.246E-02    0.939E-03
DAV:   2    -0.250334834730E+02    0.11833E-06   -0.13268E-06  4608   0.685E-03
   1 F= -.25033483E+02 E0= -.25031099E+02  d E =-.476932E-02  mag=    -0.0003    -0.0003    -0.0003
       N       E                     dE             ncg
DAV:   1    -0.244696164682E+05   -0.70058E+05     8928
DAV:   2    -0.275875986804E+05   -0.31180E+04    10752
DAV:   3    -0.275984095248E+05   -0.10811E+02    10272
DAV:   4    -0.275984285322E+05   -0.19007E-01    15312
DAV:   5    -0.275984285324E+05   -0.17912E-06     9936
       N       E                     dE             ncg
DAV:   1     0.475481955573E+04   -0.26809E+05     5520
DAV:   2     0.250422992814E+04   -0.22506E+04     6912
DAV:   3     0.249676408160E+04   -0.74658E+01     6144
DAV:   4     0.249675167576E+04   -0.12406E-01     9744
DAV:   5     0.249675167548E+04   -0.28098E-06     6336
