 vasp.6.4.3 19Mar24 (build Jun 26 2024 13:02:28) complex                        
  
 executed on             LinuxIFC date 2025.08.08  20:04:36
 running   48 mpi-ranks, on    4 nodes
 distrk:  each k-point on   48 cores,    1 groups
 distr:  one band on NCORE=   1 cores,   48 groups


--------------------------------------------------------------------------------------------------------


 INCAR:
   ENCUT = 290.7671
   IBRION = -1
   ISMEAR = 0
   ISYM = 2
   LCHARG = True
   LSORBIT = True
   LWAVE = True
   SAXIS = 0 0 1
   SIGMA = 0.05
   SYSTEM = Ta

 POTCAR:  PAW_PBE Ta_pv 07Sep2000                 
 -----------------------------------------------------------------------------
|                                                                             |
|           W    W    AA    RRRRR   N    N  II  N    N   GGGG   !!!           |
|           W    W   A  A   R    R  NN   N  II  NN   N  G    G  !!!           |
|           W    W  A    A  R    R  N N  N  II  N N  N  G       !!!           |
|           W WW W  AAAAAA  RRRRR   N  N N  II  N  N N  G  GGG   !            |
|           WW  WW  A    A  R   R   N   NN  II  N   NN  G    G                |
|           W    W  A    A  R    R  N    N  II  N    N   GGGG   !!!           |
|                                                                             |
|     You use a magnetic or noncollinear calculation, but did not specify     |
|     the initial magnetic moment with the MAGMOM tag. Note that a            |
|     default of 1 will be used for all atoms. This ferromagnetic setup       |
|     may break the symmetry of the crystal, in particular it may rule        |
|     out finding an antiferromagnetic solution. Thence, we recommend         |
|     setting the initial magnetic moment manually or verifying carefully     |
|     that this magnetic setup is desired.                                    |
|                                                                             |
 -----------------------------------------------------------------------------

 -----------------------------------------------------------------------------
|                                                                             |
|           W    W    AA    RRRRR   N    N  II  N    N   GGGG   !!!           |
|           W    W   A  A   R    R  NN   N  II  NN   N  G    G  !!!           |
|           W    W  A    A  R    R  N N  N  II  N N  N  G       !!!           |
|           W WW W  AAAAAA  RRRRR   N  N N  II  N  N N  G  GGG   !            |
|           WW  WW  A    A  R   R   N   NN  II  N   NN  G    G                |
|           W    W  A    A  R    R  N    N  II  N    N   GGGG   !!!           |
|                                                                             |
|     For optimal performance we recommend to set                             |
|       NCORE = 2 up to number-of-cores-per-socket                            |
|     NCORE specifies how many cores store one orbital (NPAR=cpu/NCORE).      |
|     This setting can greatly improve the performance of VASP for DFT.       |
|     The default, NCORE=1 might be grossly inefficient on modern             |
|     multi-core architectures or massively parallel machines. Do your        |
|     own testing! More info at https://www.vasp.at/wiki/index.php/NCORE      |
|     Unfortunately you need to use the default for GW and RPA                |
|     calculations (for HF NCORE is supported but not extensively tested      |
|     yet).                                                                   |
|                                                                             |
 -----------------------------------------------------------------------------

 POTCAR:  PAW_PBE Ta_pv 07Sep2000                 
   VRHFIN =Ta:  5p6s5d                                                                              
   LEXCH  = PE                                                                                      
   EATOM  =  1047.1984 eV,   76.9669 Ry                                                             
                                                                                                    
   TITEL  = PAW_PBE Ta_pv 07Sep2000                                                                 
   LULTRA =        F    use ultrasoft PP ?                                                          
   IUNSCR =        1    unscreen: 0-lin 1-nonlin 2-no                                               
   RPACOR =    2.330    partial core radius                                                         
   POMASS =  180.948; ZVAL   =   11.000    mass and valenz                                          
   RCORE  =    2.500    outmost cutoff radius                                                       
   RWIGS  =    2.840; RWIGS  =    1.503    wigner-seitz radius (au A)                               
   ENMAX  =  223.667; ENMIN  =  167.750 eV                                                          
   RCLOC  =    2.205    cutoff for local pot                                                        
   LCOR   =        T    correct aug charges                                                         
   LPAW   =        T    paw PP                                                                      
   EAUG   =  377.421                                                                                
   DEXC   =    0.000                                                                                
   RMAX   =    2.551    core radius for proj-oper                                                   
   RAUG   =    1.300    factor for augmentation sphere                                              
   RDEP   =    2.526    radius for radial grids                                                     
   RDEPT  =    2.132    core radius for aug-charge                                                  
                                                                                                    
   Atomic configuration                                                                             
   15 entries                                                                                       
     n  l   j            E        occ.                                                              
     1  0  0.50    -67341.2801   2.0000                                                             
     2  0  0.50    -11566.9369   2.0000                                                             
     2  1  1.50    -10134.1175   6.0000                                                             
     3  0  0.50     -2648.5614   2.0000                                                             
     3  1  1.50     -2222.6006   6.0000                                                             
     3  2  2.50     -1726.3114  10.0000                                                             
     4  0  0.50      -538.6957   2.0000                                                             
     4  1  1.50      -399.0125   6.0000                                                             
     4  2  2.50      -220.3955  10.0000                                                             
     4  3  3.50       -23.0371  14.0000                                                             
     5  0  0.50       -71.2900   2.0000                                                             
     5  1  1.50       -37.8224   6.0000                                                             
     5  2  2.50        -2.6455   4.0000                                                             
     6  0  0.50        -4.9623   1.0000                                                             
     5  3  2.50        -1.3606   0.0000                                                             
   Description                                                                                      
     l       E           TYP  RCUT    TYP  RCUT                                                     
     1    -37.8224449     23  2.500                                                                 
     1      1.3605826     23  2.500                                                                 
     2     -2.6454718     23  2.500                                                                 
     2     -0.6258570     23  2.500                                                                 
     0     -4.9622674     23  2.500                                                                 
     0      4.7531427     23  2.500                                                                 
  local pseudopotential read in
  partial core-charges read in
  partial kinetic energy density read in
  atomic valenz-charges read in
  non local Contribution for L=           1  read in
    real space projection operators read in
  non local Contribution for L=           1  read in
    real space projection operators read in
  non local Contribution for L=           2  read in
    real space projection operators read in
  non local Contribution for L=           2  read in
    real space projection operators read in
  non local Contribution for L=           0  read in
    real space projection operators read in
  non local Contribution for L=           0  read in
    real space projection operators read in
    PAW grid and wavefunctions read in
 
   number of l-projection  operators is LMAX  =           6
   number of lm-projection operators is LMMAX =          18
 
PAW_PBE Ta_pv 07Sep2000                 :
 energy of atom  1       EATOM=-1047.1984
 kinetic energy error for atom=    0.0209 (will be added to EATOM!!)
 
 
 POSCAR: Ta2
  positions in direct lattice
  No initial velocities read in


 exchange-correlation table for PE
   RHO(1)=    0.500       N(1)  =     2000
   RHO(2)=  100.500       N(2)  =     4000
 


--------------------------------------------------------------------------------------------------------


 ion  position               nearest neighbor table
   1  0.000  0.000  0.000-   2 2.88   2 2.88   2 2.88   2 2.88   2 2.88   2 2.88   2 2.88   2 2.88

   2  0.500  0.500  0.500-   1 2.88   1 2.88   1 2.88   1 2.88   1 2.88   1 2.88   1 2.88   1 2.88

 
  LATTYP: Found a simple cubic cell.
 ALAT       =     3.3216900000
  
  Lattice vectors:
  
 A1 = (   3.3216900000,   0.0000000000,   0.0000000000)
 A2 = (   0.0000000000,   3.3216900000,   0.0000000000)
 A3 = (   0.0000000000,   0.0000000000,   3.3216900000)


Analysis of symmetry for initial positions (statically):
=====================================================================
 Subroutine PRICEL returns following result:
 
  LATTYP: Found a body centered cubic cell.
 ALAT       =     3.3216900000
  
  Lattice vectors:
  
 A1 = (   1.6608450000,   1.6608450000,  -1.6608450000)
 A2 = (  -1.6608450000,   1.6608450000,   1.6608450000)
 A3 = (   1.6608450000,  -1.6608450000,   1.6608450000)
 
   2 primitive cells build up your supercell.
 

 Routine SETGRP: Setting up the symmetry group for a 
 simple cubic supercell.


 Subroutine GETGRP returns: Found 48 space group operations
 (whereof 48 operations were pure point group operations)
 out of a pool of 48 trial point group operations.


The static configuration has the point symmetry O_h .


Analysis of symmetry for dynamics (positions and initial velocities):
=====================================================================
 Subroutine PRICEL returns following result:
 
  LATTYP: Found a body centered cubic cell.
 ALAT       =     3.3216900000
  
  Lattice vectors:
  
 A1 = (   1.6608450000,   1.6608450000,  -1.6608450000)
 A2 = (  -1.6608450000,   1.6608450000,   1.6608450000)
 A3 = (   1.6608450000,  -1.6608450000,   1.6608450000)
 
   2 primitive cells build up your supercell.
 

 Routine SETGRP: Setting up the symmetry group for a 
 simple cubic supercell.


 Subroutine GETGRP returns: Found 48 space group operations
 (whereof 48 operations were pure point group operations)
 out of a pool of 48 trial point group operations.


The dynamic configuration has the point symmetry O_h .


Analysis of structural, dynamic, and magnetic symmetry:
=====================================================================
 Subroutine PRICEL returns following result:
 
  LATTYP: Found a body centered cubic cell.
 ALAT       =     3.3216900000
  
  Lattice vectors:
  
 A1 = (   1.6608450000,   1.6608450000,  -1.6608450000)
 A2 = (  -1.6608450000,   1.6608450000,   1.6608450000)
 A3 = (   1.6608450000,  -1.6608450000,   1.6608450000)
 
   2 primitive cells build up your supercell.
 

 Routine SETGRP: Setting up the symmetry group for a 
 simple cubic supercell.


 Subroutine GETGRP returns: Found  6 space group operations
 (whereof  6 operations were pure point group operations)
 out of a pool of 48 trial point group operations.


The overall configuration has the point symmetry S_6 .


 Subroutine INISYM returns: Found  6 space group operations
 (whereof  6 operations are pure point group operations),
 and found     2 'primitive' translations


----------------------------------------------------------------------------------------

                                     Primitive cell                                     

  volume of cell :      18.3251

  direct lattice vectors                    reciprocal lattice vectors
     1.660845000  1.660845000 -1.660845000     0.301051573  0.301051573 -0.000000000
    -1.660845000  1.660845000  1.660845000    -0.000000000  0.301051573  0.301051573
     1.660845000 -1.660845000  1.660845000     0.301051573 -0.000000000  0.301051573

  length of vectors
     2.876667923  2.876667923  2.876667923     0.425751218  0.425751218  0.425751218

  position of ions in fractional coordinates (direct lattice)
     0.000000000  0.000000000  0.000000000

  ion indices of the primitive-cell ions
   primitive index   ion index
                 1           1

----------------------------------------------------------------------------------------

 
 
 KPOINTS: Automatic kpoint scheme                 

Automatic generation of k-mesh.
 Grid dimensions read from file:
 generate k-points for:    8    8    8

 Generating k-lattice:

  Cartesian coordinates                     Fractional coordinates (reciprocal lattice)
     0.037631447 -0.000000000  0.000000000     0.125000000  0.000000000  0.000000000
     0.000000000  0.037631447  0.000000000     0.000000000  0.125000000  0.000000000
    -0.000000000 -0.000000000  0.037631447    -0.000000000 -0.000000000  0.125000000

  Length of vectors
     0.037631447  0.037631447  0.037631447

  Shift w.r.t. Gamma in fractional coordinates (k-lattice)
     0.000000000  0.000000000  0.000000000

 
 Subroutine IBZKPT returns following result:
 ===========================================
 
 Found     90 irreducible k-points:
 
 Following reciprocal coordinates:
            Coordinates               Weight
  0.000000  0.000000  0.000000      1.000000
  0.125000 -0.000000  0.000000      6.000000
  0.250000 -0.000000  0.000000      6.000000
  0.375000 -0.000000  0.000000      6.000000
  0.500000 -0.000000  0.000000      3.000000
  0.125000  0.125000  0.000000      6.000000
 -0.125000  0.125000  0.000000      6.000000
  0.250000  0.125000  0.000000      6.000000
 -0.125000  0.250000  0.000000      6.000000
  0.000000  0.125000  0.250000      6.000000
  0.000000 -0.250000  0.125000      6.000000
  0.375000  0.125000  0.000000      6.000000
 -0.125000  0.375000  0.000000      6.000000
 -0.000000  0.125000  0.375000      6.000000
  0.000000 -0.375000  0.125000      6.000000
  0.500000  0.125000  0.000000      6.000000
 -0.125000  0.500000  0.000000      6.000000
  0.250000  0.250000  0.000000      6.000000
 -0.250000  0.250000  0.000000      6.000000
  0.375000  0.250000  0.000000      6.000000
 -0.250000  0.375000  0.000000      6.000000
 -0.000000  0.250000  0.375000      6.000000
  0.000000 -0.375000  0.250000      6.000000
  0.500000  0.250000  0.000000      6.000000
 -0.250000  0.500000  0.000000      6.000000
  0.375000  0.375000  0.000000      6.000000
 -0.375000  0.375000  0.000000      6.000000
  0.500000  0.375000  0.000000      6.000000
 -0.375000  0.500000  0.000000      6.000000
  0.500000  0.500000  0.000000      3.000000
  0.125000  0.125000  0.125000      2.000000
 -0.125000  0.125000  0.125000      6.000000
  0.250000  0.125000  0.125000      6.000000
 -0.125000  0.250000  0.125000      6.000000
 -0.250000  0.125000  0.125000      6.000000
 -0.125000  0.125000  0.250000      6.000000
  0.375000  0.125000  0.125000      6.000000
 -0.125000  0.375000  0.125000      6.000000
 -0.375000  0.125000  0.125000      6.000000
 -0.125000  0.125000  0.375000      6.000000
  0.500000  0.125000  0.125000      6.000000
 -0.125000  0.500000  0.125000      6.000000
  0.250000  0.250000  0.125000      6.000000
 -0.250000  0.250000  0.125000      6.000000
 -0.250000  0.125000  0.250000      6.000000
 -0.125000  0.250000  0.250000      6.000000
  0.375000  0.250000  0.125000      6.000000
 -0.250000  0.375000  0.125000      6.000000
 -0.375000  0.125000  0.250000      6.000000
 -0.125000  0.250000  0.375000      6.000000
 -0.375000 -0.250000  0.125000      6.000000
 -0.125000 -0.375000  0.250000      6.000000
 -0.250000 -0.125000  0.375000      6.000000
 -0.375000 -0.125000 -0.250000      6.000000
  0.500000  0.250000  0.125000      6.000000
 -0.250000  0.500000  0.125000      6.000000
  0.500000  0.125000  0.250000      6.000000
  0.500000 -0.250000  0.125000      6.000000
  0.375000  0.375000  0.125000      6.000000
 -0.375000  0.375000  0.125000      6.000000
 -0.375000  0.125000  0.375000      6.000000
 -0.125000  0.375000  0.375000      6.000000
  0.500000  0.375000  0.125000      6.000000
 -0.375000  0.500000  0.125000      6.000000
  0.500000  0.125000  0.375000      6.000000
  0.500000 -0.375000  0.125000      6.000000
  0.500000  0.500000  0.125000      6.000000
  0.250000  0.250000  0.250000      2.000000
 -0.250000  0.250000  0.250000      6.000000
  0.375000  0.250000  0.250000      6.000000
 -0.250000  0.375000  0.250000      6.000000
 -0.375000  0.250000  0.250000      6.000000
 -0.250000  0.250000  0.375000      6.000000
  0.500000  0.250000  0.250000      6.000000
 -0.250000  0.500000  0.250000      6.000000
  0.375000  0.375000  0.250000      6.000000
 -0.375000  0.375000  0.250000      6.000000
 -0.375000  0.250000  0.375000      6.000000
 -0.250000  0.375000  0.375000      6.000000
  0.500000  0.375000  0.250000      6.000000
 -0.375000  0.500000  0.250000      6.000000
  0.500000  0.250000  0.375000      6.000000
  0.500000 -0.375000  0.250000      6.000000
  0.500000  0.500000  0.250000      6.000000
  0.375000  0.375000  0.375000      2.000000
 -0.375000  0.375000  0.375000      6.000000
  0.500000  0.375000  0.375000      6.000000
 -0.375000  0.500000  0.375000      6.000000
  0.500000  0.500000  0.375000      6.000000
  0.500000  0.500000  0.500000      1.000000
 
 Following cartesian coordinates:
            Coordinates               Weight
  0.000000  0.000000  0.000000      1.000000
  0.037631 -0.000000  0.000000      6.000000
  0.075263 -0.000000  0.000000      6.000000
  0.112894 -0.000000  0.000000      6.000000
  0.150526 -0.000000  0.000000      3.000000
  0.037631  0.037631  0.000000      6.000000
 -0.037631  0.037631  0.000000      6.000000
  0.075263  0.037631  0.000000      6.000000
 -0.037631  0.075263  0.000000      6.000000
 -0.000000  0.037631  0.075263      6.000000
 -0.000000 -0.075263  0.037631      6.000000
  0.112894  0.037631  0.000000      6.000000
 -0.037631  0.112894  0.000000      6.000000
 -0.000000  0.037631  0.112894      6.000000
 -0.000000 -0.112894  0.037631      6.000000
  0.150526  0.037631  0.000000      6.000000
 -0.037631  0.150526  0.000000      6.000000
  0.075263  0.075263  0.000000      6.000000
 -0.075263  0.075263  0.000000      6.000000
  0.112894  0.075263  0.000000      6.000000
 -0.075263  0.112894  0.000000      6.000000
 -0.000000  0.075263  0.112894      6.000000
 -0.000000 -0.112894  0.075263      6.000000
  0.150526  0.075263  0.000000      6.000000
 -0.075263  0.150526  0.000000      6.000000
  0.112894  0.112894  0.000000      6.000000
 -0.112894  0.112894  0.000000      6.000000
  0.150526  0.112894  0.000000      6.000000
 -0.112894  0.150526  0.000000      6.000000
  0.150526  0.150526  0.000000      3.000000
  0.037631  0.037631  0.037631      2.000000
 -0.037631  0.037631  0.037631      6.000000
  0.075263  0.037631  0.037631      6.000000
 -0.037631  0.075263  0.037631      6.000000
 -0.075263  0.037631  0.037631      6.000000
 -0.037631  0.037631  0.075263      6.000000
  0.112894  0.037631  0.037631      6.000000
 -0.037631  0.112894  0.037631      6.000000
 -0.112894  0.037631  0.037631      6.000000
 -0.037631  0.037631  0.112894      6.000000
  0.150526  0.037631  0.037631      6.000000
 -0.037631  0.150526  0.037631      6.000000
  0.075263  0.075263  0.037631      6.000000
 -0.075263  0.075263  0.037631      6.000000
 -0.075263  0.037631  0.075263      6.000000
 -0.037631  0.075263  0.075263      6.000000
  0.112894  0.075263  0.037631      6.000000
 -0.075263  0.112894  0.037631      6.000000
 -0.112894  0.037631  0.075263      6.000000
 -0.037631  0.075263  0.112894      6.000000
 -0.112894 -0.075263  0.037631      6.000000
 -0.037631 -0.112894  0.075263      6.000000
 -0.075263 -0.037631  0.112894      6.000000
 -0.112894 -0.037631 -0.075263      6.000000
  0.150526  0.075263  0.037631      6.000000
 -0.075263  0.150526  0.037631      6.000000
  0.150526  0.037631  0.075263      6.000000
  0.150526 -0.075263  0.037631      6.000000
  0.112894  0.112894  0.037631      6.000000
 -0.112894  0.112894  0.037631      6.000000
 -0.112894  0.037631  0.112894      6.000000
 -0.037631  0.112894  0.112894      6.000000
  0.150526  0.112894  0.037631      6.000000
 -0.112894  0.150526  0.037631      6.000000
  0.150526  0.037631  0.112894      6.000000
  0.150526 -0.112894  0.037631      6.000000
  0.150526  0.150526  0.037631      6.000000
  0.075263  0.075263  0.075263      2.000000
 -0.075263  0.075263  0.075263      6.000000
  0.112894  0.075263  0.075263      6.000000
 -0.075263  0.112894  0.075263      6.000000
 -0.112894  0.075263  0.075263      6.000000
 -0.075263  0.075263  0.112894      6.000000
  0.150526  0.075263  0.075263      6.000000
 -0.075263  0.150526  0.075263      6.000000
  0.112894  0.112894  0.075263      6.000000
 -0.112894  0.112894  0.075263      6.000000
 -0.112894  0.075263  0.112894      6.000000
 -0.075263  0.112894  0.112894      6.000000
  0.150526  0.112894  0.075263      6.000000
 -0.112894  0.150526  0.075263      6.000000
  0.150526  0.075263  0.112894      6.000000
  0.150526 -0.112894  0.075263      6.000000
  0.150526  0.150526  0.075263      6.000000
  0.112894  0.112894  0.112894      2.000000
 -0.112894  0.112894  0.112894      6.000000
  0.150526  0.112894  0.112894      6.000000
 -0.112894  0.150526  0.112894      6.000000
  0.150526  0.150526  0.112894      6.000000
  0.150526  0.150526  0.150526      1.000000
 
 
 Subroutine IBZKPT_HF returns following result:
 ==============================================
 
 Found    512 k-points in 1st BZ
 the following    512 k-points will be used (e.g. in the exchange kernel)
 Following reciprocal coordinates:   # in IRBZ
  0.000000  0.000000  0.000000    0.00195312   1 t-inv F
  0.125000 -0.000000  0.000000    0.00195312   2 t-inv F
  0.250000 -0.000000  0.000000    0.00195312   3 t-inv F
  0.375000 -0.000000  0.000000    0.00195312   4 t-inv F
  0.500000 -0.000000  0.000000    0.00195312   5 t-inv F
  0.125000  0.125000  0.000000    0.00195312   6 t-inv F
 -0.125000  0.125000  0.000000    0.00195312   7 t-inv F
  0.250000  0.125000  0.000000    0.00195312   8 t-inv F
 -0.125000  0.250000  0.000000    0.00195312   9 t-inv F
  0.000000  0.125000  0.250000    0.00195312  10 t-inv F
  0.000000 -0.250000  0.125000    0.00195312  11 t-inv F
  0.375000  0.125000  0.000000    0.00195312  12 t-inv F
 -0.125000  0.375000  0.000000    0.00195312  13 t-inv F
 -0.000000  0.125000  0.375000    0.00195312  14 t-inv F
  0.000000 -0.375000  0.125000    0.00195312  15 t-inv F
  0.500000  0.125000  0.000000    0.00195312  16 t-inv F
 -0.125000  0.500000  0.000000    0.00195312  17 t-inv F
  0.250000  0.250000  0.000000    0.00195312  18 t-inv F
 -0.250000  0.250000  0.000000    0.00195312  19 t-inv F
  0.375000  0.250000  0.000000    0.00195312  20 t-inv F
 -0.250000  0.375000  0.000000    0.00195312  21 t-inv F
 -0.000000  0.250000  0.375000    0.00195312  22 t-inv F
  0.000000 -0.375000  0.250000    0.00195312  23 t-inv F
  0.500000  0.250000  0.000000    0.00195312  24 t-inv F
 -0.250000  0.500000  0.000000    0.00195312  25 t-inv F
  0.375000  0.375000  0.000000    0.00195312  26 t-inv F
 -0.375000  0.375000  0.000000    0.00195312  27 t-inv F
  0.500000  0.375000  0.000000    0.00195312  28 t-inv F
 -0.375000  0.500000  0.000000    0.00195312  29 t-inv F
  0.500000  0.500000  0.000000    0.00195312  30 t-inv F
  0.125000  0.125000  0.125000    0.00195312  31 t-inv F
 -0.125000  0.125000  0.125000    0.00195312  32 t-inv F
  0.250000  0.125000  0.125000    0.00195312  33 t-inv F
 -0.125000  0.250000  0.125000    0.00195312  34 t-inv F
 -0.250000  0.125000  0.125000    0.00195312  35 t-inv F
 -0.125000  0.125000  0.250000    0.00195312  36 t-inv F
  0.375000  0.125000  0.125000    0.00195312  37 t-inv F
 -0.125000  0.375000  0.125000    0.00195312  38 t-inv F
 -0.375000  0.125000  0.125000    0.00195312  39 t-inv F
 -0.125000  0.125000  0.375000    0.00195312  40 t-inv F
  0.500000  0.125000  0.125000    0.00195312  41 t-inv F
 -0.125000  0.500000  0.125000    0.00195312  42 t-inv F
  0.250000  0.250000  0.125000    0.00195312  43 t-inv F
 -0.250000  0.250000  0.125000    0.00195312  44 t-inv F
 -0.250000  0.125000  0.250000    0.00195312  45 t-inv F
 -0.125000  0.250000  0.250000    0.00195312  46 t-inv F
  0.375000  0.250000  0.125000    0.00195312  47 t-inv F
 -0.250000  0.375000  0.125000    0.00195312  48 t-inv F
 -0.375000  0.125000  0.250000    0.00195312  49 t-inv F
 -0.125000  0.250000  0.375000    0.00195312  50 t-inv F
 -0.375000 -0.250000  0.125000    0.00195312  51 t-inv F
 -0.125000 -0.375000  0.250000    0.00195312  52 t-inv F
 -0.250000 -0.125000  0.375000    0.00195312  53 t-inv F
 -0.375000 -0.125000 -0.250000    0.00195312  54 t-inv F
  0.500000  0.250000  0.125000    0.00195312  55 t-inv F
 -0.250000  0.500000  0.125000    0.00195312  56 t-inv F
  0.500000  0.125000  0.250000    0.00195312  57 t-inv F
  0.500000 -0.250000  0.125000    0.00195312  58 t-inv F
  0.375000  0.375000  0.125000    0.00195312  59 t-inv F
 -0.375000  0.375000  0.125000    0.00195312  60 t-inv F
 -0.375000  0.125000  0.375000    0.00195312  61 t-inv F
 -0.125000  0.375000  0.375000    0.00195312  62 t-inv F
  0.500000  0.375000  0.125000    0.00195312  63 t-inv F
 -0.375000  0.500000  0.125000    0.00195312  64 t-inv F
  0.500000  0.125000  0.375000    0.00195312  65 t-inv F
  0.500000 -0.375000  0.125000    0.00195312  66 t-inv F
  0.500000  0.500000  0.125000    0.00195312  67 t-inv F
  0.250000  0.250000  0.250000    0.00195312  68 t-inv F
 -0.250000  0.250000  0.250000    0.00195312  69 t-inv F
  0.375000  0.250000  0.250000    0.00195312  70 t-inv F
 -0.250000  0.375000  0.250000    0.00195312  71 t-inv F
 -0.375000  0.250000  0.250000    0.00195312  72 t-inv F
 -0.250000  0.250000  0.375000    0.00195312  73 t-inv F
  0.500000  0.250000  0.250000    0.00195312  74 t-inv F
 -0.250000  0.500000  0.250000    0.00195312  75 t-inv F
  0.375000  0.375000  0.250000    0.00195312  76 t-inv F
 -0.375000  0.375000  0.250000    0.00195312  77 t-inv F
 -0.375000  0.250000  0.375000    0.00195312  78 t-inv F
 -0.250000  0.375000  0.375000    0.00195312  79 t-inv F
  0.500000  0.375000  0.250000    0.00195312  80 t-inv F
 -0.375000  0.500000  0.250000    0.00195312  81 t-inv F
  0.500000  0.250000  0.375000    0.00195312  82 t-inv F
  0.500000 -0.375000  0.250000    0.00195312  83 t-inv F
  0.500000  0.500000  0.250000    0.00195312  84 t-inv F
  0.375000  0.375000  0.375000    0.00195312  85 t-inv F
 -0.375000  0.375000  0.375000    0.00195312  86 t-inv F
  0.500000  0.375000  0.375000    0.00195312  87 t-inv F
 -0.375000  0.500000  0.375000    0.00195312  88 t-inv F
  0.500000  0.500000  0.375000    0.00195312  89 t-inv F
  0.500000  0.500000  0.500000    0.00195312  90 t-inv F
 -0.125000  0.000000  0.000000    0.00195312   2 t-inv F
  0.000000  0.125000 -0.000000    0.00195312   2 t-inv F
  0.000000 -0.125000  0.000000    0.00195312   2 t-inv F
 -0.000000  0.000000  0.125000    0.00195312   2 t-inv F
  0.000000  0.000000 -0.125000    0.00195312   2 t-inv F
 -0.250000  0.000000  0.000000    0.00195312   3 t-inv F
  0.000000  0.250000 -0.000000    0.00195312   3 t-inv F
  0.000000 -0.250000  0.000000    0.00195312   3 t-inv F
 -0.000000  0.000000  0.250000    0.00195312   3 t-inv F
  0.000000  0.000000 -0.250000    0.00195312   3 t-inv F
 -0.375000  0.000000  0.000000    0.00195312   4 t-inv F
  0.000000  0.375000 -0.000000    0.00195312   4 t-inv F
  0.000000 -0.375000  0.000000    0.00195312   4 t-inv F
 -0.000000  0.000000  0.375000    0.00195312   4 t-inv F
  0.000000  0.000000 -0.375000    0.00195312   4 t-inv F
  0.000000  0.500000 -0.000000    0.00195312   5 t-inv F
 -0.000000  0.000000  0.500000    0.00195312   5 t-inv F
 -0.125000 -0.125000  0.000000    0.00195312   6 t-inv F
  0.000000  0.125000  0.125000    0.00195312   6 t-inv F
  0.000000 -0.125000 -0.125000    0.00195312   6 t-inv F
  0.125000  0.000000  0.125000    0.00195312   6 t-inv F
 -0.125000  0.000000 -0.125000    0.00195312   6 t-inv F
  0.125000 -0.125000  0.000000    0.00195312   7 t-inv F
  0.000000 -0.125000  0.125000    0.00195312   7 t-inv F
  0.000000  0.125000 -0.125000    0.00195312   7 t-inv F
  0.125000  0.000000 -0.125000    0.00195312   7 t-inv F
 -0.125000  0.000000  0.125000    0.00195312   7 t-inv F
 -0.250000 -0.125000  0.000000    0.00195312   8 t-inv F
  0.000000  0.250000  0.125000    0.00195312   8 t-inv F
  0.000000 -0.250000 -0.125000    0.00195312   8 t-inv F
  0.125000  0.000000  0.250000    0.00195312   8 t-inv F
 -0.125000  0.000000 -0.250000    0.00195312   8 t-inv F
  0.125000 -0.250000  0.000000    0.00195312   9 t-inv F
  0.000000 -0.125000  0.250000    0.00195312   9 t-inv F
  0.000000  0.125000 -0.250000    0.00195312   9 t-inv F
  0.250000  0.000000 -0.125000    0.00195312   9 t-inv F
 -0.250000  0.000000  0.125000    0.00195312   9 t-inv F
 -0.000000 -0.125000 -0.250000    0.00195312  10 t-inv F
  0.250000  0.000000  0.125000    0.00195312  10 t-inv F
 -0.250000 -0.000000 -0.125000    0.00195312  10 t-inv F
  0.125000  0.250000  0.000000    0.00195312  10 t-inv F
 -0.125000 -0.250000 -0.000000    0.00195312  10 t-inv F
 -0.000000  0.250000 -0.125000    0.00195312  11 t-inv F
  0.125000  0.000000 -0.250000    0.00195312  11 t-inv F
 -0.125000 -0.000000  0.250000    0.00195312  11 t-inv F
 -0.250000  0.125000  0.000000    0.00195312  11 t-inv F
  0.250000 -0.125000 -0.000000    0.00195312  11 t-inv F
 -0.375000 -0.125000  0.000000    0.00195312  12 t-inv F
  0.000000  0.375000  0.125000    0.00195312  12 t-inv F
  0.000000 -0.375000 -0.125000    0.00195312  12 t-inv F
  0.125000  0.000000  0.375000    0.00195312  12 t-inv F
 -0.125000  0.000000 -0.375000    0.00195312  12 t-inv F
  0.125000 -0.375000  0.000000    0.00195312  13 t-inv F
  0.000000 -0.125000  0.375000    0.00195312  13 t-inv F
  0.000000  0.125000 -0.375000    0.00195312  13 t-inv F
  0.375000  0.000000 -0.125000    0.00195312  13 t-inv F
 -0.375000  0.000000  0.125000    0.00195312  13 t-inv F
  0.000000 -0.125000 -0.375000    0.00195312  14 t-inv F
  0.375000 -0.000000  0.125000    0.00195312  14 t-inv F
 -0.375000  0.000000 -0.125000    0.00195312  14 t-inv F
  0.125000  0.375000 -0.000000    0.00195312  14 t-inv F
 -0.125000 -0.375000  0.000000    0.00195312  14 t-inv F
 -0.000000  0.375000 -0.125000    0.00195312  15 t-inv F
  0.125000  0.000000 -0.375000    0.00195312  15 t-inv F
 -0.125000 -0.000000  0.375000    0.00195312  15 t-inv F
 -0.375000  0.125000  0.000000    0.00195312  15 t-inv F
  0.375000 -0.125000 -0.000000    0.00195312  15 t-inv F
 -0.500000 -0.125000  0.000000    0.00195312  16 t-inv F
  0.000000  0.500000  0.125000    0.00195312  16 t-inv F
  0.000000 -0.500000 -0.125000    0.00195312  16 t-inv F
  0.125000  0.000000  0.500000    0.00195312  16 t-inv F
 -0.125000  0.000000 -0.500000    0.00195312  16 t-inv F
  0.125000 -0.500000  0.000000    0.00195312  17 t-inv F
  0.000000 -0.125000  0.500000    0.00195312  17 t-inv F
  0.000000  0.125000 -0.500000    0.00195312  17 t-inv F
  0.500000  0.000000 -0.125000    0.00195312  17 t-inv F
 -0.500000  0.000000  0.125000    0.00195312  17 t-inv F
 -0.250000 -0.250000  0.000000    0.00195312  18 t-inv F
  0.000000  0.250000  0.250000    0.00195312  18 t-inv F
  0.000000 -0.250000 -0.250000    0.00195312  18 t-inv F
  0.250000  0.000000  0.250000    0.00195312  18 t-inv F
 -0.250000  0.000000 -0.250000    0.00195312  18 t-inv F
  0.250000 -0.250000  0.000000    0.00195312  19 t-inv F
  0.000000 -0.250000  0.250000    0.00195312  19 t-inv F
  0.000000  0.250000 -0.250000    0.00195312  19 t-inv F
  0.250000  0.000000 -0.250000    0.00195312  19 t-inv F
 -0.250000  0.000000  0.250000    0.00195312  19 t-inv F
 -0.375000 -0.250000  0.000000    0.00195312  20 t-inv F
  0.000000  0.375000  0.250000    0.00195312  20 t-inv F
  0.000000 -0.375000 -0.250000    0.00195312  20 t-inv F
  0.250000  0.000000  0.375000    0.00195312  20 t-inv F
 -0.250000  0.000000 -0.375000    0.00195312  20 t-inv F
  0.250000 -0.375000  0.000000    0.00195312  21 t-inv F
  0.000000 -0.250000  0.375000    0.00195312  21 t-inv F
  0.000000  0.250000 -0.375000    0.00195312  21 t-inv F
  0.375000  0.000000 -0.250000    0.00195312  21 t-inv F
 -0.375000  0.000000  0.250000    0.00195312  21 t-inv F
  0.000000 -0.250000 -0.375000    0.00195312  22 t-inv F
  0.375000 -0.000000  0.250000    0.00195312  22 t-inv F
 -0.375000  0.000000 -0.250000    0.00195312  22 t-inv F
  0.250000  0.375000 -0.000000    0.00195312  22 t-inv F
 -0.250000 -0.375000  0.000000    0.00195312  22 t-inv F
 -0.000000  0.375000 -0.250000    0.00195312  23 t-inv F
  0.250000  0.000000 -0.375000    0.00195312  23 t-inv F
 -0.250000 -0.000000  0.375000    0.00195312  23 t-inv F
 -0.375000  0.250000  0.000000    0.00195312  23 t-inv F
  0.375000 -0.250000 -0.000000    0.00195312  23 t-inv F
 -0.500000 -0.250000  0.000000    0.00195312  24 t-inv F
  0.000000  0.500000  0.250000    0.00195312  24 t-inv F
  0.000000 -0.500000 -0.250000    0.00195312  24 t-inv F
  0.250000  0.000000  0.500000    0.00195312  24 t-inv F
 -0.250000  0.000000 -0.500000    0.00195312  24 t-inv F
  0.250000 -0.500000  0.000000    0.00195312  25 t-inv F
  0.000000 -0.250000  0.500000    0.00195312  25 t-inv F
  0.000000  0.250000 -0.500000    0.00195312  25 t-inv F
  0.500000  0.000000 -0.250000    0.00195312  25 t-inv F
 -0.500000  0.000000  0.250000    0.00195312  25 t-inv F
 -0.375000 -0.375000  0.000000    0.00195312  26 t-inv F
  0.000000  0.375000  0.375000    0.00195312  26 t-inv F
  0.000000 -0.375000 -0.375000    0.00195312  26 t-inv F
  0.375000  0.000000  0.375000    0.00195312  26 t-inv F
 -0.375000  0.000000 -0.375000    0.00195312  26 t-inv F
  0.375000 -0.375000  0.000000    0.00195312  27 t-inv F
  0.000000 -0.375000  0.375000    0.00195312  27 t-inv F
  0.000000  0.375000 -0.375000    0.00195312  27 t-inv F
  0.375000  0.000000 -0.375000    0.00195312  27 t-inv F
 -0.375000  0.000000  0.375000    0.00195312  27 t-inv F
 -0.500000 -0.375000  0.000000    0.00195312  28 t-inv F
  0.000000  0.500000  0.375000    0.00195312  28 t-inv F
  0.000000 -0.500000 -0.375000    0.00195312  28 t-inv F
  0.375000  0.000000  0.500000    0.00195312  28 t-inv F
 -0.375000  0.000000 -0.500000    0.00195312  28 t-inv F
  0.375000 -0.500000  0.000000    0.00195312  29 t-inv F
  0.000000 -0.375000  0.500000    0.00195312  29 t-inv F
  0.000000  0.375000 -0.500000    0.00195312  29 t-inv F
  0.500000  0.000000 -0.375000    0.00195312  29 t-inv F
 -0.500000  0.000000  0.375000    0.00195312  29 t-inv F
  0.000000  0.500000  0.500000    0.00195312  30 t-inv F
  0.500000  0.000000  0.500000    0.00195312  30 t-inv F
 -0.125000 -0.125000 -0.125000    0.00195312  31 t-inv F
  0.125000 -0.125000 -0.125000    0.00195312  32 t-inv F
  0.125000 -0.125000  0.125000    0.00195312  32 t-inv F
 -0.125000  0.125000 -0.125000    0.00195312  32 t-inv F
  0.125000  0.125000 -0.125000    0.00195312  32 t-inv F
 -0.125000 -0.125000  0.125000    0.00195312  32 t-inv F
 -0.250000 -0.125000 -0.125000    0.00195312  33 t-inv F
  0.125000  0.250000  0.125000    0.00195312  33 t-inv F
 -0.125000 -0.250000 -0.125000    0.00195312  33 t-inv F
  0.125000  0.125000  0.250000    0.00195312  33 t-inv F
 -0.125000 -0.125000 -0.250000    0.00195312  33 t-inv F
  0.125000 -0.250000 -0.125000    0.00195312  34 t-inv F
  0.125000 -0.125000  0.250000    0.00195312  34 t-inv F
 -0.125000  0.125000 -0.250000    0.00195312  34 t-inv F
  0.250000  0.125000 -0.125000    0.00195312  34 t-inv F
 -0.250000 -0.125000  0.125000    0.00195312  34 t-inv F
  0.250000 -0.125000 -0.125000    0.00195312  35 t-inv F
  0.125000 -0.250000  0.125000    0.00195312  35 t-inv F
 -0.125000  0.250000 -0.125000    0.00195312  35 t-inv F
  0.125000  0.125000 -0.250000    0.00195312  35 t-inv F
 -0.125000 -0.125000  0.250000    0.00195312  35 t-inv F
  0.125000 -0.125000 -0.250000    0.00195312  36 t-inv F
  0.250000 -0.125000  0.125000    0.00195312  36 t-inv F
 -0.250000  0.125000 -0.125000    0.00195312  36 t-inv F
  0.125000  0.250000 -0.125000    0.00195312  36 t-inv F
 -0.125000 -0.250000  0.125000    0.00195312  36 t-inv F
 -0.375000 -0.125000 -0.125000    0.00195312  37 t-inv F
  0.125000  0.375000  0.125000    0.00195312  37 t-inv F
 -0.125000 -0.375000 -0.125000    0.00195312  37 t-inv F
  0.125000  0.125000  0.375000    0.00195312  37 t-inv F
 -0.125000 -0.125000 -0.375000    0.00195312  37 t-inv F
  0.125000 -0.375000 -0.125000    0.00195312  38 t-inv F
  0.125000 -0.125000  0.375000    0.00195312  38 t-inv F
 -0.125000  0.125000 -0.375000    0.00195312  38 t-inv F
  0.375000  0.125000 -0.125000    0.00195312  38 t-inv F
 -0.375000 -0.125000  0.125000    0.00195312  38 t-inv F
  0.375000 -0.125000 -0.125000    0.00195312  39 t-inv F
  0.125000 -0.375000  0.125000    0.00195312  39 t-inv F
 -0.125000  0.375000 -0.125000    0.00195312  39 t-inv F
  0.125000  0.125000 -0.375000    0.00195312  39 t-inv F
 -0.125000 -0.125000  0.375000    0.00195312  39 t-inv F
  0.125000 -0.125000 -0.375000    0.00195312  40 t-inv F
  0.375000 -0.125000  0.125000    0.00195312  40 t-inv F
 -0.375000  0.125000 -0.125000    0.00195312  40 t-inv F
  0.125000  0.375000 -0.125000    0.00195312  40 t-inv F
 -0.125000 -0.375000  0.125000    0.00195312  40 t-inv F
 -0.500000 -0.125000 -0.125000    0.00195312  41 t-inv F
  0.125000  0.500000  0.125000    0.00195312  41 t-inv F
 -0.125000 -0.500000 -0.125000    0.00195312  41 t-inv F
  0.125000  0.125000  0.500000    0.00195312  41 t-inv F
 -0.125000 -0.125000 -0.500000    0.00195312  41 t-inv F
  0.125000 -0.500000 -0.125000    0.00195312  42 t-inv F
  0.125000 -0.125000  0.500000    0.00195312  42 t-inv F
 -0.125000  0.125000 -0.500000    0.00195312  42 t-inv F
  0.500000  0.125000 -0.125000    0.00195312  42 t-inv F
 -0.500000 -0.125000  0.125000    0.00195312  42 t-inv F
 -0.250000 -0.250000 -0.125000    0.00195312  43 t-inv F
  0.125000  0.250000  0.250000    0.00195312  43 t-inv F
 -0.125000 -0.250000 -0.250000    0.00195312  43 t-inv F
  0.250000  0.125000  0.250000    0.00195312  43 t-inv F
 -0.250000 -0.125000 -0.250000    0.00195312  43 t-inv F
  0.250000 -0.250000 -0.125000    0.00195312  44 t-inv F
  0.125000 -0.250000  0.250000    0.00195312  44 t-inv F
 -0.125000  0.250000 -0.250000    0.00195312  44 t-inv F
  0.250000  0.125000 -0.250000    0.00195312  44 t-inv F
 -0.250000 -0.125000  0.250000    0.00195312  44 t-inv F
  0.250000 -0.125000 -0.250000    0.00195312  45 t-inv F
  0.250000 -0.250000  0.125000    0.00195312  45 t-inv F
 -0.250000  0.250000 -0.125000    0.00195312  45 t-inv F
  0.125000  0.250000 -0.250000    0.00195312  45 t-inv F
 -0.125000 -0.250000  0.250000    0.00195312  45 t-inv F
  0.125000 -0.250000 -0.250000    0.00195312  46 t-inv F
  0.250000 -0.125000  0.250000    0.00195312  46 t-inv F
 -0.250000  0.125000 -0.250000    0.00195312  46 t-inv F
  0.250000  0.250000 -0.125000    0.00195312  46 t-inv F
 -0.250000 -0.250000  0.125000    0.00195312  46 t-inv F
 -0.375000 -0.250000 -0.125000    0.00195312  47 t-inv F
  0.125000  0.375000  0.250000    0.00195312  47 t-inv F
 -0.125000 -0.375000 -0.250000    0.00195312  47 t-inv F
  0.250000  0.125000  0.375000    0.00195312  47 t-inv F
 -0.250000 -0.125000 -0.375000    0.00195312  47 t-inv F
  0.250000 -0.375000 -0.125000    0.00195312  48 t-inv F
  0.125000 -0.250000  0.375000    0.00195312  48 t-inv F
 -0.125000  0.250000 -0.375000    0.00195312  48 t-inv F
  0.375000  0.125000 -0.250000    0.00195312  48 t-inv F
 -0.375000 -0.125000  0.250000    0.00195312  48 t-inv F
  0.375000 -0.125000 -0.250000    0.00195312  49 t-inv F
  0.250000 -0.375000  0.125000    0.00195312  49 t-inv F
 -0.250000  0.375000 -0.125000    0.00195312  49 t-inv F
  0.125000  0.250000 -0.375000    0.00195312  49 t-inv F
 -0.125000 -0.250000  0.375000    0.00195312  49 t-inv F
  0.125000 -0.250000 -0.375000    0.00195312  50 t-inv F
  0.375000 -0.125000  0.250000    0.00195312  50 t-inv F
 -0.375000  0.125000 -0.250000    0.00195312  50 t-inv F
  0.250000  0.375000 -0.125000    0.00195312  50 t-inv F
 -0.250000 -0.375000  0.125000    0.00195312  50 t-inv F
  0.375000  0.250000 -0.125000    0.00195312  51 t-inv F
  0.125000 -0.375000 -0.250000    0.00195312  51 t-inv F
 -0.125000  0.375000  0.250000    0.00195312  51 t-inv F
 -0.250000  0.125000 -0.375000    0.00195312  51 t-inv F
  0.250000 -0.125000  0.375000    0.00195312  51 t-inv F
  0.125000  0.375000 -0.250000    0.00195312  52 t-inv F
  0.250000 -0.125000 -0.375000    0.00195312  52 t-inv F
 -0.250000  0.125000  0.375000    0.00195312  52 t-inv F
 -0.375000  0.250000 -0.125000    0.00195312  52 t-inv F
  0.375000 -0.250000  0.125000    0.00195312  52 t-inv F
  0.250000  0.125000 -0.375000    0.00195312  53 t-inv F
  0.375000 -0.250000 -0.125000    0.00195312  53 t-inv F
 -0.375000  0.250000  0.125000    0.00195312  53 t-inv F
 -0.125000  0.375000 -0.250000    0.00195312  53 t-inv F
  0.125000 -0.375000  0.250000    0.00195312  53 t-inv F
  0.375000  0.125000  0.250000    0.00195312  54 t-inv F
 -0.250000 -0.375000 -0.125000    0.00195312  54 t-inv F
  0.250000  0.375000  0.125000    0.00195312  54 t-inv F
 -0.125000 -0.250000 -0.375000    0.00195312  54 t-inv F
  0.125000  0.250000  0.375000    0.00195312  54 t-inv F
 -0.500000 -0.250000 -0.125000    0.00195312  55 t-inv F
  0.125000  0.500000  0.250000    0.00195312  55 t-inv F
 -0.125000 -0.500000 -0.250000    0.00195312  55 t-inv F
  0.250000  0.125000  0.500000    0.00195312  55 t-inv F
 -0.250000 -0.125000 -0.500000    0.00195312  55 t-inv F
  0.250000 -0.500000 -0.125000    0.00195312  56 t-inv F
  0.125000 -0.250000  0.500000    0.00195312  56 t-inv F
 -0.125000  0.250000 -0.500000    0.00195312  56 t-inv F
  0.500000  0.125000 -0.250000    0.00195312  56 t-inv F
 -0.500000 -0.125000  0.250000    0.00195312  56 t-inv F
 -0.500000 -0.125000 -0.250000    0.00195312  57 t-inv F
  0.250000  0.500000  0.125000    0.00195312  57 t-inv F
 -0.250000 -0.500000 -0.125000    0.00195312  57 t-inv F
  0.125000  0.250000  0.500000    0.00195312  57 t-inv F
 -0.125000 -0.250000 -0.500000    0.00195312  57 t-inv F
 -0.500000  0.250000 -0.125000    0.00195312  58 t-inv F
  0.125000  0.500000 -0.250000    0.00195312  58 t-inv F
 -0.125000 -0.500000  0.250000    0.00195312  58 t-inv F
 -0.250000  0.125000  0.500000    0.00195312  58 t-inv F
  0.250000 -0.125000 -0.500000    0.00195312  58 t-inv F
 -0.375000 -0.375000 -0.125000    0.00195312  59 t-inv F
  0.125000  0.375000  0.375000    0.00195312  59 t-inv F
 -0.125000 -0.375000 -0.375000    0.00195312  59 t-inv F
  0.375000  0.125000  0.375000    0.00195312  59 t-inv F
 -0.375000 -0.125000 -0.375000    0.00195312  59 t-inv F
  0.375000 -0.375000 -0.125000    0.00195312  60 t-inv F
  0.125000 -0.375000  0.375000    0.00195312  60 t-inv F
 -0.125000  0.375000 -0.375000    0.00195312  60 t-inv F
  0.375000  0.125000 -0.375000    0.00195312  60 t-inv F
 -0.375000 -0.125000  0.375000    0.00195312  60 t-inv F
  0.375000 -0.125000 -0.375000    0.00195312  61 t-inv F
  0.375000 -0.375000  0.125000    0.00195312  61 t-inv F
 -0.375000  0.375000 -0.125000    0.00195312  61 t-inv F
  0.125000  0.375000 -0.375000    0.00195312  61 t-inv F
 -0.125000 -0.375000  0.375000    0.00195312  61 t-inv F
  0.125000 -0.375000 -0.375000    0.00195312  62 t-inv F
  0.375000 -0.125000  0.375000    0.00195312  62 t-inv F
 -0.375000  0.125000 -0.375000    0.00195312  62 t-inv F
  0.375000  0.375000 -0.125000    0.00195312  62 t-inv F
 -0.375000 -0.375000  0.125000    0.00195312  62 t-inv F
 -0.500000 -0.375000 -0.125000    0.00195312  63 t-inv F
  0.125000  0.500000  0.375000    0.00195312  63 t-inv F
 -0.125000 -0.500000 -0.375000    0.00195312  63 t-inv F
  0.375000  0.125000  0.500000    0.00195312  63 t-inv F
 -0.375000 -0.125000 -0.500000    0.00195312  63 t-inv F
  0.375000 -0.500000 -0.125000    0.00195312  64 t-inv F
  0.125000 -0.375000  0.500000    0.00195312  64 t-inv F
 -0.125000  0.375000 -0.500000    0.00195312  64 t-inv F
  0.500000  0.125000 -0.375000    0.00195312  64 t-inv F
 -0.500000 -0.125000  0.375000    0.00195312  64 t-inv F
 -0.500000 -0.125000 -0.375000    0.00195312  65 t-inv F
  0.375000  0.500000  0.125000    0.00195312  65 t-inv F
 -0.375000 -0.500000 -0.125000    0.00195312  65 t-inv F
  0.125000  0.375000  0.500000    0.00195312  65 t-inv F
 -0.125000 -0.375000 -0.500000    0.00195312  65 t-inv F
 -0.500000  0.375000 -0.125000    0.00195312  66 t-inv F
  0.125000  0.500000 -0.375000    0.00195312  66 t-inv F
 -0.125000 -0.500000  0.375000    0.00195312  66 t-inv F
 -0.375000  0.125000  0.500000    0.00195312  66 t-inv F
  0.375000 -0.125000 -0.500000    0.00195312  66 t-inv F
 -0.500000 -0.500000 -0.125000    0.00195312  67 t-inv F
  0.125000  0.500000  0.500000    0.00195312  67 t-inv F
 -0.125000 -0.500000 -0.500000    0.00195312  67 t-inv F
  0.500000  0.125000  0.500000    0.00195312  67 t-inv F
 -0.500000 -0.125000 -0.500000    0.00195312  67 t-inv F
 -0.250000 -0.250000 -0.250000    0.00195312  68 t-inv F
  0.250000 -0.250000 -0.250000    0.00195312  69 t-inv F
  0.250000 -0.250000  0.250000    0.00195312  69 t-inv F
 -0.250000  0.250000 -0.250000    0.00195312  69 t-inv F
  0.250000  0.250000 -0.250000    0.00195312  69 t-inv F
 -0.250000 -0.250000  0.250000    0.00195312  69 t-inv F
 -0.375000 -0.250000 -0.250000    0.00195312  70 t-inv F
  0.250000  0.375000  0.250000    0.00195312  70 t-inv F
 -0.250000 -0.375000 -0.250000    0.00195312  70 t-inv F
  0.250000  0.250000  0.375000    0.00195312  70 t-inv F
 -0.250000 -0.250000 -0.375000    0.00195312  70 t-inv F
  0.250000 -0.375000 -0.250000    0.00195312  71 t-inv F
  0.250000 -0.250000  0.375000    0.00195312  71 t-inv F
 -0.250000  0.250000 -0.375000    0.00195312  71 t-inv F
  0.375000  0.250000 -0.250000    0.00195312  71 t-inv F
 -0.375000 -0.250000  0.250000    0.00195312  71 t-inv F
  0.375000 -0.250000 -0.250000    0.00195312  72 t-inv F
  0.250000 -0.375000  0.250000    0.00195312  72 t-inv F
 -0.250000  0.375000 -0.250000    0.00195312  72 t-inv F
  0.250000  0.250000 -0.375000    0.00195312  72 t-inv F
 -0.250000 -0.250000  0.375000    0.00195312  72 t-inv F
  0.250000 -0.250000 -0.375000    0.00195312  73 t-inv F
  0.375000 -0.250000  0.250000    0.00195312  73 t-inv F
 -0.375000  0.250000 -0.250000    0.00195312  73 t-inv F
  0.250000  0.375000 -0.250000    0.00195312  73 t-inv F
 -0.250000 -0.375000  0.250000    0.00195312  73 t-inv F
 -0.500000 -0.250000 -0.250000    0.00195312  74 t-inv F
  0.250000  0.500000  0.250000    0.00195312  74 t-inv F
 -0.250000 -0.500000 -0.250000    0.00195312  74 t-inv F
  0.250000  0.250000  0.500000    0.00195312  74 t-inv F
 -0.250000 -0.250000 -0.500000    0.00195312  74 t-inv F
  0.250000 -0.500000 -0.250000    0.00195312  75 t-inv F
  0.250000 -0.250000  0.500000    0.00195312  75 t-inv F
 -0.250000  0.250000 -0.500000    0.00195312  75 t-inv F
  0.500000  0.250000 -0.250000    0.00195312  75 t-inv F
 -0.500000 -0.250000  0.250000    0.00195312  75 t-inv F
 -0.375000 -0.375000 -0.250000    0.00195312  76 t-inv F
  0.250000  0.375000  0.375000    0.00195312  76 t-inv F
 -0.250000 -0.375000 -0.375000    0.00195312  76 t-inv F
  0.375000  0.250000  0.375000    0.00195312  76 t-inv F
 -0.375000 -0.250000 -0.375000    0.00195312  76 t-inv F
  0.375000 -0.375000 -0.250000    0.00195312  77 t-inv F
  0.250000 -0.375000  0.375000    0.00195312  77 t-inv F
 -0.250000  0.375000 -0.375000    0.00195312  77 t-inv F
  0.375000  0.250000 -0.375000    0.00195312  77 t-inv F
 -0.375000 -0.250000  0.375000    0.00195312  77 t-inv F
  0.375000 -0.250000 -0.375000    0.00195312  78 t-inv F
  0.375000 -0.375000  0.250000    0.00195312  78 t-inv F
 -0.375000  0.375000 -0.250000    0.00195312  78 t-inv F
  0.250000  0.375000 -0.375000    0.00195312  78 t-inv F
 -0.250000 -0.375000  0.375000    0.00195312  78 t-inv F
  0.250000 -0.375000 -0.375000    0.00195312  79 t-inv F
  0.375000 -0.250000  0.375000    0.00195312  79 t-inv F
 -0.375000  0.250000 -0.375000    0.00195312  79 t-inv F
  0.375000  0.375000 -0.250000    0.00195312  79 t-inv F
 -0.375000 -0.375000  0.250000    0.00195312  79 t-inv F
 -0.500000 -0.375000 -0.250000    0.00195312  80 t-inv F
  0.250000  0.500000  0.375000    0.00195312  80 t-inv F
 -0.250000 -0.500000 -0.375000    0.00195312  80 t-inv F
  0.375000  0.250000  0.500000    0.00195312  80 t-inv F
 -0.375000 -0.250000 -0.500000    0.00195312  80 t-inv F
  0.375000 -0.500000 -0.250000    0.00195312  81 t-inv F
  0.250000 -0.375000  0.500000    0.00195312  81 t-inv F
 -0.250000  0.375000 -0.500000    0.00195312  81 t-inv F
  0.500000  0.250000 -0.375000    0.00195312  81 t-inv F
 -0.500000 -0.250000  0.375000    0.00195312  81 t-inv F
 -0.500000 -0.250000 -0.375000    0.00195312  82 t-inv F
  0.375000  0.500000  0.250000    0.00195312  82 t-inv F
 -0.375000 -0.500000 -0.250000    0.00195312  82 t-inv F
  0.250000  0.375000  0.500000    0.00195312  82 t-inv F
 -0.250000 -0.375000 -0.500000    0.00195312  82 t-inv F
 -0.500000  0.375000 -0.250000    0.00195312  83 t-inv F
  0.250000  0.500000 -0.375000    0.00195312  83 t-inv F
 -0.250000 -0.500000  0.375000    0.00195312  83 t-inv F
 -0.375000  0.250000  0.500000    0.00195312  83 t-inv F
  0.375000 -0.250000 -0.500000    0.00195312  83 t-inv F
 -0.500000 -0.500000 -0.250000    0.00195312  84 t-inv F
  0.250000  0.500000  0.500000    0.00195312  84 t-inv F
 -0.250000 -0.500000 -0.500000    0.00195312  84 t-inv F
  0.500000  0.250000  0.500000    0.00195312  84 t-inv F
 -0.500000 -0.250000 -0.500000    0.00195312  84 t-inv F
 -0.375000 -0.375000 -0.375000    0.00195312  85 t-inv F
  0.375000 -0.375000 -0.375000    0.00195312  86 t-inv F
  0.375000 -0.375000  0.375000    0.00195312  86 t-inv F
 -0.375000  0.375000 -0.375000    0.00195312  86 t-inv F
  0.375000  0.375000 -0.375000    0.00195312  86 t-inv F
 -0.375000 -0.375000  0.375000    0.00195312  86 t-inv F
 -0.500000 -0.375000 -0.375000    0.00195312  87 t-inv F
  0.375000  0.500000  0.375000    0.00195312  87 t-inv F
 -0.375000 -0.500000 -0.375000    0.00195312  87 t-inv F
  0.375000  0.375000  0.500000    0.00195312  87 t-inv F
 -0.375000 -0.375000 -0.500000    0.00195312  87 t-inv F
  0.375000 -0.500000 -0.375000    0.00195312  88 t-inv F
  0.375000 -0.375000  0.500000    0.00195312  88 t-inv F
 -0.375000  0.375000 -0.500000    0.00195312  88 t-inv F
  0.500000  0.375000 -0.375000    0.00195312  88 t-inv F
 -0.500000 -0.375000  0.375000    0.00195312  88 t-inv F
 -0.500000 -0.500000 -0.375000    0.00195312  89 t-inv F
  0.375000  0.500000  0.500000    0.00195312  89 t-inv F
 -0.375000 -0.500000 -0.500000    0.00195312  89 t-inv F
  0.500000  0.375000  0.500000    0.00195312  89 t-inv F
 -0.500000 -0.375000 -0.500000    0.00195312  89 t-inv F


--------------------------------------------------------------------------------------------------------




 Dimension of arrays:
   k-points           NKPTS =     90   k-points in BZ     NKDIM =     90   number of bands    NBANDS=     48
   number of dos      NEDOS =    301   number of ions     NIONS =      2
   non local maximal  LDIM  =      6   non local SUM 2l+1 LMDIM =     18
   total plane-waves  NPLWV =   2744
   max r-space proj   IRMAX =      1   max aug-charges    IRDMAX=   4405
   dimension x,y,z NGX =    14 NGY =   14 NGZ =   14
   dimension x,y,z NGXF=    28 NGYF=   28 NGZF=   28
   support grid    NGXF=    28 NGYF=   28 NGZF=   28
   ions per type =               2
   NGX,Y,Z   is equivalent  to a cutoff of   7.01,  7.01,  7.01 a.u.
   NGXF,Y,Z  is equivalent  to a cutoff of  14.01, 14.01, 14.01 a.u.

 SYSTEM =  Ta                                      
 POSCAR =  Ta2                                     

 Startparameter for this run:
   NWRITE =      2    write-flag & timer
   PREC   = normal    normal or accurate (medium, high low for compatibility)
   ISTART =      1    job   : 0-new  1-cont  2-samecut
   ICHARG =      0    charge: 1-file 2-atom 10-const
   ISPIN  =      1    spin polarized calculation?
   LNONCOLLINEAR =      T non collinear calculations
   LSORBIT =      T    spin-orbit coupling
   INIWAV =      1    electr: 0-lowe 1-rand  2-diag
   LASPH  =      F    aspherical Exc in radial PAW
 Electronic Relaxation 1
   ENCUT  =  290.8 eV  21.37 Ry    4.62 a.u.   4.62  4.62  4.62*2*pi/ulx,y,z
   ENINI  =  290.8     initial cutoff
   ENAUG  =  377.4 eV  augmentation charge cutoff
   NELM   =     60;   NELMIN=  2; NELMDL=  0     # of ELM steps 
   EDIFF  = 0.1E-03   stopping-criterion for ELM
   LREAL  =      F    real-space projection
   NLSPLINE    = F    spline interpolate recip. space projectors
   LCOMPAT=      F    compatible to vasp.4.4
   GGA_COMPAT  = T    GGA compatible to vasp.4.4-vasp.4.6
   LMAXPAW     = -100 max onsite density
   LMAXMIX     =    2 max onsite mixed and CHGCAR
   VOSKOWN=      0    Vosko Wilk Nusair interpolation
   ROPT   =    0.00000
 Ionic relaxation
   EDIFFG = 0.1E-02   stopping-criterion for IOM
   NSW    =      0    number of steps for IOM
   NBLOCK =      1;   KBLOCK =      1    inner block; outer block 
   IBRION =     -1    ionic relax: 0-MD 1-quasi-New 2-CG
   NFREE  =      0    steps in history (QN), initial steepest desc. (CG)
   ISIF   =      2    stress and relaxation
   IWAVPR =     10    prediction:  0-non 1-charg 2-wave 3-comb
   ISYM   =      2    0-nonsym 1-usesym 2-fastsym
   LCORR  =      T    Harris-Foulkes like correction to forces

   POTIM  = 0.5000    time-step for ionic-motion
   TEIN   =    0.0    initial temperature
   TEBEG  =    0.0;   TEEND  =   0.0 temperature during run
   SMASS  =  -3.00    Nose mass-parameter (am)
   estimated Nose-frequenzy (Omega)   =  0.10E-29 period in steps = 0.13E+47 mass=  -0.252E-27a.u.
   SCALEE = 1.0000    scale energy and forces
   NPACO  =    256;   APACO  = 10.0  distance and # of slots for P.C.
   PSTRESS=    0.0 pullay stress

  Mass of Ions in am
   POMASS = 180.95
  Ionic Valenz
   ZVAL   =  11.00
  Atomic Wigner-Seitz radii
   RWIGS  =  -1.00
  virtual crystal weights 
   VCA    =   1.00
   NELECT =      22.0000    total number of electrons
   NUPDOWN=      -1.0000    fix difference up-down

 DOS related values:
   EMIN   =  10.00;   EMAX   =-10.00  energy-range for DOS
   EFERMI =   0.00;   METHOD = LEGACY      
   ISMEAR =     0;   SIGMA  =   0.05  broadening in eV -4-tet -1-fermi 0-gaus

 Electronic relaxation 2 (details)
   IALGO  =     38    algorithm
   LDIAG  =      T    sub-space diagonalisation (order eigenvalues)
   LSUBROT=      F    optimize rotation matrix (better conditioning)
   TURBO    =      0    0=normal 1=particle mesh
   IRESTART =      0    0=no restart 2=restart with 2 vectors
   NREBOOT  =      0    no. of reboots
   NMIN     =      0    reboot dimension
   EREF     =   0.00    reference energy to select bands
   IMIX   =      4    mixing-type and parameters
     AMIX     =   0.40;   BMIX     =  1.00
     AMIX_MAG =   1.60;   BMIX_MAG =  1.00
     AMIN     =   0.10
     WC   =   100.;   INIMIX=   1;  MIXPRE=   1;  MAXMIX= -45

 Intra band minimization:
   WEIMIN = 0.0000     energy-eigenvalue tresh-hold
   EBREAK =  0.52E-06  absolut break condition
   DEPER  =   0.30     relativ break condition  

   TIME   =   0.40     timestep for ELM

  volume/ion in A,a.u.               =      18.33       123.66
  Fermi-wavevector in a.u.,A,eV,Ry     =   1.380988  2.609689 25.948056  1.907128
  Thomas-Fermi vector in A             =   2.505814
 
 Write flags
   LWAVE        =      T    write WAVECAR
   LDOWNSAMPLE  =      F    k-point downsampling of WAVECAR
   LCHARG       =      T    write CHGCAR
   LVTOT        =      F    write LOCPOT, total local potential
   LVHAR        =      F    write LOCPOT, Hartree potential only
   WRT_POTENTIAL= false  ! write potential to hdf5 file
   LELF         =      F    write electronic localiz. function (ELF)
   LORBIT       =      0    0 simple, 1 ext, 2 COOP (PROOUT), +10 PAW based schemes


 Dipole corrections
   LMONO      =      F    monopole corrections only (constant potential shift)
   LDIPOL     =      F    correct potential (dipole corrections)
   IDIPOL     =      0    1-x, 2-y, 3-z, 4-all directions 
   EPSILON    =  1.0000000 bulk dielectric constant
   LVACPOTAV  =      F  vacuum potentials using an averaging scheme for the charge density
   VACPOTFLAT =  0.1000000 required flatness to determine vacuum potential
 Exchange correlation treatment:
   GGA     = PE    functional components
   XC_C    = 1    coefficients multiplying the functional components
   LIBXC   =     F    Libxc                    
   VOSKOWN =     0    Vosko Wilk Nusair interpolation
   LHFCALC =     F    Hartree Fock is set to
   LHFONE  =     F    Hartree Fock one center treatment
   AEXX    =    0.0000 exact exchange contribution

 Parameters of functionals:
   PE:
     No parameter
 
 Van der Waals corrections
   IVDW    =     0    specifies the selected vdW correction

 Linear response parameters
   LEPSILON=     F    determine dielectric tensor
   LRPA    =     F    only Hartree local field effects (RPA)
   LNABLA  =     F    use nabla operator in PAW spheres
   LVEL    =     F    velocity operator in full k-point grid
   CSHIFT  =0.1000    complex shift for real part using Kramers Kronig
   OMEGAMAX=  -1.0    maximum frequency
   DEG_THRESHOLD= 0.2000000E-02 threshold for treating states as degnerate
   RTIME   =   -0.100 relaxation time in fs
  (WPLASMAI=    0.000 imaginary part of plasma frequency in eV, 0.658/RTIME)
   DFIELD  = 0.0000000 0.0000000 0.0000000 field for delta impulse in time
 
  Optional k-point grid parameters
   LKPOINTS_OPT  =     T    use optional k-point grid
   KPOINTS_OPT_MODE=     1    mode for optional k-point grid
 
 Orbital magnetization related:
   ORBITALMAG=     F  switch on orbital magnetization
   LCHIMAG   =     F  perturbation theory with respect to B field
   DQ        =  0.001000  dq finite difference perturbation B field
   LLRAUG    =     F  two centre corrections for induced B field
   LBONE     =     F  B-component reconstruction in AE one-centre
   LVGVCALC  =     T  calculate vGv susceptibility
   LVGVAPPL  =     F  apply vGv susceptibility instead of pGv for G=0

 Random number generation:
   RANDOM_GENERATOR = DEFAULT
   PCG_SEED         = not used


--------------------------------------------------------------------------------------------------------


 Static calculation
 charge density and potential will be updated during run
 non collinear spin polarized calculation
 Variant of blocked Davidson
 Davidson routine will perform the subspace rotation
 perform sub-space diagonalisation
    after iterative eigenvector-optimisation
 modified Broyden-mixing scheme, WC =      100.0
 initial mixing is a Kerker type mixing with AMIX =  0.4000 and BMIX =      1.0000
 Hartree-type preconditioning will be used
 using additional bands           37
 reciprocal scheme for non local part
 use partial core corrections
 calculate Harris-corrections to forces 
   (improved forces if not selfconsistent)
 use gradient corrections 
 use of overlap-Matrix (Vanderbilt PP)
 Gauss-broadening in eV      SIGMA  =   0.05


--------------------------------------------------------------------------------------------------------


  energy-cutoff  :      290.77
  volume of cell :       36.65
      direct lattice vectors                 reciprocal lattice vectors
     3.321690000  0.000000000  0.000000000     0.301051573 -0.000000000  0.000000000
     0.000000000  3.321690000  0.000000000     0.000000000  0.301051573  0.000000000
     0.000000000  0.000000000  3.321690000    -0.000000000 -0.000000000  0.301051573

  length of vectors
     3.321690000  3.321690000  3.321690000     0.301051573  0.301051573  0.301051573


 
 old parameters found on file WAVECAR:
  energy-cutoff  :      290.77
  volume of cell :       36.65
      direct lattice vectors                 reciprocal lattice vectors
     3.321690000  0.000000000  0.000000000     0.301051573 -0.000000000  0.000000000
     0.000000000  3.321690000  0.000000000     0.000000000  0.301051573  0.000000000
     0.000000000  0.000000000  3.321690000    -0.000000000 -0.000000000  0.301051573

  length of vectors

 
 k-points in units of 2pi/SCALE and weight: Automatic kpoint scheme                 
   0.00000000  0.00000000  0.00000000       0.002
   0.03763145 -0.00000000  0.00000000       0.012
   0.07526289 -0.00000000  0.00000000       0.012
   0.11289434 -0.00000000  0.00000000       0.012
   0.15052579 -0.00000000  0.00000000       0.006
   0.03763145  0.03763145  0.00000000       0.012
  -0.03763145  0.03763145  0.00000000       0.012
   0.07526289  0.03763145  0.00000000       0.012
  -0.03763145  0.07526289  0.00000000       0.012
  -0.00000000  0.03763145  0.07526289       0.012
  -0.00000000 -0.07526289  0.03763145       0.012
   0.11289434  0.03763145  0.00000000       0.012
  -0.03763145  0.11289434  0.00000000       0.012
  -0.00000000  0.03763145  0.11289434       0.012
  -0.00000000 -0.11289434  0.03763145       0.012
   0.15052579  0.03763145  0.00000000       0.012
  -0.03763145  0.15052579  0.00000000       0.012
   0.07526289  0.07526289  0.00000000       0.012
  -0.07526289  0.07526289  0.00000000       0.012
   0.11289434  0.07526289  0.00000000       0.012
  -0.07526289  0.11289434  0.00000000       0.012
  -0.00000000  0.07526289  0.11289434       0.012
  -0.00000000 -0.11289434  0.07526289       0.012
   0.15052579  0.07526289  0.00000000       0.012
  -0.07526289  0.15052579  0.00000000       0.012
   0.11289434  0.11289434  0.00000000       0.012
  -0.11289434  0.11289434  0.00000000       0.012
   0.15052579  0.11289434  0.00000000       0.012
  -0.11289434  0.15052579  0.00000000       0.012
   0.15052579  0.15052579  0.00000000       0.006
   0.03763145  0.03763145  0.03763145       0.004
  -0.03763145  0.03763145  0.03763145       0.012
   0.07526289  0.03763145  0.03763145       0.012
  -0.03763145  0.07526289  0.03763145       0.012
  -0.07526289  0.03763145  0.03763145       0.012
  -0.03763145  0.03763145  0.07526289       0.012
   0.11289434  0.03763145  0.03763145       0.012
  -0.03763145  0.11289434  0.03763145       0.012
  -0.11289434  0.03763145  0.03763145       0.012
  -0.03763145  0.03763145  0.11289434       0.012
   0.15052579  0.03763145  0.03763145       0.012
  -0.03763145  0.15052579  0.03763145       0.012
   0.07526289  0.07526289  0.03763145       0.012
  -0.07526289  0.07526289  0.03763145       0.012
  -0.07526289  0.03763145  0.07526289       0.012
  -0.03763145  0.07526289  0.07526289       0.012
   0.11289434  0.07526289  0.03763145       0.012
  -0.07526289  0.11289434  0.03763145       0.012
  -0.11289434  0.03763145  0.07526289       0.012
  -0.03763145  0.07526289  0.11289434       0.012
  -0.11289434 -0.07526289  0.03763145       0.012
  -0.03763145 -0.11289434  0.07526289       0.012
  -0.07526289 -0.03763145  0.11289434       0.012
  -0.11289434 -0.03763145 -0.07526289       0.012
   0.15052579  0.07526289  0.03763145       0.012
  -0.07526289  0.15052579  0.03763145       0.012
   0.15052579  0.03763145  0.07526289       0.012
   0.15052579 -0.07526289  0.03763145       0.012
   0.11289434  0.11289434  0.03763145       0.012
  -0.11289434  0.11289434  0.03763145       0.012
  -0.11289434  0.03763145  0.11289434       0.012
  -0.03763145  0.11289434  0.11289434       0.012
   0.15052579  0.11289434  0.03763145       0.012
  -0.11289434  0.15052579  0.03763145       0.012
   0.15052579  0.03763145  0.11289434       0.012
   0.15052579 -0.11289434  0.03763145       0.012
   0.15052579  0.15052579  0.03763145       0.012
   0.07526289  0.07526289  0.07526289       0.004
  -0.07526289  0.07526289  0.07526289       0.012
   0.11289434  0.07526289  0.07526289       0.012
  -0.07526289  0.11289434  0.07526289       0.012
  -0.11289434  0.07526289  0.07526289       0.012
  -0.07526289  0.07526289  0.11289434       0.012
   0.15052579  0.07526289  0.07526289       0.012
  -0.07526289  0.15052579  0.07526289       0.012
   0.11289434  0.11289434  0.07526289       0.012
  -0.11289434  0.11289434  0.07526289       0.012
  -0.11289434  0.07526289  0.11289434       0.012
  -0.07526289  0.11289434  0.11289434       0.012
   0.15052579  0.11289434  0.07526289       0.012
  -0.11289434  0.15052579  0.07526289       0.012
   0.15052579  0.07526289  0.11289434       0.012
   0.15052579 -0.11289434  0.07526289       0.012
   0.15052579  0.15052579  0.07526289       0.012
   0.11289434  0.11289434  0.11289434       0.004
  -0.11289434  0.11289434  0.11289434       0.012
   0.15052579  0.11289434  0.11289434       0.012
  -0.11289434  0.15052579  0.11289434       0.012
   0.15052579  0.15052579  0.11289434       0.012
   0.15052579  0.15052579  0.15052579       0.002
 
 k-points in reciprocal lattice and weights: Automatic kpoint scheme                 
   0.00000000  0.00000000  0.00000000       0.002
   0.12500000 -0.00000000  0.00000000       0.012
   0.25000000 -0.00000000  0.00000000       0.012
   0.37500000 -0.00000000  0.00000000       0.012
   0.50000000 -0.00000000  0.00000000       0.006
   0.12500000  0.12500000  0.00000000       0.012
  -0.12500000  0.12500000  0.00000000       0.012
   0.25000000  0.12500000  0.00000000       0.012
  -0.12500000  0.25000000  0.00000000       0.012
   0.00000000  0.12500000  0.25000000       0.012
   0.00000000 -0.25000000  0.12500000       0.012
   0.37500000  0.12500000  0.00000000       0.012
  -0.12500000  0.37500000  0.00000000       0.012
  -0.00000000  0.12500000  0.37500000       0.012
   0.00000000 -0.37500000  0.12500000       0.012
   0.50000000  0.12500000  0.00000000       0.012
  -0.12500000  0.50000000  0.00000000       0.012
   0.25000000  0.25000000  0.00000000       0.012
  -0.25000000  0.25000000  0.00000000       0.012
   0.37500000  0.25000000  0.00000000       0.012
  -0.25000000  0.37500000  0.00000000       0.012
  -0.00000000  0.25000000  0.37500000       0.012
   0.00000000 -0.37500000  0.25000000       0.012
   0.50000000  0.25000000  0.00000000       0.012
  -0.25000000  0.50000000  0.00000000       0.012
   0.37500000  0.37500000  0.00000000       0.012
  -0.37500000  0.37500000  0.00000000       0.012
   0.50000000  0.37500000  0.00000000       0.012
  -0.37500000  0.50000000  0.00000000       0.012
   0.50000000  0.50000000  0.00000000       0.006
   0.12500000  0.12500000  0.12500000       0.004
  -0.12500000  0.12500000  0.12500000       0.012
   0.25000000  0.12500000  0.12500000       0.012
  -0.12500000  0.25000000  0.12500000       0.012
  -0.25000000  0.12500000  0.12500000       0.012
  -0.12500000  0.12500000  0.25000000       0.012
   0.37500000  0.12500000  0.12500000       0.012
  -0.12500000  0.37500000  0.12500000       0.012
  -0.37500000  0.12500000  0.12500000       0.012
  -0.12500000  0.12500000  0.37500000       0.012
   0.50000000  0.12500000  0.12500000       0.012
  -0.12500000  0.50000000  0.12500000       0.012
   0.25000000  0.25000000  0.12500000       0.012
  -0.25000000  0.25000000  0.12500000       0.012
  -0.25000000  0.12500000  0.25000000       0.012
  -0.12500000  0.25000000  0.25000000       0.012
   0.37500000  0.25000000  0.12500000       0.012
  -0.25000000  0.37500000  0.12500000       0.012
  -0.37500000  0.12500000  0.25000000       0.012
  -0.12500000  0.25000000  0.37500000       0.012
  -0.37500000 -0.25000000  0.12500000       0.012
  -0.12500000 -0.37500000  0.25000000       0.012
  -0.25000000 -0.12500000  0.37500000       0.012
  -0.37500000 -0.12500000 -0.25000000       0.012
   0.50000000  0.25000000  0.12500000       0.012
  -0.25000000  0.50000000  0.12500000       0.012
   0.50000000  0.12500000  0.25000000       0.012
   0.50000000 -0.25000000  0.12500000       0.012
   0.37500000  0.37500000  0.12500000       0.012
  -0.37500000  0.37500000  0.12500000       0.012
  -0.37500000  0.12500000  0.37500000       0.012
  -0.12500000  0.37500000  0.37500000       0.012
   0.50000000  0.37500000  0.12500000       0.012
  -0.37500000  0.50000000  0.12500000       0.012
   0.50000000  0.12500000  0.37500000       0.012
   0.50000000 -0.37500000  0.12500000       0.012
   0.50000000  0.50000000  0.12500000       0.012
   0.25000000  0.25000000  0.25000000       0.004
  -0.25000000  0.25000000  0.25000000       0.012
   0.37500000  0.25000000  0.25000000       0.012
  -0.25000000  0.37500000  0.25000000       0.012
  -0.37500000  0.25000000  0.25000000       0.012
  -0.25000000  0.25000000  0.37500000       0.012
   0.50000000  0.25000000  0.25000000       0.012
  -0.25000000  0.50000000  0.25000000       0.012
   0.37500000  0.37500000  0.25000000       0.012
  -0.37500000  0.37500000  0.25000000       0.012
  -0.37500000  0.25000000  0.37500000       0.012
  -0.25000000  0.37500000  0.37500000       0.012
   0.50000000  0.37500000  0.25000000       0.012
  -0.37500000  0.50000000  0.25000000       0.012
   0.50000000  0.25000000  0.37500000       0.012
   0.50000000 -0.37500000  0.25000000       0.012
   0.50000000  0.50000000  0.25000000       0.012
   0.37500000  0.37500000  0.37500000       0.004
  -0.37500000  0.37500000  0.37500000       0.012
   0.50000000  0.37500000  0.37500000       0.012
  -0.37500000  0.50000000  0.37500000       0.012
   0.50000000  0.50000000  0.37500000       0.012
   0.50000000  0.50000000  0.50000000       0.002
 
 position of ions in fractional coordinates (direct lattice) 
   0.00000000  0.00000000  0.00000000
   0.50000000  0.50000000  0.50000000
 
 position of ions in cartesian coordinates  (Angst):
   0.00000000  0.00000000  0.00000000
   1.66084500  1.66084500  1.66084500
 
 Euler angles ALPHA=     0.0000000  BETA=     0.0000000

 transformation matrix from SAXIS to cartesian coordinates
 ---------------------------------------------------------
     1.0000000 m_x     0.0000000 m_y     0.0000000 m_z
     0.0000000 m_x     1.0000000 m_y     0.0000000 m_z
     0.0000000 m_x     0.0000000 m_y     1.0000000 m_z

 transformation matrix from cartesian coordinates to SAXIS
 ---------------------------------------------------------
     1.0000000 m_x     0.0000000 m_y     0.0000000 m_z
     0.0000000 m_x     1.0000000 m_y     0.0000000 m_z
     0.0000000 m_x     0.0000000 m_y     1.0000000 m_z




--------------------------------------------------------------------------------------------------------


 k-point     1 :   0.0000 0.0000 0.0000  plane waves:     874
 k-point     2 :   0.1250-0.0000 0.0000  plane waves:     858
 k-point     3 :   0.2500-0.0000 0.0000  plane waves:     842
 k-point     4 :   0.3750-0.0000 0.0000  plane waves:     826
 k-point     5 :   0.5000-0.0000 0.0000  plane waves:     836
 k-point     6 :   0.1250 0.1250 0.0000  plane waves:     842
 k-point     7 :  -0.1250 0.1250 0.0000  plane waves:     842
 k-point     8 :   0.2500 0.1250 0.0000  plane waves:     844
 k-point     9 :  -0.1250 0.2500 0.0000  plane waves:     844
 k-point    10 :   0.0000 0.1250 0.2500  plane waves:     844
 k-point    11 :   0.0000-0.2500 0.1250  plane waves:     844
 k-point    12 :   0.3750 0.1250 0.0000  plane waves:     824
 k-point    13 :  -0.1250 0.3750 0.0000  plane waves:     824
 k-point    14 :  -0.0000 0.1250 0.3750  plane waves:     824
 k-point    15 :   0.0000-0.3750 0.1250  plane waves:     824
 k-point    16 :   0.5000 0.1250 0.0000  plane waves:     840
 k-point    17 :  -0.1250 0.5000 0.0000  plane waves:     840
 k-point    18 :   0.2500 0.2500 0.0000  plane waves:     830
 k-point    19 :  -0.2500 0.2500 0.0000  plane waves:     830
 k-point    20 :   0.3750 0.2500 0.0000  plane waves:     818
 k-point    21 :  -0.2500 0.3750 0.0000  plane waves:     818
 k-point    22 :  -0.0000 0.2500 0.3750  plane waves:     818
 k-point    23 :   0.0000-0.3750 0.2500  plane waves:     818
 k-point    24 :   0.5000 0.2500 0.0000  plane waves:     848
 k-point    25 :  -0.2500 0.5000 0.0000  plane waves:     848
 k-point    26 :   0.3750 0.3750 0.0000  plane waves:     816
 k-point    27 :  -0.3750 0.3750 0.0000  plane waves:     816
 k-point    28 :   0.5000 0.3750 0.0000  plane waves:     796
 k-point    29 :  -0.3750 0.5000 0.0000  plane waves:     796
 k-point    30 :   0.5000 0.5000 0.0000  plane waves:     776
 k-point    31 :   0.1250 0.1250 0.1250  plane waves:     838
 k-point    32 :  -0.1250 0.1250 0.1250  plane waves:     838
 k-point    33 :   0.2500 0.1250 0.1250  plane waves:     830
 k-point    34 :  -0.1250 0.2500 0.1250  plane waves:     830
 k-point    35 :  -0.2500 0.1250 0.1250  plane waves:     830
 k-point    36 :  -0.1250 0.1250 0.2500  plane waves:     830
 k-point    37 :   0.3750 0.1250 0.1250  plane waves:     830
 k-point    38 :  -0.1250 0.3750 0.1250  plane waves:     830
 k-point    39 :  -0.3750 0.1250 0.1250  plane waves:     830
 k-point    40 :  -0.1250 0.1250 0.3750  plane waves:     830
 k-point    41 :   0.5000 0.1250 0.1250  plane waves:     832
 k-point    42 :  -0.1250 0.5000 0.1250  plane waves:     832
 k-point    43 :   0.2500 0.2500 0.1250  plane waves:     824
 k-point    44 :  -0.2500 0.2500 0.1250  plane waves:     824
 k-point    45 :  -0.2500 0.1250 0.2500  plane waves:     824
 k-point    46 :  -0.1250 0.2500 0.2500  plane waves:     824
 k-point    47 :   0.3750 0.2500 0.1250  plane waves:     824
 k-point    48 :  -0.2500 0.3750 0.1250  plane waves:     824
 k-point    49 :  -0.3750 0.1250 0.2500  plane waves:     824
 k-point    50 :  -0.1250 0.2500 0.3750  plane waves:     824
 k-point    51 :  -0.3750-0.2500 0.1250  plane waves:     824
 k-point    52 :  -0.1250-0.3750 0.2500  plane waves:     824
 k-point    53 :  -0.2500-0.1250 0.3750  plane waves:     824
 k-point    54 :  -0.3750-0.1250-0.2500  plane waves:     824
 k-point    55 :   0.5000 0.2500 0.1250  plane waves:     832
 k-point    56 :  -0.2500 0.5000 0.1250  plane waves:     832
 k-point    57 :   0.5000 0.1250 0.2500  plane waves:     832
 k-point    58 :   0.5000-0.2500 0.1250  plane waves:     832
 k-point    59 :   0.3750 0.3750 0.1250  plane waves:     814
 k-point    60 :  -0.3750 0.3750 0.1250  plane waves:     814
 k-point    61 :  -0.3750 0.1250 0.3750  plane waves:     814
 k-point    62 :  -0.1250 0.3750 0.3750  plane waves:     814
 k-point    63 :   0.5000 0.3750 0.1250  plane waves:     804
 k-point    64 :  -0.3750 0.5000 0.1250  plane waves:     804
 k-point    65 :   0.5000 0.1250 0.3750  plane waves:     804
 k-point    66 :   0.5000-0.3750 0.1250  plane waves:     804
 k-point    67 :   0.5000 0.5000 0.1250  plane waves:     808
 k-point    68 :   0.2500 0.2500 0.2500  plane waves:     832
 k-point    69 :  -0.2500 0.2500 0.2500  plane waves:     832
 k-point    70 :   0.3750 0.2500 0.2500  plane waves:     832
 k-point    71 :  -0.2500 0.3750 0.2500  plane waves:     832
 k-point    72 :  -0.3750 0.2500 0.2500  plane waves:     832
 k-point    73 :  -0.2500 0.2500 0.3750  plane waves:     832
 k-point    74 :   0.5000 0.2500 0.2500  plane waves:     808
 k-point    75 :  -0.2500 0.5000 0.2500  plane waves:     808
 k-point    76 :   0.3750 0.3750 0.2500  plane waves:     818
 k-point    77 :  -0.3750 0.3750 0.2500  plane waves:     818
 k-point    78 :  -0.3750 0.2500 0.3750  plane waves:     818
 k-point    79 :  -0.2500 0.3750 0.3750  plane waves:     818
 k-point    80 :   0.5000 0.3750 0.2500  plane waves:     832
 k-point    81 :  -0.3750 0.5000 0.2500  plane waves:     832
 k-point    82 :   0.5000 0.2500 0.3750  plane waves:     832
 k-point    83 :   0.5000-0.3750 0.2500  plane waves:     832
 k-point    84 :   0.5000 0.5000 0.2500  plane waves:     824
 k-point    85 :   0.3750 0.3750 0.3750  plane waves:     816
 k-point    86 :  -0.3750 0.3750 0.3750  plane waves:     816
 k-point    87 :   0.5000 0.3750 0.3750  plane waves:     832
 k-point    88 :  -0.3750 0.5000 0.3750  plane waves:     832
 k-point    89 :   0.5000 0.5000 0.3750  plane waves:     824
 k-point    90 :   0.5000 0.5000 0.5000  plane waves:     864

 maximum and minimum number of plane-waves per node :       874      776

 maximum number of plane-waves:       874
 maximum index in each direction: 
   IXMAX=    4   IYMAX=    4   IZMAX=    4
   IXMIN=   -5   IYMIN=   -5   IZMIN=   -5


 serial   3D FFT for wavefunctions
 parallel 3D FFT for charge:
    minimum data exchange during FFTs selected (reduces bandwidth)


 total amount of memory used by VASP MPI-rank0    38484. kBytes
=======================================================================

   base      :      30000. kBytes
   nonl-proj :       6236. kBytes
   fftplans  :         78. kBytes
   grid      :        526. kBytes
   one-center:        124. kBytes
   wavefun   :       1520. kBytes
 
     INWAV:  cpu time      0.1905: real time      0.1905
 Broyden mixing: mesh for mixing (old mesh)
   NGX =  9   NGY =  9   NGZ =  9
  (NGX  = 28   NGY  = 28   NGZ  = 28)
  gives a total of    729 points

 charge density for first step will be calculated from the start-wavefunctions


--------------------------------------------------------------------------------------------------------


 Maximum index for augmentation-charges          305 (set IRDMAX)


--------------------------------------------------------------------------------------------------------


 initial charge from wavefunction
 First call to EWALD:  gamma=   0.534
 Maximum number of real-space cells 3x 3x 3
 Maximum number of reciprocal cells 3x 3x 3

    FEWALD:  cpu time      0.0020: real time      0.0020


--------------------------------------- Ionic step        1  -------------------------------------------




--------------------------------------- Iteration      1(   1)  ---------------------------------------


    POTLOK:  cpu time      0.0056: real time      0.0073
    SETDIJ:  cpu time      0.0069: real time      0.0070
     EDDAV:  cpu time      0.6781: real time      0.6806
       DOS:  cpu time      0.0018: real time      0.0020
    CHARGE:  cpu time      0.0063: real time      0.0063
    MIXING:  cpu time      0.0006: real time      0.0010
    --------------------------------------------
      LOOP:  cpu time      0.6993: real time      0.7040

 eigenvalue-minimisations  :  4848
[...]
  0.000  -0.000  -0.000  -0.000  -0.000  -0.000   0.000  -0.000  -0.000  -0.000  -0.000  -0.000   0.000   0.000   0.000   0.000
 pseudopotential strength for first ion, spin component:           4
-31.648   0.000   0.000  -0.000   0.000  -2.533   7.684  -0.000  -0.000   0.000  -0.000   1.681  -0.000   0.000  -0.000   0.000
  0.000  -0.000 -31.648   0.000   0.000  -0.000  -0.000   0.000   7.684  -0.000  -0.000   0.000   0.000   0.000  -0.000  -0.000
  0.000   2.533   0.000  -0.000 -31.648   0.000  -0.000  -1.681  -0.000   0.000   7.684  -0.000  -0.000  -0.000   0.000   0.000
  7.684  -0.000  -0.000   0.000  -0.000   1.681   6.247   0.000   0.000  -0.000   0.000  -1.115   0.000  -0.000   0.000  -0.000
 -0.000   0.000   7.684  -0.000  -0.000   0.000   0.000  -0.000   6.247   0.000   0.000  -0.000  -0.000  -0.000   0.000   0.000
 -0.000  -1.681  -0.000   0.000   7.684  -0.000   0.000   1.115   0.000  -0.000   6.247   0.000   0.000   0.000  -0.000  -0.000
 -0.000   0.000   0.000   0.000  -0.000  -0.000   0.000  -0.000  -0.000  -0.000   0.000   0.000  -6.680   0.000   0.000  -0.000
 -0.000   0.000  -0.000  -0.000   0.000   0.000   0.000  -0.000   0.000   0.000  -0.000  -0.000   0.000  -0.000  -6.680   0.000
  0.000   0.000  -0.000   0.000   0.000  -0.000  -0.000  -0.000   0.000  -0.000  -0.000   0.000  -0.000  -0.000  -0.000  -0.000
  0.000   0.000  -0.000   0.000  -0.000   0.000  -0.000  -0.000   0.000  -0.000   0.000  -0.000   0.000  -0.000   0.000   0.104
  0.000   0.000   0.000   0.000  -0.000   0.000  -0.000  -0.000  -0.000  -0.000  -0.000  -0.000  -0.000   0.208  -0.000   0.000
 -0.000   0.000   0.000   0.000  -0.000  -0.000   0.000  -0.000  -0.000  -0.000   0.000   0.000  -8.135   0.000   0.000  -0.000
 -0.000   0.000  -0.000  -0.000   0.000   0.000   0.000  -0.000   0.000   0.000  -0.000  -0.000   0.000  -0.000  -8.135   0.000
  0.000   0.000  -0.000   0.000   0.000  -0.000  -0.000  -0.000   0.000  -0.000  -0.000   0.000  -0.000  -0.000  -0.000  -0.000
  0.000   0.000   0.000   0.000  -0.000   0.000  -0.000  -0.000   0.000  -0.000   0.000  -0.000   0.000  -0.000   0.000   0.132
  0.000   0.000   0.000   0.000  -0.000   0.000  -0.000  -0.000  -0.000  -0.000  -0.000  -0.000  -0.000   0.265  -0.000   0.000
  0.000   0.000   0.000  -0.000   0.000  -0.000  -0.000  -0.000  -0.000   0.000   0.000   0.000  -0.000  -0.000  -0.000   0.000
  0.000   0.000   0.000  -0.000  -0.000  -0.000   0.000   0.000   0.000  -0.000   0.000  -0.000  -0.000  -0.000  -0.000   0.000
 total augmentation occupancy for first ion, spin component:           1
  1.993  -0.000  -0.000  -0.011  -0.000  -0.000   0.000   0.000   0.000   0.000   0.000  -0.000   0.000   0.000   0.000   0.000
 -0.000   1.993  -0.000  -0.000  -0.011  -0.000   0.000   0.000  -0.000   0.000   0.000   0.000   0.000  -0.000   0.000   0.000
 -0.000  -0.000   1.993  -0.000  -0.000  -0.011   0.000   0.000  -0.000  -0.000   0.000   0.000   0.000   0.000   0.000   0.000
 -0.011  -0.000  -0.000   0.157  -0.000  -0.000   0.000   0.000   0.000   0.000   0.000   0.000   0.000  -0.000   0.000  -0.000
 -0.000  -0.011  -0.000  -0.000   0.157  -0.000   0.000   0.000   0.000   0.000   0.000   0.000   0.000   0.000   0.000   0.000
 -0.000  -0.000  -0.011  -0.000  -0.000   0.157   0.000   0.000   0.000   0.000   0.000   0.000   0.000   0.000   0.000   0.000
  0.000   0.000   0.000   0.000   0.000   0.000   5.708  -0.000  -0.000  -0.000  -0.000  -3.008  -0.000   0.000  -0.000  -0.000
  0.000   0.000   0.000   0.000   0.000   0.000  -0.000   5.708   0.000  -0.000  -0.000  -0.000  -3.008  -0.000  -0.000   0.000
  0.000   0.000  -0.000  -0.000   0.000  -0.000  -0.000   0.000   5.209   0.000   0.000   0.000  -0.000  -2.881  -0.000  -0.000
  0.000   0.000  -0.000   0.000   0.000   0.000  -0.000  -0.000   0.000   5.708   0.000  -0.000  -0.000  -0.000  -3.008  -0.000
  0.000   0.000  -0.000  -0.000  -0.000  -0.000  -0.000  -0.000  -0.000   0.000   5.209   0.000   0.000   0.000  -0.000  -2.881
 -0.000   0.000   0.000   0.000   0.000   0.000  -3.008  -0.000   0.000  -0.000   0.000   1.622   0.000  -0.000   0.000  -0.000
  0.000   0.000   0.000   0.000   0.000   0.000  -0.000  -3.008  -0.000  -0.000   0.000   0.000   1.622   0.000   0.000  -0.000
 -0.000  -0.000   0.000   0.000   0.000  -0.000   0.000  -0.000  -2.881  -0.000   0.000  -0.000   0.000   1.614   0.000   0.000
  0.000   0.000   0.000   0.000   0.000   0.000  -0.000  -0.000  -0.000  -3.008  -0.000   0.000   0.000   0.000   1.622   0.000
  0.000   0.000   0.000   0.000   0.000  -0.000  -0.000   0.000  -0.000  -0.000  -2.881  -0.000  -0.000   0.000   0.000   1.614
  0.000   0.000   0.000   0.000   0.000   0.000   0.000   0.000  -0.000   0.000   0.000  -0.000  -0.000   0.000  -0.000   0.000
  0.000  -0.000   0.000   0.000   0.000   0.000  -0.000  -0.000   0.000  -0.000  -0.000   0.000   0.000  -0.000   0.000   0.000
 total augmentation occupancy for first ion, spin component:           2
 -0.000  -0.000  -0.000  -0.000  -0.000   0.000   0.000  -0.000   0.000   0.000  -0.000   0.000   0.000  -0.000   0.000   0.000
 -0.000  -0.000  -0.000  -0.000  -0.000   0.000  -0.000   0.000   0.000   0.000   0.000   0.000  -0.000   0.000   0.000   0.000
 -0.000  -0.000  -0.000  -0.000  -0.000  -0.000  -0.000   0.000   0.000   0.000  -0.000   0.000   0.000   0.000   0.000   0.000
 -0.000  -0.000  -0.000  -0.000  -0.000   0.000   0.000   0.000   0.000   0.000   0.000   0.000   0.000   0.000   0.000  -0.000
 -0.000  -0.000  -0.000  -0.000  -0.000   0.000   0.000  -0.000  -0.000  -0.000   0.000   0.000  -0.000  -0.000  -0.000   0.000
  0.000   0.000  -0.000   0.000   0.000  -0.000   0.000   0.000  -0.000   0.000   0.000  -0.000  -0.000   0.000   0.000   0.000
  0.000   0.000   0.000  -0.000  -0.000  -0.000  -0.001   0.000   0.000  -0.000   0.000   0.000   0.000  -0.000   0.000  -0.000
 -0.000  -0.000   0.000   0.000  -0.000   0.000   0.000  -0.001  -0.000   0.000   0.000  -0.000   0.000   0.000  -0.000  -0.000
 -0.000   0.000   0.000   0.000  -0.000  -0.000   0.000  -0.000  -0.000  -0.000   0.000  -0.000   0.000   0.000   0.000  -0.000
  0.000   0.000   0.000  -0.000   0.000   0.000  -0.000   0.000  -0.000  -0.001   0.000   0.000   0.000   0.000   0.000  -0.000
  0.000   0.000  -0.000  -0.000   0.000  -0.000   0.000   0.000   0.000   0.000  -0.000  -0.000  -0.000  -0.000  -0.000   0.000
  0.000   0.000   0.000   0.000  -0.000   0.000   0.000  -0.000  -0.000   0.000  -0.000  -0.000   0.000   0.000  -0.000   0.000
  0.000  -0.000  -0.000   0.000  -0.000   0.000   0.000   0.000   0.000   0.000  -0.000   0.000  -0.000   0.000   0.000  -0.000
  0.000   0.000   0.000  -0.000   0.000   0.000  -0.000   0.000   0.000   0.000  -0.000   0.000   0.000   0.000  -0.000   0.000
  0.000   0.000   0.000   0.000   0.000   0.000   0.000  -0.000   0.000   0.000  -0.000  -0.000   0.000  -0.000  -0.000   0.000
  0.000  -0.000   0.000   0.000   0.000   0.000  -0.000  -0.000  -0.000  -0.000   0.000   0.000  -0.000   0.000   0.000  -0.000
  0.000   0.000   0.000   0.000   0.000   0.000  -0.000   0.000   0.000  -0.000  -0.000   0.000  -0.000  -0.000   0.000   0.000
  0.000   0.000   0.000   0.000   0.000   0.000   0.000  -0.000  -0.000   0.000   0.000  -0.000   0.000   0.000  -0.000  -0.000
 total augmentation occupancy for first ion, spin component:           3
 -0.000  -0.000  -0.000  -0.000  -0.000  -0.000   0.000   0.000  -0.000   0.000  -0.000  -0.000   0.000   0.000  -0.000  -0.000
 -0.000  -0.000  -0.000   0.000  -0.000  -0.000  -0.000  -0.000  -0.000   0.000   0.000   0.000  -0.000   0.000   0.000  -0.000
 -0.000  -0.000  -0.000   0.000  -0.000  -0.000  -0.000   0.000   0.000   0.000   0.000   0.000   0.000  -0.000   0.000   0.000
 -0.000   0.000   0.000  -0.000   0.000   0.000   0.000   0.000  -0.000   0.000  -0.000   0.000   0.000  -0.000   0.000   0.000
 -0.000  -0.000  -0.000   0.000  -0.000  -0.000   0.000  -0.000   0.000  -0.000   0.000  -0.000  -0.000  -0.000  -0.000   0.000
 -0.000  -0.000  -0.000   0.000  -0.000  -0.000   0.000  -0.000   0.000   0.000   0.000   0.000   0.000   0.000   0.000  -0.000
  0.000  -0.000  -0.000   0.000   0.000   0.000  -0.001  -0.000   0.000   0.000  -0.000   0.000   0.000  -0.000   0.000   0.000
  0.000   0.000   0.000   0.000   0.000   0.000  -0.000  -0.001  -0.000   0.000  -0.000   0.000   0.000   0.000   0.000   0.000
  0.000   0.000   0.000  -0.000  -0.000   0.000   0.000  -0.000  -0.000  -0.000  -0.000  -0.000   0.000   0.000   0.000   0.000
  0.000   0.000   0.000   0.000   0.000   0.000   0.000   0.000  -0.000  -0.001  -0.000  -0.000  -0.000   0.000   0.000   0.000
  0.000   0.000  -0.000   0.000   0.000   0.000  -0.000  -0.000  -0.000  -0.000  -0.000   0.000   0.000   0.000   0.000   0.000
  0.000   0.000   0.000   0.000   0.000   0.000   0.000   0.000  -0.000  -0.000   0.000  -0.000  -0.000   0.000   0.000  -0.000
  0.000   0.000   0.000  -0.000   0.000   0.000   0.000   0.000   0.000  -0.000   0.000  -0.000  -0.000  -0.000   0.000  -0.000
  0.000   0.000   0.000   0.000   0.000  -0.000  -0.000   0.000   0.000   0.000   0.000   0.000  -0.000   0.000   0.000  -0.000
  0.000   0.000   0.000   0.000   0.000  -0.000   0.000   0.000   0.000   0.000   0.000   0.000   0.000   0.000  -0.000   0.000
  0.000   0.000  -0.000  -0.000   0.000   0.000   0.000   0.000   0.000   0.000   0.000  -0.000  -0.000  -0.000   0.000  -0.000
  0.000  -0.000  -0.000   0.000   0.000   0.000  -0.000  -0.000   0.000   0.000   0.000   0.000   0.000  -0.000  -0.000  -0.000
 -0.000   0.000  -0.000   0.000   0.000   0.000   0.000   0.000  -0.000  -0.000  -0.000  -0.000  -0.000   0.000   0.000   0.000
 total augmentation occupancy for first ion, spin component:           4
 -0.000  -0.000  -0.000  -0.000   0.000  -0.000   0.000   0.000  -0.000  -0.000  -0.000  -0.000  -0.000   0.000   0.000   0.000
 -0.000  -0.000  -0.000  -0.000  -0.000  -0.000   0.000  -0.000   0.000   0.000  -0.000   0.000   0.000   0.000   0.000   0.000
 -0.000  -0.000  -0.000  -0.000   0.000  -0.000   0.000   0.000   0.000   0.000   0.000   0.000  -0.000   0.000   0.000  -0.000
 -0.000  -0.000  -0.000  -0.000   0.000  -0.000  -0.000  -0.000  -0.000  -0.000   0.000   0.000   0.000   0.000   0.000  -0.000
  0.000  -0.000   0.000   0.000  -0.000   0.000   0.000   0.000   0.000  -0.000  -0.000   0.000  -0.000  -0.000   0.000   0.000
 -0.000  -0.000  -0.000  -0.000   0.000  -0.000   0.000   0.000  -0.000  -0.000  -0.000   0.000  -0.000  -0.000   0.000  -0.000
  0.000   0.000   0.000  -0.000   0.000   0.000  -0.001   0.000   0.000   0.000  -0.000   0.000  -0.000  -0.000  -0.000   0.000
  0.000  -0.000  -0.000  -0.000   0.000  -0.000   0.000  -0.001   0.000  -0.000   0.000   0.000   0.000  -0.000   0.000  -0.000
 -0.000   0.000   0.000  -0.000  -0.000   0.000   0.000   0.000  -0.000   0.000  -0.000  -0.000  -0.000   0.000  -0.000   0.000
  0.000   0.000   0.000   0.000   0.000   0.000   0.000  -0.000   0.000  -0.001  -0.000   0.000   0.000  -0.000   0.000   0.000
  0.000  -0.000   0.000   0.000  -0.000  -0.000  -0.000   0.000  -0.000  -0.000  -0.000   0.000  -0.000   0.000   0.000  -0.000
 -0.000   0.000   0.000   0.000   0.000   0.000   0.000   0.000  -0.000   0.000   0.000  -0.000   0.000  -0.000   0.000  -0.000
  0.000   0.000   0.000   0.000   0.000  -0.000  -0.000   0.000  -0.000   0.000  -0.000   0.000  -0.000   0.000  -0.000   0.000
  0.000   0.000  -0.000  -0.000   0.000   0.000  -0.000  -0.000   0.000  -0.000   0.000  -0.000   0.000  -0.000   0.000  -0.000
  0.000   0.000   0.000  -0.000  -0.000   0.000  -0.000   0.000  -0.000   0.000   0.000   0.000  -0.000   0.000  -0.000  -0.000
 -0.000   0.000   0.000   0.000  -0.000   0.000   0.000  -0.000   0.000   0.000  -0.000  -0.000   0.000  -0.000  -0.000   0.000
 -0.000   0.000  -0.000  -0.000   0.000  -0.000   0.000  -0.000  -0.000  -0.000   0.000  -0.000   0.000   0.000   0.000  -0.000
  0.000   0.000   0.000   0.000   0.000   0.000  -0.000   0.000   0.000   0.000  -0.000   0.000  -0.000  -0.000  -0.000   0.000


------------------------ aborting loop because EDIFF is reached ----------------------------------------


    CHARGE:  cpu time      0.0063: real time      0.0063
    FORLOC:  cpu time      0.0001: real time      0.0001
    FORNL :  cpu time      0.0188: real time      0.0189
    STRESS:  cpu time      0.1129: real time      0.1129
    FORCOR:  cpu time      0.0039: real time      0.0042
    FORHAR:  cpu time      0.0005: real time      0.0006
    MIXING:  cpu time      0.0006: real time      0.0006
    OFIELD:  cpu time      0.0000: real time      0.0000

  FORCE on cell =-STRESS in cart. coord.  units (eV):
  Direction    XX          YY          ZZ          XY          YZ          ZX
  --------------------------------------------------------------------------------------
  Alpha Z   250.20582   250.20582   250.20582
  Ewald    -636.31326  -636.31326  -636.31326     0.00000     0.00000     0.00000
  Hartree    75.02466    75.02466    75.02466    -0.00001    -0.00001    -0.00001
  E(xc)     -93.74511   -93.74511   -93.74511     0.00000     0.00000     0.00000
  Local     199.49312   199.49312   199.49312     0.00003     0.00003     0.00003
  n-local  -100.19446   -99.91113   -96.84910    -0.07078     0.20699    -0.13625
  augment    43.33150    43.33150    43.33150     0.00000     0.00000     0.00000
  Kinetic   255.83394   258.59248   267.83931     0.25860    -0.61192     0.35331
  Fock        0.00000     0.00000     0.00000     0.00000     0.00000     0.00000
  -------------------------------------------------------------------------------------
  Total      -0.23292    -0.23292    -0.23292     0.00001     0.00001     0.00001
  in kB     -10.18202   -10.18202   -10.18202     0.00042     0.00042     0.00042
  external pressure =      -10.18 kB  Pullay stress =        0.00 kB


 VOLUME and BASIS-vectors are now :
 -----------------------------------------------------------------------------
  energy-cutoff  :      290.77
  volume of cell :       36.65
      direct lattice vectors                 reciprocal lattice vectors
     3.321690000  0.000000000  0.000000000     0.301051573 -0.000000000  0.000000000
     0.000000000  3.321690000  0.000000000     0.000000000  0.301051573  0.000000000
     0.000000000  0.000000000  3.321690000    -0.000000000 -0.000000000  0.301051573

  length of vectors
     3.321690000  3.321690000  3.321690000     0.301051573  0.301051573  0.301051573


 FORCES acting on ions
    electron-ion (+dipol)            ewald-force                    non-local-force                 convergence-correction
 -----------------------------------------------------------------------------------------------
   -.168E-13 -.137E-13 -.142E-13   0.617E-14 -.324E-14 -.555E-14   -.112E-22 0.111E-22 0.603E-23   0.136E-13 -.157E-14 -.454E-14
   0.917E-13 0.928E-13 0.921E-13   -.382E-14 0.678E-14 0.395E-14   -.139E-21 -.363E-22 -.337E-22   -.289E-13 -.247E-15 -.118E-13
 -----------------------------------------------------------------------------------------------
   0.749E-13 0.791E-13 0.779E-13   0.235E-14 0.354E-14 -.160E-14   -.150E-21 -.252E-22 -.277E-22   -.154E-13 -.182E-14 -.164E-13
 
 
 POSITION                                       TOTAL-FORCE (eV/Angst)
 -----------------------------------------------------------------------------------
      0.00000      0.00000      0.00000        -0.000000      0.000000      0.000000
      1.66085      1.66084      1.66085         0.000000     -0.000000     -0.000000
 -----------------------------------------------------------------------------------
    total drift:                                0.000000      0.000000      0.000000


--------------------------------------------------------------------------------------------------------



  FREE ENERGIE OF THE ION-ELECTRON SYSTEM (eV)
  ---------------------------------------------------
  free  energy   TOTEN  =       -25.03348347 eV

  energy  without entropy=      -25.02871415  energy(sigma->0) =      -25.03109881
 


--------------------------------------------------------------------------------------------------------


    POTLOK:  cpu time      0.0108: real time      0.0109


--------------------------------------------------------------------------------------------------------


 writing wavefunctions
     LOOP+:  cpu time     18.9119: real time     18.9380
    4ORBIT:  cpu time      0.0000: real time      0.0000

 Spin-Orbit-Coupling matrix elements

 Ion:    1  E_soc:     -1.4064317
 l=   1
     0.0000000    -0.2135494    -0.2135494
    -0.2135494     0.0000000    -0.2135494
    -0.2135494    -0.2135494     0.0000000
 l=   2
     0.0000000    -0.0051259     0.0000000    -0.0051259    -0.0157300
    -0.0051259     0.0000000    -0.0117975    -0.0051259    -0.0039325
     0.0000000    -0.0117975     0.0000000    -0.0117975     0.0000000
    -0.0051259    -0.0051259    -0.0117975     0.0000000    -0.0039325
    -0.0157300    -0.0039325     0.0000000    -0.0039325     0.0000000
 l=   3
     0.0000000     0.0000000     0.0000000     0.0000000     0.0000000     0.0000000     0.0000000
     0.0000000     0.0000000     0.0000000     0.0000000     0.0000000     0.0000000     0.0000000
     0.0000000     0.0000000     0.0000000     0.0000000     0.0000000     0.0000000     0.0000000
     0.0000000     0.0000000     0.0000000     0.0000000     0.0000000     0.0000000     0.0000000
     0.0000000     0.0000000     0.0000000     0.0000000     0.0000000     0.0000000     0.0000000
     0.0000000     0.0000000     0.0000000     0.0000000     0.0000000     0.0000000     0.0000000
     0.0000000     0.0000000     0.0000000     0.0000000     0.0000000     0.0000000     0.0000000

 Ion:    2  E_soc:     -1.4064317
 l=   1
     0.0000000    -0.2135494    -0.2135494
    -0.2135494     0.0000000    -0.2135494
    -0.2135494    -0.2135494     0.0000000
 l=   2
     0.0000000    -0.0051259     0.0000000    -0.0051259    -0.0157300
    -0.0051259     0.0000000    -0.0117975    -0.0051259    -0.0039325
     0.0000000    -0.0117975     0.0000000    -0.0117975     0.0000000
    -0.0051259    -0.0051259    -0.0117975     0.0000000    -0.0039325
    -0.0157300    -0.0039325     0.0000000    -0.0039325     0.0000000
 l=   3
     0.0000000     0.0000000     0.0000000     0.0000000     0.0000000     0.0000000     0.0000000
     0.0000000     0.0000000     0.0000000     0.0000000     0.0000000     0.0000000     0.0000000
     0.0000000     0.0000000     0.0000000     0.0000000     0.0000000     0.0000000     0.0000000
     0.0000000     0.0000000     0.0000000     0.0000000     0.0000000     0.0000000     0.0000000
     0.0000000     0.0000000     0.0000000     0.0000000     0.0000000     0.0000000     0.0000000
     0.0000000     0.0000000     0.0000000     0.0000000     0.0000000     0.0000000     0.0000000
     0.0000000     0.0000000     0.0000000     0.0000000     0.0000000     0.0000000     0.0000000

 total amount of memory used by VASP MPI-rank0    38484. kBytes
=======================================================================

   base      :      30000. kBytes
   nonl-proj :       6236. kBytes
   fftplans  :         78. kBytes
   grid      :        526. kBytes
   one-center:        124. kBytes
   wavefun   :       1520. kBytes
 
  
  
 General timing and accounting informations for this job:
 ========================================================
  
                  Total CPU time used (sec):       19.647
                            User time (sec):       19.135
                          System time (sec):        0.512
                         Elapsed time (sec):       19.964
  
                   Maximum memory used (kb):      219412.
                   Average memory used (kb):          N/A
  
                          Minor page faults:        22139
                          Major page faults:            0
                 Voluntary context switches:         3726
