Unloading intel-oneapi-compilers/2021.4.0
  Unloading dependent: vasp/6.4.3 intel-mpi/2019-intel
  Unloading useless requirement: wannier90/3.1.0-intel21-impi
intel-mpi: using intel wrappers for mpicc, mpif77, etc

Loading vasp/6.4.3
  Loading requirement: wannier90/3.1.0-intel21-impi
    intel-oneapi-compilers/2021.4.0 intel-mpi/2019-intel intel-mkl/2020
 running   48 mpi-ranks, with    1 threads/rank, on    4 nodes
 distrk:  each k-point on   48 cores,    1 groups
 distr:  one band on    1 cores,   48 groups
 vasp.6.4.3 19Mar24 (build Jun 27 2024 09:34:32) complex                        
  
 POSCAR found type information on POSCAR Ta
 POSCAR found :  1 types and       2 ions
 -----------------------------------------------------------------------------
|                                                                             |
|           W    W    AA    RRRRR   N    N  II  N    N   GGGG   !!!           |
|           W    W   A  A   R    R  NN   N  II  NN   N  G    G  !!!           |
|           W    W  A    A  R    R  N N  N  II  N N  N  G       !!!           |
|           W WW W  AAAAAA  RRRRR   N  N N  II  N  N N  G  GGG   !            |
|           WW  WW  A    A  R   R   N   NN  II  N   NN  G    G                |
|           W    W  A    A  R    R  N    N  II  N    N   GGGG   !!!           |
|                                                                             |
|     You use a magnetic or noncollinear calculation, but did not specify     |
|     the initial magnetic moment with the MAGMOM tag. Note that a            |
|     default of 1 will be used for all atoms. This ferromagnetic setup       |
|     may break the symmetry of the crystal, in particular it may rule        |
|     out finding an antiferromagnetic solution. Thence, we recommend         |
|     setting the initial magnetic moment manually or verifying carefully     |
|     that this magnetic setup is desired.                                    |
|                                                                             |
 -----------------------------------------------------------------------------

 scaLAPACK will be used
 LDA part: xc-table for (Slater+PW92), standard interpolation
 POSCAR, INCAR and KPOINTS ok, starting setup
 FFT: planning ... GRIDC
 FFT: planning ... GRID_SOFT
 FFT: planning ... GRID
 WAVECAR not read
 entering main loop
       N       E                     dE             d eps       ncg     rms          rms(c)
DAV:   1     0.118876555246E+02    0.11888E+02   -0.11056E+04  8640   0.631E+02
DAV:   2    -0.252970768181E+02   -0.37185E+02   -0.37002E+02 11712   0.103E+02
DAV:   3    -0.253856208597E+02   -0.88544E-01   -0.88526E-01  9408   0.657E+00
DAV:   4    -0.253857322176E+02   -0.11136E-03   -0.11136E-03 16080   0.181E-01
DAV:   5    -0.253857322180E+02   -0.43019E-09   -0.64235E-09  9408   0.437E-04    0.212E+01
DAV:   6    -0.251879269270E+02    0.19781E+00   -0.12030E+00 13872   0.848E+00    0.101E+01
DAV:   7    -0.250423754905E+02    0.14555E+00   -0.80029E-01 11088   0.491E+00    0.397E+00
DAV:   8    -0.250361232905E+02    0.62522E-02   -0.52479E-02 12528   0.167E+00    0.100E+00
DAV:   9    -0.250336584309E+02    0.24649E-02   -0.28119E-03 11136   0.378E-01    0.287E-01
DAV:  10    -0.250334270098E+02    0.23142E-03   -0.32011E-03 12096   0.301E-01    0.815E-02
DAV:  11    -0.250334879799E+02   -0.60970E-04   -0.10791E-04  9360   0.538E-02
   1 F= -.25033488E+02 E0= -.25031109E+02  d E =-.475801E-02  mag=    -0.0010    -0.0010    -0.0010
 Start KPOINTS_OPT (optional k-point list driver)
k-point batch [1-90\147]
       N       E                     dE             ncg
DAV:   1    -0.243836949347E+05   -0.70241E+05     8784
DAV:   2    -0.275867682441E+05   -0.32031E+04    11088
DAV:   3    -0.275971369496E+05   -0.10369E+02     9696
DAV:   4    -0.275971555840E+05   -0.18634E-01    15888
DAV:   5    -0.275971555841E+05   -0.13547E-06     9408
k-point batch [91-147\147]
       N       E                     dE             ncg
DAV:   1     0.453779500114E+04   -0.26805E+05     5472
DAV:   2     0.224567994301E+04   -0.22921E+04     6864
DAV:   3     0.223786752577E+04   -0.78124E+01     6672
DAV:   4     0.223785737084E+04   -0.10155E-01     9264
DAV:   5     0.223785737057E+04   -0.26762E-06     6864
 writing wavefunctions
