As                                      
   1.00000000000000     
     3.820550    0.000000    0.000000
    -1.910275    3.308693    0.000000
     0.000000    0.000000   10.789630
   As
     6
Direct
  0.000000  0.000000  0.226570
  0.000000  0.000000  0.773430
  0.666667  0.333333  0.559900
  0.666667  0.333333  0.106760
  0.333333  0.666667  0.893240
  0.333333  0.666667  0.440100
 
   32   32   96
  3.3572      3.4170      3.6004      3.9192      4.3924      5.0451      5.9054      6.9991      8.3413      9.9252    
  11.710      13.614      15.510      17.242      18.638      19.547      19.863      19.547      18.638      17.242    
  15.510      13.614      11.710      9.9252      8.3413      6.9991      5.9054      5.0451      4.3924      3.9192    
  3.6004      3.4170      3.4170      3.4170      3.5387      3.7902      4.1876      4.7542      5.5183      6.5089    
  7.7488      9.2440      10.972      12.870      14.832      16.709      18.332      19.530      20.167      20.167    
  19.530      18.332      16.710      14.832      12.870      10.972      9.2437      7.7486      6.5088      5.5183    
  4.7543      4.1877      3.7902      3.5387      3.6004      3.5387      3.6004      3.7902      4.1215      4.6163    
  5.3039      6.2173      7.3870      8.8312      10.544      12.480      14.551      16.619      18.511      20.040    
  21.036      21.382      21.036      20.040      18.511      16.620      14.551      12.480      10.543      8.8310    
  7.3869      6.2173      5.3039      4.6163      4.1215      3.7902      3.9192      3.7902      3.7902      3.9192    
  4.1877      4.6164      5.2355      6.0822      7.1952      8.6051      10.322      12.321      14.530      16.823    
  19.026      20.937      22.351      23.104      23.104      22.350      20.936      19.026      16.823      14.530    
  12.321      10.322      8.6052      7.1953      6.0823      5.2355      4.6163      4.1877      4.3924      4.1877    
  4.1215      4.1876      4.3924      4.7543      5.3040      6.0824      7.1357      8.5073      10.224      12.283    
  14.630      17.158      19.697      22.030      23.922      25.159      25.589      25.159      23.922      22.030    
  19.697      17.158      14.630      12.283      10.225      8.5074      7.1357      6.0823      5.3039      4.7543    
  5.0450      4.7543      4.6163      4.6163      4.7542      5.0450      5.5183      6.2174      7.1954      8.5076    
  10.198      12.285      14.741      17.479      20.341      23.107      25.516      27.306      28.262      28.262    
  27.307      25.517      23.107      20.340      17.478      14.741      12.285      10.198      8.5074      7.1954    
  6.2174      5.5183      5.9052      5.5183      5.3040      5.2355      5.3039      5.5183      5.9053      6.5087    
  7.3869      8.6053      10.225      12.285      14.787      17.669      20.799      23.962      26.885      29.266    
  30.826      31.370      30.826      29.266      26.885      23.962      20.799      17.670      14.787      12.285    
  10.224      8.6052      7.3870      6.5088      6.9989      6.5087      6.2174      6.0824      6.0822      6.2173    
  6.5089      6.9990      7.7484      8.8309      10.322      12.283      14.741      17.670      20.964      24.434    
  27.808      30.761      32.961      34.138      34.138      32.961      30.761      27.809      24.434      20.964    
  17.670      14.741      12.283      10.322      8.8312      7.7487      8.3413      7.7485      7.3870      7.1955    
  7.1357      7.1952      7.3870      7.7488      8.3413      9.2436      10.543      12.321      14.630      17.479    
  20.799      24.434      28.134      31.570      34.378      36.223      36.867      36.223      34.378      31.570    
  28.134      24.434      20.799      17.479      14.630      12.321      10.543      9.2440      9.9254      9.2437    
  8.8310      8.6053      8.5075      8.5073      8.6051      8.8313      9.2441      9.9253      10.972      12.480    
  14.529      17.158      20.340      23.962      27.809      31.570      34.875      37.344      38.667      38.666    
  37.344      34.875      31.570      27.808      23.962      20.341      17.159      14.529      12.480      10.972    
  11.711      10.972      10.543      10.322      10.225      10.198      10.224      10.322      10.544      10.972    
  11.710      12.870      14.551      16.823      19.697      23.107      26.885      30.761      34.378      37.344    
  39.296      39.977      39.295      37.344      34.379      30.761      26.885      23.107      19.697      16.823    
  14.551      12.870      13.614      12.870      12.480      12.321      12.283      12.285      12.285      12.282    
  12.321      12.480      12.870      13.614      14.832      16.620      19.026      22.030      25.517      29.266    
  32.961      36.223      38.666      39.977      39.977      38.666      36.223      32.962      29.266      25.516    
  22.030      19.026      16.619      14.832      15.510      14.832      14.551      14.529      14.630      14.741    
  14.787      14.741      14.630      14.529      14.551      14.831      15.510      16.710      18.511      20.936    
  23.922      27.307      30.826      34.138      36.867      38.666      39.295      38.666      36.867      34.139    
  30.826      27.306      23.922      20.937      18.511      16.709      17.242      16.709      16.620      16.823    
  17.158      17.479      17.670      17.670      17.479      17.159      16.823      16.619      16.709      17.242    
  18.332      20.040      22.350      25.159      28.262      31.370      34.138      36.223      37.344      37.344    
  36.223      34.138      31.370      28.262      25.159      22.351      20.040      18.332      18.638      18.332    
  18.511      19.026      19.697      20.341      20.799      20.964      20.799      20.341      19.697      19.026    
  18.511      18.332      18.638      19.530      21.036      23.104      25.589      28.262      30.826      32.961    
  34.379      34.875      34.378      32.961      30.826      28.262      25.589      23.104      21.036      19.530    
  19.547      19.530      20.040      20.937      22.030      23.107      23.962      24.434      24.434      23.962    
  23.107      22.030      20.937      20.040      19.530      19.547      20.167      21.382      23.104      25.159    
  27.306      29.266      30.761      31.571      31.570      30.761      29.266      27.306      25.159      23.104    
  21.382      20.167      19.863      20.167      21.036      22.351      23.922      25.516      26.885      27.809    
  28.134      27.808      26.885      25.516      23.922      22.351      21.036      20.167      19.863      20.167    
  21.036      22.351      23.922      25.516      26.885      27.808      28.134      27.809      26.885      25.516    
  23.922      22.351      21.036      20.167      19.547      20.167      21.382      23.104      25.159      27.306    
  29.266      30.761      31.570      31.571      30.761      29.266      27.306      25.159      23.104      21.382    
  20.167      19.547      19.530      20.040      20.937      22.030      23.107      23.962      24.434      24.434    
  23.962      23.107      22.030      20.937      20.040      19.530      18.638      19.530      21.036      23.104    
  25.589      28.262      30.826      32.961      34.378      34.875      34.379      32.961      30.826      28.262    
  25.589      23.104      21.036      19.530      18.638      18.332      18.511      19.026      19.697      20.341    
  20.799      20.964      20.799      20.341      19.697      19.026      18.511      18.332      17.242      18.332    
  20.040      22.351      25.159      28.262      31.370      34.138      36.223      37.344      37.344      36.223    
  34.138      31.370      28.262      25.159      22.350      20.040      18.332      17.242      16.709      16.619    
  16.823      17.159      17.479      17.670      17.670      17.479      17.158      16.823      16.620      16.709    
  15.510      16.709      18.511      20.937      23.922      27.306      30.826      34.139      36.867      38.666    
  39.295      38.666      36.867      34.138      30.826      27.307      23.922      20.936      18.511      16.710    
  15.510      14.831      14.551      14.529      14.630      14.741      14.787      14.741      14.630      14.529    
  14.551      14.832      13.614      14.832      16.619      19.026      22.030      25.516      29.266      32.962    
  36.223      38.666      39.977      39.977      38.666      36.223      32.961      29.266      25.517      22.030    
  19.026      16.620      14.832      13.614      12.870      12.480      12.321      12.282      12.285      12.285    
  12.283      12.321      12.480      12.870      11.711      12.870      14.551      16.823      19.697      23.107    
  26.885      30.761      34.379      37.344      39.295      39.977      39.296      37.344      34.378      30.761    
  26.885      23.107      19.697      16.823      14.551      12.870      11.710      10.972      10.544      10.322    
  10.224      10.198      10.225      10.322      10.543      10.972      9.9254      10.972      12.480      14.529    
  17.159      20.341      23.962      27.808      31.570      34.875      37.344      38.666      38.667      37.344    
  34.875      31.570      27.809      23.962      20.340      17.158      14.529      12.480      10.972      9.9253    
  9.2441      8.8313      8.6051      8.5073      8.5075      8.6053      8.8310      9.2437      8.3413      9.2440    
  10.543      12.321      14.630      17.479      20.799      24.434      28.134      31.570      34.378      36.223    
  36.867      36.223      34.378      31.570      28.134      24.434      20.799      17.479      14.630      12.321    
  10.543      9.2436      8.3413      7.7488      7.3870      7.1952      7.1357      7.1955      7.3870      7.7485    
  6.9989      7.7487      8.8312      10.322      12.283      14.741      17.670      20.964      24.434      27.809    
  30.761      32.961      34.138      34.138      32.961      30.761      27.808      24.434      20.964      17.670    
  14.741      12.283      10.322      8.8309      7.7484      6.9990      6.5089      6.2173      6.0822      6.0824    
  6.2174      6.5087      5.9052      6.5088      7.3870      8.6052      10.224      12.285      14.787      17.670    
  20.799      23.962      26.885      29.266      30.826      31.370      30.826      29.266      26.885      23.962    
  20.799      17.669      14.787      12.285      10.225      8.6053      7.3869      6.5087      5.9053      5.5183    
  5.3039      5.2355      5.3040      5.5183      5.0450      5.5183      6.2174      7.1954      8.5074      10.198    
  12.285      14.741      17.478      20.340      23.107      25.517      27.307      28.262      28.262      27.306    
  25.516      23.107      20.341      17.479      14.741      12.285      10.198      8.5076      7.1954      6.2174    
  5.5183      5.0450      4.7542      4.6163      4.6163      4.7543      4.3924      4.7543      5.3039      6.0823    
  7.1357      8.5074      10.225      12.283      14.630      17.158      19.697      22.030      23.922      25.159    
  25.589      25.159      23.922      22.030      19.697      17.158      14.630      12.283      10.224      8.5073    
  7.1357      6.0824      5.3040      4.7543      4.3924      4.1876      4.1215      4.1877      3.9192      4.1877    
  4.6163      5.2355      6.0823      7.1953      8.6052      10.322      12.321      14.530      16.823      19.026    
  20.936      22.350      23.104      23.104      22.351      20.937      19.026      16.823      14.530      12.321    
  10.322      8.6051      7.1952      6.0822      5.2355      4.6164      4.1877      3.9192      3.7902      3.7902    
  3.6004      3.7902      4.1215      4.6163      5.3039      6.2173      7.3869      8.8310      10.543      12.480    
  14.551      16.620      18.511      20.040      21.036      21.382      21.036      20.040      18.511      16.619    
  14.551      12.480      10.544      8.8312      7.3870      6.2173      5.3039      4.6163      4.1215      3.7902    
  3.6004      3.5387      3.4170      3.5387      3.7902      4.1877      4.7543      5.5183      6.5088      7.7486    
  9.2437      10.972      12.870      14.832      16.710      18.332      19.530      20.167      20.167      19.530    
  18.332      16.709      14.832      12.870      10.972      9.2440      7.7488      6.5089      5.5183      4.7542    
  4.1876      3.7902      3.5387      3.4170      3.4573      3.5176      3.7026      4.0241      4.5019      5.1620    
  6.0335      7.1434      8.5074      10.119      11.935      13.874      15.805      17.569      18.992      19.919    
  20.241      19.919      18.992      17.569      15.805      13.874      11.935      10.119      8.5074      7.1434    
  6.0335      5.1620      4.5019      4.0241      3.7025      3.5176      3.5176      3.5176      3.6477      3.9169    
  4.3432      4.9528      5.7783      6.8533      8.2040      9.8378      11.730      13.812      15.965      18.028    
  19.813      21.131      21.832      21.832      21.131      19.813      18.029      15.965      13.812      11.730    
  9.8375      8.2038      6.8532      5.7783      4.9529      4.3432      3.9169      3.6477      3.7026      3.6328    
  3.7025      3.9169      4.2920      4.8543      5.6399      6.6896      8.0414      9.7183      11.713      13.976    
  16.400      18.824      21.046      22.842      24.015      24.422      24.014      22.842      21.046      18.825    
  16.400      13.976      11.713      9.7181      8.0414      6.6897      5.6400      4.8544      4.2920      3.9169    
  4.0241      3.8711      3.8711      4.0241      4.3432      4.8544      5.5964      6.6171      7.9666      9.6850    
  11.786      14.241      16.960      19.790      22.516      24.883      26.638      27.574      27.574      26.638    
  24.883      22.516      19.790      16.960      14.241      11.786      9.6851      7.9667      6.6171      5.5964    
  4.8544      4.3432      4.5019      4.2474      4.1652      4.2474      4.5019      4.9529      5.6400      6.6172    
  7.9457      9.6830      11.866      14.491      17.495      20.739      24.005      27.014      29.460      31.062    
  31.619      31.062      29.460      27.014      24.004      20.738      17.495      14.492      11.866      9.6831    
  7.9457      6.6172      5.6400      4.9528      5.1619      4.7835      4.6040      4.6039      4.7834      5.1620    
  5.7783      6.6897      7.9668      9.6832      11.899      14.641      17.875      21.490      25.282      28.957    
  32.168      34.558      35.837      35.837      34.559      32.168      28.957      25.281      21.490      17.875    
  14.641      11.899      9.6830      7.9668      6.6897      5.7783      6.0333      5.5056      5.2124      5.1184    
  5.2122      5.5056      6.0334      6.8531      8.0414      9.6852      11.866      14.641      18.012      21.905    
  26.142      30.440      34.423      37.676      39.812      40.558      39.812      37.676      34.424      30.440    
  26.142      21.905      18.012      14.641      11.866      9.6851      8.0415      6.8532      7.1433      6.4408    
  6.0181      5.8205      5.8203      6.0180      6.4410      7.1434      8.2037      9.7180      11.786      14.492    
  17.875      21.905      26.446      31.242      35.920      40.025      43.091      44.733      44.733      43.091    
  40.025      35.920      31.242      26.446      21.905      17.875      14.491      11.786      9.7183      8.2039    
  8.5074      7.6102      7.0467      6.7402      6.6432      6.7399      7.0467      7.6105      8.5074      9.8374    
  11.713      14.241      17.495      21.490      26.142      31.242      36.444      41.288      45.255      47.865    
  48.776      47.865      45.255      41.288      36.444      31.242      26.142      21.491      17.495      14.240    
  11.713      9.8378      10.119      9.0192      8.3131      7.9014      7.7134      7.7131      7.9011      8.3134    
  9.0196      10.119      11.730      13.976      16.960      20.738      25.281      30.440      35.920      41.288    
  46.011      49.546      51.441      51.440      49.545      46.011      41.288      35.920      30.440      25.282    
  20.739      16.960      13.976      11.730      11.936      10.646      9.8115      9.3112      9.0509      8.9707    
  9.0505      9.3111      9.8119      10.647      11.935      13.812      16.400      19.790      24.004      28.957    
  34.424      40.025      45.255      49.546      52.370      53.354      52.370      49.546      45.255      40.025    
  34.423      28.957      24.005      19.790      16.400      13.812      13.874      12.433      11.504      10.949    
  10.651      10.525      10.525      10.651      10.949      11.504      12.433      13.874      15.965      18.825    
  22.516      27.014      32.168      37.676      43.091      47.865      51.440      53.354      53.353      51.440    
  47.865      43.091      37.676      32.168      27.014      22.516      18.824      15.965      15.805      14.279    
  13.311      12.756      12.474      12.354      12.322      12.353      12.474      12.756      13.311      14.278    
  15.805      18.029      21.046      24.883      29.460      34.559      39.813      44.733      48.776      51.440    
  52.370      51.440      48.776      44.734      39.813      34.558      29.460      24.883      21.046      18.028    
  17.569      16.044      15.115      14.630      14.434      14.391      14.396      14.396      14.391      14.434    
  14.630      15.115      16.044      17.569      19.813      22.842      26.638      31.062      35.837      40.558    
  44.733      47.865      49.546      49.545      47.865      44.733      40.558      35.836      31.061      26.638    
  22.842      19.812      18.992      17.570      16.763      16.428      16.400      16.518      16.649      16.703    
  16.648      16.518      16.400      16.428      16.763      17.570      18.992      21.131      24.014      27.574    
  31.619      35.836      39.812      43.091      45.255      46.011      45.255      43.091      39.813      35.837    
  31.619      27.574      24.015      21.131      19.919      18.696      18.094      17.986      18.204      18.571    
  18.924      19.134      19.134      18.923      18.571      18.204      17.986      18.094      18.696      19.919    
  21.832      24.422      27.574      31.061      34.558      37.676      40.025      41.288      41.288      40.025    
  37.676      34.559      31.061      27.574      24.422      21.832      20.241      19.295      18.962      19.137    
  19.665      20.357      21.023      21.497      21.669      21.497      21.022      20.357      19.665      19.137    
  18.962      19.295      20.241      21.832      24.015      26.638      29.460      32.168      34.423      35.920    
  36.444      35.920      34.423      32.168      29.460      26.638      24.015      21.832      19.919      19.295    
  19.263      19.750      20.619      21.681      22.729      23.563      24.023      24.023      23.563      22.729    
  21.681      20.619      19.751      19.263      19.294      19.919      21.131      22.842      24.883      27.014    
  28.957      30.440      31.242      31.242      30.440      28.957      27.014      24.883      22.842      21.131    
  18.992      18.696      18.962      19.751      20.951      22.388      23.847      25.100      25.945      26.243    
  25.945      25.100      23.847      22.388      20.951      19.750      18.961      18.696      18.992      19.812    
  21.046      22.516      24.005      25.282      26.142      26.446      26.142      25.282      24.005      22.516    
  21.046      19.813      17.569      17.570      18.094      19.137      20.619      22.388      24.236      25.921    
  27.207      27.902      27.903      27.207      25.921      24.236      22.388      20.619      19.137      18.094    
  17.570      17.569      18.028      18.824      19.790      20.739      21.490      21.905      21.905      21.490    
  20.738      19.790      18.825      18.029      15.805      16.044      16.763      17.986      19.665      21.681    
  23.847      25.922      27.647      28.791      29.192      28.791      27.647      25.921      23.847      21.682    
  19.665      17.985      16.763      16.044      15.805      15.965      16.400      16.960      17.495      17.875    
  18.012      17.875      17.495      16.960      16.400      15.965      13.874      14.278      15.115      16.428    
  18.204      20.357      22.729      25.100      27.207      28.791      29.642      29.642      28.791      27.207    
  25.100      22.730      20.357      18.203      16.428      15.115      14.279      13.874      13.812      13.976    
  14.241      14.491      14.641      14.641      14.492      14.241      13.976      13.812      11.936      12.433    
  13.311      14.630      16.400      18.571      21.022      23.562      25.945      27.903      29.192      29.642    
  29.192      27.903      25.945      23.562      21.023      18.571      16.400      14.630      13.312      12.433    
  11.936      11.730      11.713      11.786      11.866      11.899      11.866      11.786      11.713      11.730    
  10.119      10.647      11.504      12.756      14.434      16.518      18.923      21.497      24.023      26.243    
  27.903      28.791      28.791      27.903      26.243      24.023      21.497      18.924      16.518      14.434    
  12.756      11.504      10.646      10.119      9.8379      9.7184      9.6850      9.6829      9.6831      9.6852    
  9.7181      9.8376      8.5074      9.0195      9.8117      10.949      12.474      14.391      16.649      19.134    
  21.669      24.023      25.945      27.207      27.647      27.207      25.945      24.023      21.669      19.134    
  16.649      14.391      12.474      10.949      9.8115      9.0191      8.5074      8.2041      8.0415      7.9666    
  7.9457      7.9668      8.0414      8.2037      7.1433      7.6104      8.3133      9.3111      10.651      12.354    
  14.396      16.703      19.134      21.497      23.563      25.100      25.921      25.921      25.100      23.562    
  21.497      19.134      16.703      14.396      12.354      10.651      9.3113      8.3130      7.6101      7.1433    
  6.8532      6.6897      6.6171      6.6172      6.6898      6.8531      6.0334      6.4409      7.0467      7.9012    
  9.0507      10.525      12.322      14.396      16.649      18.924      21.023      22.730      23.847      24.236    
  23.847      22.729      21.022      18.923      16.649      14.396      12.322      10.525      9.0510      7.9014    
  7.0466      6.4408      6.0334      5.7783      5.6399      5.5964      5.6400      5.7783      5.1619      5.5056    
  6.0181      6.7401      7.7133      8.9707      10.525      12.354      14.391      16.518      18.571      20.357    
  21.682      22.388      22.388      21.681      20.357      18.571      16.518      14.391      12.353      10.525    
  8.9707      7.7134      6.7402      6.0181      5.5057      5.1619      4.9528      4.8543      4.8544      4.9529    
  4.5019      4.7835      5.2123      5.8204      6.6432      7.7133      9.0508      10.651      12.474      14.434    
  16.400      18.204      19.665      20.619      20.951      20.619      19.665      18.204      16.400      14.434    
  12.474      10.651      9.0505      7.7132      6.6432      5.8205      5.2124      4.7835      4.5019      4.3432    
  4.2920      4.3432      4.0241      4.2474      4.6040      5.1184      5.8204      6.7400      7.9012      9.3113    
  10.949      12.756      14.630      16.428      17.985      19.137      19.751      19.751      19.137      17.985    
  16.428      14.630      12.756      10.949      9.3112      7.9011      6.7399      5.8203      5.1184      4.6040    
  4.2474      4.0241      3.9169      3.9169      3.7025      3.8711      4.1652      4.6040      5.2123      6.0180    
  7.0466      8.3132      9.8117      11.504      13.312      15.115      16.763      18.094      18.961      19.263    
  18.962      18.094      16.763      15.115      13.311      11.504      9.8119      8.3134      7.0467      6.0180    
  5.2123      4.6039      4.1652      3.8711      3.7026      3.6477      3.5176      3.6329      3.8711      4.2474    
  4.7835      5.5057      6.4409      7.6103      9.0192      10.646      12.433      14.278      16.044      17.570    
  18.696      19.295      19.295      18.696      17.570      16.044      14.278      12.433      10.646      9.0195    
  7.6105      6.4410      5.5057      4.7835      4.2474      3.8711      3.6329      3.5176      3.7620      3.8238    
  4.0135      4.3435      4.8352      5.5171      6.4216      7.5787      9.0057      10.695      12.603      14.641    
  16.673      18.530      20.030      21.007      21.347      21.007      20.030      18.531      16.673      14.641    
  12.603      10.695      9.0057      7.5787      6.4217      5.5171      4.8352      4.3435      4.0134      3.8238    
  3.8238      3.8238      3.9648      4.2568      4.7207      5.3872      6.2949      7.4840      8.9855      10.809    
  12.926      15.259      17.677      19.997      22.006      23.492      24.283      24.283      23.492      22.006    
  19.997      17.677      15.259      12.925      10.808      8.9853      7.4839      6.2950      5.3872      4.7207    
  4.2568      3.9648      4.0135      3.9344      4.0134      4.2568      4.6841      5.3279      6.2329      7.4500    
  9.0265      10.991      13.337      16.004      18.868      21.740      24.376      26.513      27.910      28.395    
  27.909      26.513      24.376      21.740      18.868      16.004      13.336      10.991      9.0263      7.4500    
  6.2330      5.3279      4.6841      4.2568      4.3435      4.1632      4.1631      4.3435      4.7207      5.3280    
  6.2147      7.4423      9.0747      11.163      13.727      16.731      20.070      23.556      26.922      29.854    
  32.033      33.197      33.197      32.033      29.854      26.922      23.556      20.070      16.732      13.727    
  11.163      9.0748      7.4424      6.2147      5.3279      4.7207      4.8352      4.5250      4.4250      4.5249    
  4.8352      5.3872      6.2330      7.4424      9.0951      11.266      14.003      17.307      21.099      25.209    
  29.362      33.203      36.334      38.388      39.105      38.388      36.334      33.203      29.362      25.208    
  21.099      17.307      14.003      11.266      9.0951      7.4424      6.2329      5.3871      5.5170      5.0414    
  4.8165      4.8165      5.0414      5.5171      6.2950      7.4501      9.0749      11.266      14.103      17.624    
  21.792      26.468      31.393      36.186      40.388      43.526      45.206      45.206      43.526      40.389    
  36.186      31.392      26.468      21.792      17.624      14.103      11.266      9.0749      7.4501      6.2949    
  6.4215      5.7391      5.3608      5.2397      5.3606      5.7391      6.4216      7.4838      9.0264      11.163    
  14.004      17.624      22.036      27.149      32.739      38.433      43.732      48.072      50.928      51.924    
  50.928      48.072      43.732      38.433      32.739      27.149      22.036      17.624      14.003      11.163    
  9.0266      7.4839      7.5786      6.6453      6.0831      5.8201      5.8199      6.0829      6.6455      7.5787    
  8.9852      10.991      13.727      17.307      21.792      27.149      33.211      39.641      45.938      51.479    
  55.589      57.758      57.757      55.588      51.479      45.938      39.641      33.211      27.149      21.792    
  17.307      13.727      10.991      8.9855      9.0057      7.7812      7.0066      6.5829      6.4483      6.5825    
  7.0066      7.7816      9.0057      10.808      13.336      16.731      21.099      26.468      32.739      39.641    
  46.709      53.297      58.587      61.958      63.108      61.957      58.587      53.297      46.709      39.641    
  32.739      26.468      21.099      16.731      13.336      10.809      10.695      9.1522      8.1447      7.5476    
  7.2717      7.2713      7.5472      8.1451      9.1526      10.695      12.925      16.004      20.070      25.208    
  31.392      38.433      45.938      53.297      59.615      64.126      66.444      66.444      64.126      59.616    
  53.297      45.938      38.433      31.393      25.209      20.070      16.003      12.926      12.604      10.737    
  9.4920      8.7200      8.3054      8.1751      8.3049      8.7199      9.4925      10.737      12.603      15.259    
  18.868      23.555      29.362      36.186      43.732      51.479      58.587      64.126      67.569      68.727    
  67.568      64.126      58.588      51.479      43.731      36.186      29.362      23.556      18.868      15.259    
  14.641      12.478      11.014      10.083      9.5459      9.3033      9.3029      9.5455      10.083      11.014    
  12.478      14.641      17.677      21.740      26.922      33.202      40.389      48.072      55.588      61.957    
  66.444      68.727      68.727      66.444      61.958      55.589      48.072      40.388      33.203      26.922    
  21.740      17.677      16.673      14.277      12.639      11.586      10.961      10.639      10.541      10.639    