As                                      
   1.00000000000000     
     3.820550    0.000000    0.000000
    -1.910275    3.308693    0.000000
     0.000000    0.000000   10.789630
   As
     6
Direct
  0.000000  0.000000  0.226570
  0.000000  0.000000  0.773430
  0.666667  0.333333  0.559900
  0.666667  0.333333  0.106760
  0.333333  0.666667  0.893240
  0.333333  0.666667  0.440100
 
   32   32   96
 0.33572328503E+01 0.34170424430E+01 0.36004402504E+01 0.39192033600E+01 0.43924012512E+01
 0.50450744714E+01 0.59053526868E+01 0.69990790122E+01 0.83413216747E+01 0.99252128180E+01
 0.11710240728E+02 0.13613788994E+02 0.15510361221E+02 0.17241735388E+02 0.18638237754E+02
 0.19547407521E+02 0.19863144033E+02 0.19547407521E+02 0.18638237754E+02 0.17241735388E+02
 0.15510361221E+02 0.13613788994E+02 0.11710240728E+02 0.99252128180E+01 0.83413216747E+01
 0.69990790122E+01 0.59053526868E+01 0.50450744714E+01 0.43924012512E+01 0.39192033600E+01
 0.36004402504E+01 0.34170424430E+01 0.34170395905E+01 0.34170401260E+01 0.35386959560E+01
 0.37901918696E+01 0.41876376302E+01 0.47542457350E+01 0.55182885285E+01 0.65088844673E+01
 0.77487669924E+01 0.92439672739E+01 0.10971765157E+02 0.12869933781E+02 0.14831515114E+02
 0.16709246409E+02 0.18331713805E+02 0.19529626077E+02 0.20166627746E+02 0.20166591897E+02
 0.19529590187E+02 0.18331812335E+02 0.16709514539E+02 0.14831815264E+02 0.12870064324E+02
 0.10971648807E+02 0.92437167340E+01 0.77485630791E+01 0.65088153346E+01 0.55183167218E+01
 0.47542937892E+01 0.41876651715E+01 0.37901996935E+01 0.35386961080E+01 0.36004386190E+01
 0.35386931036E+01 0.36004395726E+01 0.37902024953E+01 0.41214711217E+01 0.46162880707E+01
 0.53038699441E+01 0.62172561546E+01 0.73869638731E+01 0.88312178447E+01 0.10543556896E+02
 0.12480224008E+02 0.14551201452E+02 0.16619351317E+02 0.18511145680E+02 0.20039604596E+02
 0.21035885482E+02 0.21382048186E+02 0.21035782144E+02 0.20039542009E+02 0.18511249879E+02
 0.16619581621E+02 0.14551378837E+02 0.12480207747E+02 0.10543378173E+02 0.88310329583E+01
 0.73868950416E+01 0.62172982134E+01 0.53039389010E+01 0.46163228870E+01 0.41214724360E+01
 0.37901968410E+01 0.39192121847E+01 0.37902035467E+01 0.37901936706E+01 0.39192084629E+01
 0.41876848208E+01 0.46163532345E+01 0.52354651089E+01 0.60822231046E+01 0.71952039818E+01
 0.86050706687E+01 0.10321882833E+02 0.12320792516E+02 0.14529588685E+02 0.16822722822E+02
 0.19026292926E+02 0.20936522271E+02 0.22350569003E+02 0.23103794778E+02 0.23103747198E+02
 0.22350458890E+02 0.20936400947E+02 0.19026174590E+02 0.16822612074E+02 0.14529522655E+02
 0.12320807686E+02 0.10321965302E+02 0.86051755716E+01 0.71952983584E+01 0.60822830405E+01
 0.52354691005E+01 0.46163140623E+01 0.41876534944E+01 0.43924012512E+01 0.41876818969E+01
 0.41214727531E+01 0.41876345820E+01 0.43924014855E+01 0.47543259444E+01 0.53040109376E+01
 0.60823510259E+01 0.71357389076E+01 0.85073265048E+01 0.10224338899E+02 0.12282522828E+02
 0.14630481414E+02 0.17158494945E+02 0.19697179680E+02 0.22030205130E+02 0.23922291248E+02
 0.25159006596E+02 0.25589406225E+02 0.25159028224E+02 0.23922290593E+02 0.22030078419E+02
 0.19696897591E+02 0.17158239520E+02 0.14630483205E+02 0.12282765650E+02 0.10224586310E+02
 0.85074277357E+01 0.71357388261E+01 0.60823156300E+01 0.53039405324E+01 0.47542552275E+01
 0.50450140454E+01 0.47543033085E+01 0.46163484966E+01 0.46162839839E+01 0.47542241042E+01
 0.50450441259E+01 0.55183172609E+01 0.62173697245E+01 0.71954359918E+01 0.85075617941E+01
 0.10198177560E+02 0.12285011528E+02 0.14741060780E+02 0.17478525547E+02 0.20340595520E+02
 0.23106929097E+02 0.25516386867E+02 0.27306380505E+02 0.28262032364E+02 0.28262073101E+02
 0.27306527387E+02 0.25516573784E+02 0.23106950326E+02 0.20340422608E+02 0.17478433748E+02
 0.14741218382E+02 0.12285198899E+02 0.10198146468E+02 0.85074087239E+01 0.71953676091E+01
 0.62173586393E+01 0.55182591483E+01 0.59052108728E+01 0.55182856760E+01 0.53040101267E+01
 0.52354739336E+01 0.53038691236E+01 0.55182568350E+01 0.59052815539E+01 0.65087409640E+01
 0.73868935323E+01 0.86052923161E+01 0.10224762958E+02 0.12285297500E+02 0.14786838394E+02
 0.17669481746E+02 0.20798610324E+02 0.23962054876E+02 0.26885100176E+02 0.29265652353E+02
 0.30826025005E+02 0.31369761512E+02 0.30825988273E+02 0.29265819816E+02 0.26885419468E+02
 0.23962207368E+02 0.20798572997E+02 0.17669509993E+02 0.14786907716E+02 0.12285138473E+02
 0.10224444496E+02 0.86051843962E+01 0.73870352242E+01 0.65088124821E+01 0.69989341496E+01
 0.65087424572E+01 0.62174010172E+01 0.60823767918E+01 0.60822475775E+01 0.62172852878E+01
 0.65088858266E+01 0.69990076998E+01 0.77484292920E+01 0.88309201506E+01 0.10321960014E+02
 0.12282871806E+02 0.14741357854E+02 0.17669612126E+02 0.20964078281E+02 0.24434277724E+02
 0.27808430661E+02 0.30760880638E+02 0.32961401024E+02 0.34138316753E+02 0.34138104625E+02
 0.32961130146E+02 0.30760987963E+02 0.27808688878E+02 0.24434305128E+02 0.20964005482E+02
 0.17669654856E+02 0.14741302819E+02 0.12282579373E+02 0.10321811615E+02 0.88311778209E+01
 0.77487050892E+01 0.83413216747E+01 0.77485029885E+01 0.73869655045E+01 0.71954620135E+01
 0.71357389076E+01 0.71952295614E+01 0.73870353463E+01 0.77488410109E+01 0.83413225428E+01
 0.92436065057E+01 0.10543202981E+02 0.12320674627E+02 0.14630481468E+02 0.17478564511E+02
 0.20798748173E+02 0.24434416611E+02 0.28134386946E+02 0.31570264293E+02 0.34378468854E+02
 0.36223247886E+02 0.36866578381E+02 0.36222750664E+02 0.34378186861E+02 0.31570378893E+02
 0.28134386714E+02 0.24434183135E+02 0.20798714811E+02 0.17478761030E+02 0.14630483205E+02
 0.12320532005E+02 0.10543379805E+02 0.92439864428E+01 0.99254383652E+01 0.92437388743E+01
 0.88309922976E+01 0.86052873912E+01 0.85075106378E+01 0.85072758210E+01 0.86050667690E+01
 0.88312905603E+01 0.92440989092E+01 0.99253248058E+01 0.10971649886E+02 0.12480080739E+02
 0.14529358158E+02 0.17158158405E+02 0.20340451756E+02 0.23962245439E+02 0.27808617029E+02
 0.31570208242E+02 0.34874812985E+02 0.37344149501E+02 0.38666692343E+02 0.38666424581E+02
 0.37343821628E+02 0.34874924301E+02 0.31570337584E+02 0.27808318469E+02 0.23961981821E+02
 0.20340708581E+02 0.17158506481E+02 0.14529305932E+02 0.12479982200E+02 0.10971877207E+02
 0.11710593381E+02 0.10971762305E+02 0.10543202612E+02 0.10321891658E+02 0.10224691552E+02
 0.10198117134E+02 0.10224268491E+02 0.10321815152E+02 0.10543555634E+02 0.10971875433E+02
 0.11710416287E+02 0.12870190852E+02 0.14551379305E+02 0.16822515926E+02 0.19696793513E+02
 0.23106881266E+02 0.26885348779E+02 0.30760876916E+02 0.34378081946E+02 0.37343831452E+02
 0.39295656855E+02 0.39976988667E+02 0.39295481638E+02 0.37344047175E+02 0.34378539514E+02
 0.30760843100E+02 0.26884925001E+02 0.23106889900E+02 0.19697250244E+02 0.16822620898E+02
 0.14551024553E+02 0.12870061472E+02 0.13614044210E+02 0.12870191849E+02 0.12479968792E+02
 0.12320546125E+02 0.12282819457E+02 0.12285327170E+02 0.12285042284E+02 0.12282471728E+02
 0.12320662986E+02 0.12480110407E+02 0.12869935636E+02 0.13613917789E+02 0.14831983601E+02
 0.16619682097E+02 0.19026169874E+02 0.22030020600E+02 0.25516545111E+02 0.29265857375E+02
 0.32961199469E+02 0.36222780930E+02 0.38666368826E+02 0.39976862137E+02 0.39976733452E+02
 0.38666394913E+02 0.36223272736E+02 0.32961530224E+02 0.29265564600E+02 0.25516258142E+02
 0.22030292221E+02 0.19026420981E+02 0.16619326406E+02 0.14831557196E+02 0.15510361221E+02
 0.14831857552E+02 0.14551203083E+02 0.14529240275E+02 0.14630481414E+02 0.14741460792E+02
 0.14786980208E+02 0.14741163131E+02 0.14630481468E+02 0.14529472196E+02 0.14551026652E+02
 0.14831388800E+02 0.15510360242E+02 0.16709616836E+02 0.18511355093E+02 0.20936435649E+02
 0.23922290338E+02 0.27306595588E+02 0.30826162990E+02 0.34138279156E+02 0.36866579713E+02
 0.38666453196E+02 0.39295304202E+02 0.38666127210E+02 0.36866578381E+02 0.34138589073E+02
 0.30826130087E+02 0.27306248228E+02 0.23922290593E+02 0.20936731708E+02 0.18511251510E+02
 0.16709177806E+02 0.17241531774E+02 0.16709447171E+02 0.16619554932E+02 0.16822510383E+02
 0.17158249916E+02 0.17478668735E+02 0.17669685360E+02 0.17669553375E+02 0.17478627753E+02
 0.17158587566E+02 0.16822719540E+02 0.16619223267E+02 0.16709073636E+02 0.17241633433E+02
 0.18331815310E+02 0.20039581373E+02 0.22350461273E+02 0.25159008334E+02 0.28262105065E+02
 0.31369866886E+02 0.34138415127E+02 0.36223239760E+02 0.37344035066E+02 0.37343720340E+02
 0.36222777415E+02 0.34138375505E+02 0.31369965127E+02 0.28261929912E+02 0.25158866024E+02
 0.22350671329E+02 0.20039745624E+02 0.18331611573E+02 0.18638028547E+02 0.18331710953E+02
 0.18511353257E+02 0.19026301750E+02 0.19696970473E+02 0.20340535094E+02 0.20798677717E+02
 0.20963933418E+02 0.20798538966E+02 0.20340677303E+02 0.19697355373E+02 0.19026425090E+02
 0.18511145885E+02 0.18331611696E+02 0.18638133423E+02 0.19529549215E+02 0.21035780806E+02
 0.23103713261E+02 0.25589303087E+02 0.28261901451E+02 0.30825953783E+02 0.32961454685E+02
 0.34378643807E+02 0.34875038532E+02 0.34378259647E+02 0.32961256161E+02 0.30826092399E+02
 0.28261971938E+02 0.25589197017E+02 0.23103756023E+02 0.21035989720E+02 0.19529587335E+02
 0.19547329689E+02 0.19529551098E+02 0.20039682428E+02 0.20936608928E+02 0.22030168712E+02
 0.23106911691E+02 0.23962132708E+02 0.24434210693E+02 0.24434071922E+02 0.23961942059E+02
 0.23106959098E+02 0.22030353648E+02 0.20936697403E+02 0.20039707156E+02 0.19529627047E+02
 0.19547367565E+02 0.20166590575E+02 0.21382088549E+02 0.23103791093E+02 0.25158882551E+02
 0.27306178170E+02 0.29265524327E+02 0.30760954749E+02 0.31570511621E+02 0.31570453317E+02
 0.30760947668E+02 0.29265730185E+02 0.27306397911E+02 0.25158887350E+02 0.23103708121E+02
 0.21382126018E+02 0.20166666877E+02 0.19863144033E+02 0.20166630599E+02 0.21035887114E+02
 0.22350560179E+02 0.23922291248E+02 0.25516447293E+02 0.26885241990E+02 0.27808575523E+02
 0.28134386946E+02 0.27808391482E+02 0.26884996126E+02 0.25516289896E+02 0.23922290338E+02
 0.22350664888E+02 0.21035990013E+02 0.20166668407E+02 0.19863144952E+02 0.20166668407E+02
 0.21035990013E+02 0.22350664888E+02 0.23922290338E+02 0.25516289896E+02 0.26884996126E+02
 0.27808391482E+02 0.28134386946E+02 0.27808575523E+02 0.26885241990E+02 0.25516447293E+02
 0.23922291248E+02 0.22350560179E+02 0.21035887114E+02 0.20166630599E+02 0.19547329689E+02
 0.20166666877E+02 0.21382126018E+02 0.23103708121E+02 0.25158887350E+02 0.27306397911E+02
 0.29265730185E+02 0.30760947668E+02 0.31570453317E+02 0.31570511621E+02 0.30760954749E+02
 0.29265524327E+02 0.27306178170E+02 0.25158882551E+02 0.23103791093E+02 0.21382088549E+02
 0.20166590575E+02 0.19547367565E+02 0.19529627047E+02 0.20039707156E+02 0.20936697403E+02
 0.22030353648E+02 0.23106959098E+02 0.23961942059E+02 0.24434071922E+02 0.24434210693E+02
 0.23962132708E+02 0.23106911691E+02 0.22030168712E+02 0.20936608928E+02 0.20039682428E+02
 0.19529551098E+02 0.18638028547E+02 0.19529587335E+02 0.21035989720E+02 0.23103756023E+02
 0.25589197017E+02 0.28261971938E+02 0.30826092399E+02 0.32961256161E+02 0.34378259647E+02
 0.34875038532E+02 0.34378643807E+02 0.32961454685E+02 0.30825953783E+02 0.28261901451E+02
 0.25589303087E+02 0.23103713261E+02 0.21035780806E+02 0.19529549215E+02 0.18638133423E+02
 0.18331611696E+02 0.18511145885E+02 0.19026425090E+02 0.19697355373E+02 0.20340677303E+02
 0.20798538966E+02 0.20963933418E+02 0.20798677717E+02 0.20340535094E+02 0.19696970473E+02
 0.19026301750E+02 0.18511353257E+02 0.18331710953E+02 0.17241531774E+02 0.18331611573E+02
 0.20039745624E+02 0.22350671329E+02 0.25158866024E+02 0.28261929912E+02 0.31369965127E+02
 0.34138375505E+02 0.36222777415E+02 0.37343720340E+02 0.37344035066E+02 0.36223239760E+02
 0.34138415127E+02 0.31369866886E+02 0.28262105065E+02 0.25159008334E+02 0.22350461273E+02
 0.20039581373E+02 0.18331815310E+02 0.17241633433E+02 0.16709073636E+02 0.16619223267E+02
 0.16822719540E+02 0.17158587566E+02 0.17478627753E+02 0.17669553375E+02 0.17669685360E+02
 0.17478668735E+02 0.17158249916E+02 0.16822510383E+02 0.16619554932E+02 0.16709447171E+02
 0.15510361221E+02 0.16709177806E+02 0.18511251510E+02 0.20936731708E+02 0.23922290593E+02
 0.27306248228E+02 0.30826130087E+02 0.34138589073E+02 0.36866578381E+02 0.38666127210E+02
 0.39295304202E+02 0.38666453196E+02 0.36866579713E+02 0.34138279156E+02 0.30826162990E+02
 0.27306595588E+02 0.23922290338E+02 0.20936435649E+02 0.18511355093E+02 0.16709616836E+02
 0.15510360242E+02 0.14831388800E+02 0.14551026652E+02 0.14529472196E+02 0.14630481468E+02
 0.14741163131E+02 0.14786980208E+02 0.14741460792E+02 0.14630481414E+02 0.14529240275E+02
 0.14551203083E+02 0.14831857552E+02 0.13614044210E+02 0.14831557196E+02 0.16619326406E+02
 0.19026420981E+02 0.22030292221E+02 0.25516258142E+02 0.29265564600E+02 0.32961530224E+02
 0.36223272736E+02 0.38666394913E+02 0.39976733452E+02 0.39976862137E+02 0.38666368826E+02
 0.36222780930E+02 0.32961199469E+02 0.29265857375E+02 0.25516545111E+02 0.22030020600E+02
 0.19026169874E+02 0.16619682097E+02 0.14831983601E+02 0.13613917789E+02 0.12869935636E+02
 0.12480110407E+02 0.12320662986E+02 0.12282471728E+02 0.12285042284E+02 0.12285327170E+02
 0.12282819457E+02 0.12320546125E+02 0.12479968792E+02 0.12870191849E+02 0.11710593381E+02
 0.12870061472E+02 0.14551024553E+02 0.16822620898E+02 0.19697250244E+02 0.23106889900E+02
 0.26884925001E+02 0.30760843100E+02 0.34378539514E+02 0.37344047175E+02 0.39295481638E+02
 0.39976988667E+02 0.39295656855E+02 0.37343831452E+02 0.34378081946E+02 0.30760876916E+02
 0.26885348779E+02 0.23106881266E+02 0.19696793513E+02 0.16822515926E+02 0.14551379305E+02
 0.12870190852E+02 0.11710416287E+02 0.10971875433E+02 0.10543555634E+02 0.10321815152E+02
 0.10224268491E+02 0.10198117134E+02 0.10224691552E+02 0.10321891658E+02 0.10543202612E+02
 0.10971762305E+02 0.99254383652E+01 0.10971877207E+02 0.12479982200E+02 0.14529305932E+02
 0.17158506481E+02 0.20340708581E+02 0.23961981821E+02 0.27808318469E+02 0.31570337584E+02
 0.34874924301E+02 0.37343821628E+02 0.38666424581E+02 0.38666692343E+02 0.37344149501E+02
 0.34874812985E+02 0.31570208242E+02 0.27808617029E+02 0.23962245439E+02 0.20340451756E+02
 0.17158158405E+02 0.14529358158E+02 0.12480080739E+02 0.10971649886E+02 0.99253248058E+01
 0.92440989092E+01 0.88312905603E+01 0.86050667690E+01 0.85072758210E+01 0.85075106378E+01
 0.86052873912E+01 0.88309922976E+01 0.92437388743E+01 0.83413216747E+01 0.92439864428E+01
 0.10543379805E+02 0.12320532005E+02 0.14630483205E+02 0.17478761030E+02 0.20798714811E+02
 0.24434183135E+02 0.28134386714E+02 0.31570378893E+02 0.34378186861E+02 0.36222750664E+02
 0.36866578381E+02 0.36223247886E+02 0.34378468854E+02 0.31570264293E+02 0.28134386946E+02
 0.24434416611E+02 0.20798748173E+02 0.17478564511E+02 0.14630481468E+02 0.12320674627E+02
 0.10543202981E+02 0.92436065057E+01 0.83413225428E+01 0.77488410109E+01 0.73870353463E+01
 0.71952295614E+01 0.71357389076E+01 0.71954620135E+01 0.73869655045E+01 0.77485029885E+01
 0.69989341496E+01 0.77487050892E+01 0.88311778209E+01 0.10321811615E+02 0.12282579373E+02
 0.14741302819E+02 0.17669654856E+02 0.20964005482E+02 0.24434305128E+02 0.27808688878E+02
 0.30760987963E+02 0.32961130146E+02 0.34138104625E+02 0.34138316753E+02 0.32961401024E+02
 0.30760880638E+02 0.27808430661E+02 0.24434277724E+02 0.20964078281E+02 0.17669612126E+02
 0.14741357854E+02 0.12282871806E+02 0.10321960014E+02 0.88309201506E+01 0.77484292920E+01
 0.69990076998E+01 0.65088858266E+01 0.62172852878E+01 0.60822475775E+01 0.60823767918E+01
 0.62174010172E+01 0.65087424572E+01 0.59052108728E+01 0.65088124821E+01 0.73870352242E+01
 0.86051843962E+01 0.10224444496E+02 0.12285138473E+02 0.14786907716E+02 0.17669509993E+02
 0.20798572997E+02 0.23962207368E+02 0.26885419468E+02 0.29265819816E+02 0.30825988273E+02
 0.31369761512E+02 0.30826025005E+02 0.29265652353E+02 0.26885100176E+02 0.23962054876E+02
 0.20798610324E+02 0.17669481746E+02 0.14786838394E+02 0.12285297500E+02 0.10224762958E+02
 0.86052923161E+01 0.73868935323E+01 0.65087409640E+01 0.59052815539E+01 0.55182568350E+01
 0.53038691236E+01 0.52354739336E+01 0.53040101267E+01 0.55182856760E+01 0.50450140454E+01
 0.55182591483E+01 0.62173586393E+01 0.71953676091E+01 0.85074087239E+01 0.10198146468E+02
 0.12285198899E+02 0.14741218382E+02 0.17478433748E+02 0.20340422608E+02 0.23106950326E+02
 0.25516573784E+02 0.27306527387E+02 0.28262073101E+02 0.28262032364E+02 0.27306380505E+02
 0.25516386867E+02 0.23106929097E+02 0.20340595520E+02 0.17478525547E+02 0.14741060780E+02
 0.12285011528E+02 0.10198177560E+02 0.85075617941E+01 0.71954359918E+01 0.62173697245E+01
 0.55183172609E+01 0.50450441259E+01 0.47542241042E+01 0.46162839839E+01 0.46163484966E+01
 0.47543033085E+01 0.43924012512E+01 0.47542552275E+01 0.53039405324E+01 0.60823156300E+01
 0.71357388261E+01 0.85074277357E+01 0.10224586310E+02 0.12282765650E+02 0.14630483205E+02
 0.17158239520E+02 0.19696897591E+02 0.22030078419E+02 0.23922290593E+02 0.25159028224E+02
 0.25589406225E+02 0.25159006596E+02 0.23922291248E+02 0.22030205130E+02 0.19697179680E+02
 0.17158494945E+02 0.14630481414E+02 0.12282522828E+02 0.10224338899E+02 0.85073265048E+01
 0.71357389076E+01 0.60823510259E+01 0.53040109376E+01 0.47543259444E+01 0.43924014855E+01
 0.41876345820E+01 0.41214727531E+01 0.41876818969E+01 0.39192121847E+01 0.41876534944E+01
 0.46163140623E+01 0.52354691005E+01 0.60822830405E+01 0.71952983584E+01 0.86051755716E+01
 0.10321965302E+02 0.12320807686E+02 0.14529522655E+02 0.16822612074E+02 0.19026174590E+02
 0.20936400947E+02 0.22350458890E+02 0.23103747198E+02 0.23103794778E+02 0.22350569003E+02
 0.20936522271E+02 0.19026292926E+02 0.16822722822E+02 0.14529588685E+02 0.12320792516E+02
 0.10321882833E+02 0.86050706687E+01 0.71952039818E+01 0.60822231046E+01 0.52354651089E+01
 0.46163532345E+01 0.41876848208E+01 0.39192084629E+01 0.37901936706E+01 0.37902035467E+01
 0.36004386190E+01 0.37901968410E+01 0.41214724360E+01 0.46163228870E+01 0.53039389010E+01
 0.62172982134E+01 0.73868950416E+01 0.88310329583E+01 0.10543378173E+02 0.12480207747E+02
 0.14551378837E+02 0.16619581621E+02 0.18511249879E+02 0.20039542009E+02 0.21035782144E+02
 0.21382048186E+02 0.21035885482E+02 0.20039604596E+02 0.18511145680E+02 0.16619351317E+02
 0.14551201452E+02 0.12480224008E+02 0.10543556896E+02 0.88312178447E+01 0.73869638731E+01
 0.62172561546E+01 0.53038699441E+01 0.46162880707E+01 0.41214711217E+01 0.37902024953E+01
 0.36004395726E+01 0.35386931036E+01 0.34170395905E+01 0.35386961080E+01 0.37901996935E+01
 0.41876651715E+01 0.47542937892E+01 0.55183167218E+01 0.65088153346E+01 0.77485630791E+01
 0.92437167340E+01 0.10971648807E+02 0.12870064324E+02 0.14831815264E+02 0.16709514539E+02
 0.18331812335E+02 0.19529590187E+02 0.20166591897E+02 0.20166627746E+02 0.19529626077E+02
 0.18331713805E+02 0.16709246409E+02 0.14831515114E+02 0.12869933781E+02 0.10971765157E+02
 0.92439672739E+01 0.77487669924E+01 0.65088844673E+01 0.55182885285E+01 0.47542457350E+01
 0.41876376302E+01 0.37901918696E+01 0.35386959560E+01 0.34170401260E+01 0.34573052781E+01
 0.35176070635E+01 0.37025570264E+01 0.40241392317E+01 0.45019488908E+01 0.51619649671E+01
 0.60334885399E+01 0.71434128802E+01 0.85074103895E+01 0.10118537491E+02 0.11935378009E+02
 0.13873573265E+02 0.15805179457E+02 0.17568992311E+02 0.18992037794E+02 0.19918688475E+02
 0.20240527050E+02 0.19918689330E+02 0.18992074990E+02 0.17569043877E+02 0.15805175234E+02
 0.13873507614E+02 0.11935321203E+02 0.10118525729E+02 0.85074126075E+01 0.71434126117E+01
 0.60335076984E+01 0.51619956965E+01 0.45019489006E+01 0.40241083135E+01 0.37025401177E+01
 0.35176143300E+01 0.35176040115E+01 0.35175940094E+01 0.36477049667E+01 0.39169184241E+01
 0.43431704310E+01 0.49527956452E+01 0.57782865322E+01 0.68532535969E+01 0.82039757077E+01
 0.98377820796E+01 0.11729829920E+02 0.13811522258E+02 0.15965048403E+02 0.18028323154E+02
 0.19812518649E+02 0.21130725156E+02 0.21832008428E+02 0.21831961296E+02 0.21130685244E+02
 0.19812647492E+02 0.18028617431E+02 0.15965330919E+02 0.13811621242E+02 0.11729710811E+02
 0.98375411529E+01 0.82037639090E+01 0.68531783154E+01 0.57783335714E+01 0.49528597941E+01
 0.43431831120E+01 0.39169071874E+01 0.36477119820E+01 0.37025551672E+01 0.36328499385E+01
 0.37025307216E+01 0.39169124032E+01 0.42919763262E+01 0.48543435539E+01 0.56399095337E+01
 0.66896307478E+01 0.80414473729E+01 0.97182953602E+01 0.11713423122E+02 0.13975787616E+02
 0.16399816910E+02 0.18824474108E+02 0.21045572461E+02 0.22842342915E+02 0.24014629704E+02
 0.24422147721E+02 0.24014489306E+02 0.22842253344E+02 0.21045679375E+02 0.18824716192E+02
 0.16400011426E+02 0.13975809298E+02 0.11713284486E+02 0.97181128077E+01 0.80413500931E+01
 0.66896586852E+01 0.56399868869E+01 0.48543787789E+01 0.42919691682E+01 0.39169185917E+01
 0.40241481199E+01 0.38710978867E+01 0.38710713998E+01 0.40241193419E+01 0.43432042220E+01
 0.48544050661E+01 0.55963576596E+01 0.66170804414E+01 0.79666148846E+01 0.96849750191E+01
 0.11786195735E+02 0.14240754932E+02 0.16960363530E+02 0.19790473710E+02 0.22515910789E+02
 0.24883108391E+02 0.26638187049E+02 0.27574037637E+02 0.27573970356E+02 0.26638038904E+02
 0.24882961363E+02 0.22515783385E+02 0.19790369148E+02 0.16960329195E+02 0.14240816333E+02
 0.11786297194E+02 0.96850553734E+01 0.79666781768E+01 0.66171349833E+01 0.55963659277E+01
 0.48543606952E+01 0.43431764327E+01 0.45019489006E+01 0.42474327687E+01 0.41651989563E+01
 0.42473713954E+01 0.45019491618E+01 0.49528805692E+01 0.56400421995E+01 0.66171893832E+01
 0.79456925436E+01 0.96829859568E+01 0.11866041703E+02 0.14491437676E+02 0.17495323931E+02
 0.20738716587E+02 0.24004794131E+02 0.27014090945E+02 0.29460102423E+02 0.31061518395E+02
 0.31619323366E+02 0.31061533455E+02 0.29460099783E+02 0.27013961618E+02 0.24004495921E+02
 0.20738442699E+02 0.17495324662E+02 0.14491685660E+02 0.11866276132E+02 0.96830663784E+01
 0.79456931256E+01 0.66171699216E+01 0.56399718374E+01 0.49527953678E+01 0.51619036496E+01
 0.47835160637E+01 0.46040081179E+01 0.46039381128E+01 0.47834393338E+01 0.51619589774E+01
 0.57783276237E+01 0.66897213381E+01 0.79668022482E+01 0.96831902249E+01 0.11899169054E+02
 0.14640584433E+02 0.17875071747E+02 0.21490291551E+02 0.25281603892E+02 0.28957384942E+02
 0.32167968413E+02 0.34558481849E+02 0.35836589128E+02 0.35836635180E+02 0.34558653248E+02
 0.32168194778E+02 0.28957422534E+02 0.25281402251E+02 0.21490156361E+02 0.17875206641E+02
 0.14640764267E+02 0.11899132933E+02 0.96830490763E+01 0.79667665846E+01 0.66897290092E+01
 0.57782518429E+01 0.60333449751E+01 0.55056442609E+01 0.52123949986E+01 0.51184356073E+01
 0.52122416347E+01 0.55056267773E+01 0.60334448881E+01 0.68531201010E+01 0.80413575322E+01
 0.96851622645E+01 0.11866428939E+02 0.14640840166E+02 0.18012150080E+02 0.21904854365E+02
 0.26142246295E+02 0.30439800525E+02 0.34423246379E+02 0.37676118517E+02 0.39812421630E+02
 0.40557623466E+02 0.39812385922E+02 0.37676321638E+02 0.34423618528E+02 0.30439962766E+02
 0.26142172117E+02 0.21904858309E+02 0.18012230691E+02 0.14640693943E+02 0.11866113408E+02
 0.96850734571E+01 0.80415278659E+01 0.68531897198E+01 0.71432671873E+01 0.64408365259E+01
 0.60181333205E+01 0.58204646397E+01 0.58203136183E+01 0.60179928350E+01 0.64409942321E+01
 0.71433587709E+01 0.82036543019E+01 0.97180178356E+01 0.11786289392E+02 0.14491767713E+02
 0.17875316502E+02 0.21904947454E+02 0.26445989482E+02 0.31242193676E+02 0.35919946520E+02
 0.40024726798E+02 0.43090968822E+02 0.44733266270E+02 0.44733023121E+02 0.43090660505E+02
 0.40024852620E+02 0.35920236204E+02 0.31242209278E+02 0.26445902186E+02 0.21905025457E+02
 0.17875303464E+02 0.14491465491E+02 0.11786111963E+02 0.97182799549E+01 0.82039424606E+01
 0.85074126075E+01 0.76101774837E+01 0.70466732508E+01 0.67402159525E+01 0.66431827800E+01
 0.67399311356E+01 0.70467263593E+01 0.76105429764E+01 0.85074127406E+01 0.98374381226E+01
 0.11713124895E+02 0.14240696754E+02 0.17495324079E+02 0.21490278978E+02 0.26142341582E+02
 0.31242321736E+02 0.36444474120E+02 0.41287699219E+02 0.45254976873E+02 0.47865346079E+02
 0.48776475157E+02 0.47864764361E+02 0.45254642819E+02 0.41287826165E+02 0.36444473870E+02
 0.31242065895E+02 0.26142334841E+02 0.21490537215E+02 0.17495324662E+02 0.14240487719E+02
 0.11713269436E+02 0.98378402789E+01 0.10118768119E+02 0.90191981403E+01 0.83130969372E+01
 0.79013700121E+01 0.77134013486E+01 0.77131242680E+01 0.79011028238E+01 0.83134262396E+01
 0.90195906289E+01 0.10118611641E+02 0.11729700233E+02 0.13975696909E+02 0.16960194681E+02
 0.20738384462E+02 0.25281434637E+02 0.30439986493E+02 0.35920139077E+02 0.41287628121E+02
 0.46011209828E+02 0.49545884139E+02 0.51440602447E+02 0.51440288239E+02 0.49545496200E+02
 0.46011333400E+02 0.41287779747E+02 0.35919804944E+02 0.30439698654E+02 0.25281736687E+02
 0.20738759834E+02 0.16960083165E+02 0.13975545185E+02 0.11729963520E+02 0.11935735294E+02
 0.10646426698E+02 0.98115063270E+01 0.93112096837E+01 0.90509486384E+01 0.89706834467E+01
 0.90504718900E+01 0.93111464167E+01 0.98119301361E+01 0.10646533097E+02 0.11935473109E+02
 0.13811736784E+02 0.16400018761E+02 0.19790290246E+02 0.24004407642E+02 0.28957358738E+02
 0.34423537978E+02 0.40024719416E+02 0.45254517614E+02 0.49545507242E+02 0.52369994858E+02
 0.53353764289E+02 0.52369789182E+02 0.49545760313E+02 0.45255056910E+02 0.40024685473E+02
 0.34423041715E+02 0.28957352210E+02 0.24004910011E+02 0.19790387232E+02 0.16399612385E+02
 0.13811632646E+02 0.13873828897E+02 0.12433136200E+02 0.11503788027E+02 0.10949094496E+02
 0.10651436178E+02 0.10524852168E+02 0.10524530186E+02 0.10651062527E+02 0.10949276102E+02
 0.11503984658E+02 0.12432828742E+02 0.13873635350E+02 0.15965486046E+02 0.18824798875E+02
 0.22515770583E+02 0.27013910960E+02 0.32168179691E+02 0.37676368204E+02 0.43090732603E+02
 0.47864793694E+02 0.51440224436E+02 0.53353617881E+02 0.53353464729E+02 0.51440252791E+02
 0.47865374452E+02 0.43091127213E+02 0.37676022077E+02 0.32167824893E+02 0.27014208156E+02
 0.22516064861E+02 0.18824416631E+02 0.15965042763E+02 0.15805175234E+02 0.14278554121E+02
 0.13311478731E+02 0.12756076903E+02 0.12474274454E+02 0.12353855348E+02 0.12321856606E+02
 0.12353495571E+02 0.12474274538E+02 0.12756376331E+02 0.13311316671E+02 0.14278037554E+02
 0.15805175861E+02 0.18028700252E+02 0.21045760788E+02 0.24882981801E+02 0.29460099324E+02
 0.34558736796E+02 0.39812589880E+02 0.44733225784E+02 0.48776477015E+02 0.51440322739E+02
 0.52369580767E+02 0.51439940471E+02 0.48776475157E+02 0.44733588131E+02 0.39812548646E+02
 0.34558325709E+02 0.29460099783E+02 0.24883341142E+02 0.21045664326E+02 0.18028208164E+02
 0.17568783422E+02 0.16044296467E+02 0.15115027862E+02 0.14629723821E+02 0.14434110358E+02
 0.14390766296E+02 0.14396491662E+02 0.14396312946E+02 0.14390664858E+02 0.14434463583E+02
 0.14629967247E+02 0.15114678051E+02 0.16043913245E+02 0.17568943272E+02 0.19812647118E+02
 0.22842285377E+02 0.26638028782E+02 0.31061504819E+02 0.35836676732E+02 0.40557755397E+02
 0.44733384915E+02 0.47865331986E+02 0.49545745973E+02 0.49545381294E+02 0.47864796817E+02
 0.44733337854E+02 0.40557862198E+02 0.35836466773E+02 0.31061347745E+02 0.26638295719E+02
 0.22842492076E+02 0.19812397356E+02 0.18991826222E+02 0.17569586816E+02 0.16763429835E+02
 0.16428173508E+02 0.16399656874E+02 0.16517918379E+02 0.16648666987E+02 0.16702524873E+02
 0.16648480055E+02 0.16518041589E+02 0.16400058298E+02 0.16428284702E+02 0.16763190455E+02
 0.17569506864E+02 0.18991985716E+02 0.21130660951E+02 0.24014496150E+02 0.27573929932E+02
 0.31619201608E+02 0.35836438000E+02 0.39812341111E+02 0.43091032163E+02 0.45255180472E+02
 0.46011473941E+02 0.45254728105E+02 0.43090801675E+02 0.39812507674E+02 0.35836518804E+02
 0.31619074598E+02 0.27573988439E+02 0.24014753124E+02 0.21130696649E+02 0.19918611312E+02
 0.18695672803E+02 0.18094367647E+02 0.17985542991E+02 0.18203618198E+02 0.18571092266E+02
 0.18923563463E+02 0.19134194972E+02 0.19134044802E+02 0.18923369168E+02 0.18571165367E+02
 0.18203810588E+02 0.17985591419E+02 0.18094359309E+02 0.18695764442E+02 0.19918668014E+02
 0.21831979584E+02 0.24422201075E+02 0.27574029673E+02 0.31061365828E+02 0.34558239192E+02
 0.37675968903E+02 0.40024819157E+02 0.41287991975E+02 0.41287910008E+02 0.40024794204E+02
 0.37676218258E+02 0.34558511266E+02 0.31061365632E+02 0.27573919812E+02 0.24422247462E+02
 0.21832072441E+02 0.20240527050E+02 0.19294536304E+02 0.18961551493E+02 0.19137315702E+02
 0.19664762068E+02 0.20356730452E+02 0.21022619031E+02 0.21497393383E+02 0.21668830348E+02
 0.21497206467E+02 0.21022404926E+02 0.20356620516E+02 0.19664761557E+02 0.19137376750E+02
 0.18961631000E+02 0.19294584221E+02 0.20240528216E+02 0.21832052988E+02 0.24014744918E+02
 0.26638293851E+02 0.29460099324E+02 0.32167853793E+02 0.34423123888E+02 0.35919901301E+02
 0.36444474120E+02 0.35920087330E+02 0.34423409102E+02 0.32168065074E+02 0.29460102423E+02
 0.26638142628E+02 0.24014614655E+02 0.21832023360E+02 0.19918607783E+02 0.19294562588E+02
 0.19262872914E+02 0.19750472301E+02 0.20618791589E+02 0.21681477621E+02 0.22729468112E+02
 0.23562558484E+02 0.24022795760E+02 0.24022835841E+02 0.23562553313E+02 0.22729298411E+02
 0.21681297002E+02 0.20618777008E+02 0.19750530594E+02 0.19262843360E+02 0.19294498915E+02
 0.19918627242E+02 0.21130719920E+02 0.22842465140E+02 0.24883320694E+02 0.27014269489E+02
 0.28957417707E+02 0.30439663411E+02 0.31241952237E+02 0.31242085497E+02 0.30439859494E+02
 0.28957396297E+02 0.27014084998E+02 0.24883185444E+02 0.22842401884E+02 0.21130654783E+02
 0.18991860000E+02 0.18695706822E+02 0.18961622844E+02 0.19750500859E+02 0.20950596705E+02
 0.22388071885E+02 0.23846937614E+02 0.25099727092E+02 0.25944965490E+02 0.26243497766E+02
 0.25945295027E+02 0.25099900306E+02 0.23846821915E+02 0.22388010055E+02 0.20950686364E+02
 0.19750471626E+02 0.18961453206E+02 0.18695664701E+02 0.18991914741E+02 0.19812408386E+02
 0.21045582994E+02 0.22516070143E+02 0.24004999526E+02 0.25281698750E+02 0.26142163788E+02