   6   6   0   0
  0.2273200E+02  0.3820550E-09  0.3820550E-09  0.1078963E-08  0.5000000E-15
  1.000000000000000E-004
  CAR 
 As                                      
     24.45764593    -11.33094148  301      4.89197436      1.00000000
    -11.331  0.0000E+00  0.0000E+00
    -11.212  0.0000E+00  0.0000E+00
    -11.092  0.0000E+00  0.0000E+00
    -10.973  0.0000E+00  0.0000E+00
    -10.854  0.0000E+00  0.0000E+00
    -10.734  0.0000E+00  0.0000E+00
    -10.615  0.0000E+00  0.0000E+00
    -10.496  0.0000E+00  0.0000E+00
    -10.377  0.0000E+00  0.0000E+00
    -10.257  0.0000E+00  0.0000E+00
    -10.138  0.0000E+00  0.0000E+00
    -10.019  0.0000E+00  0.0000E+00
     -9.899  0.6582E-09  0.7852E-10
     -9.780  0.8870E-03  0.1058E-03
     -9.661  0.1050E+00  0.1263E-01
     -9.542  0.2388E+00  0.4112E-01
     -9.422  0.9791E+00  0.1579E+00
     -9.303  0.6128E+00  0.2310E+00
     -9.184  0.5661E+00  0.2985E+00
     -9.064  0.1293E+01  0.4528E+00
     -8.945  0.1447E+01  0.6254E+00
     -8.826  0.1605E+01  0.8169E+00
     -8.706  0.1234E+01  0.9641E+00
     -8.587  0.1094E+01  0.1095E+01
     -8.468  0.1430E+01  0.1265E+01
     -8.349  0.3262E+01  0.1654E+01
     -8.229  0.1937E+01  0.1885E+01
     -8.110  0.2024E+01  0.2127E+01
     -7.991  0.2696E+01  0.2449E+01
     -7.871  0.1963E+01  0.2683E+01
     -7.752  0.1254E+01  0.2832E+01
     -7.633  0.1312E+01  0.2989E+01
     -7.513  0.2765E+01  0.3319E+01
     -7.394  0.4474E+01  0.3852E+01
     -7.275  0.2711E+01  0.4176E+01
     -7.156  0.3504E+01  0.4594E+01
     -7.036  0.2826E+01  0.4931E+01
     -6.917  0.2697E+01  0.5253E+01
     -6.798  0.1482E+01  0.5430E+01
     -6.678  0.3563E+00  0.5472E+01
     -6.559  0.3880E+01  0.5935E+01
     -6.440  0.5447E+00  0.6000E+01
     -6.321  0.1318E-03  0.6000E+01
     -6.201  0.6875E-09  0.6000E+01
     -6.082  0.2509E-02  0.6000E+01
     -5.963  0.6894E+00  0.6083E+01
     -5.843  0.1387E+01  0.6248E+01
     -5.724  0.1410E+01  0.6416E+01
     -5.605  0.3625E+01  0.6849E+01
     -5.485  0.1558E+01  0.7034E+01
     -5.366  0.1021E+01  0.7156E+01
     -5.247  0.2264E+01  0.7426E+01
     -5.128  0.2714E+01  0.7750E+01
     -5.008  0.2403E+01  0.8037E+01
     -4.889  0.3069E+01  0.8403E+01
     -4.770  0.4115E+01  0.8894E+01
     -4.650  0.3649E+01  0.9329E+01
     -4.531  0.2070E+01  0.9576E+01
     -4.412  0.1666E+01  0.9775E+01
     -4.293  0.2011E+01  0.1001E+02
     -4.173  0.1392E+01  0.1018E+02
     -4.054  0.2139E+01  0.1044E+02
     -3.935  0.1707E+01  0.1064E+02
     -3.815  0.1843E+01  0.1086E+02
     -3.696  0.1489E+01  0.1104E+02
     -3.577  0.4703E+00  0.1109E+02
     -3.457  0.6242E+00  0.1117E+02
     -3.338  0.3295E+00  0.1121E+02
     -3.219  0.9771E+00  0.1132E+02
     -3.100  0.3378E+00  0.1136E+02
     -2.980  0.8587E+00  0.1147E+02
     -2.861  0.1030E+01  0.1159E+02
     -2.742  0.4524E+00  0.1164E+02
     -2.622  0.5691E+00  0.1171E+02
     -2.503  0.6553E+00  0.1179E+02
     -2.384  0.1068E+00  0.1180E+02
     -2.264  0.1438E+00  0.1182E+02
     -2.145  0.2697E+00  0.1185E+02
     -2.026  0.7064E-01  0.1186E+02
     -1.907  0.3374E+00  0.1190E+02
     -1.787  0.2978E+00  0.1194E+02
     -1.668  0.3704E+00  0.1198E+02
     -1.549  0.5076E-01  0.1199E+02
     -1.429  0.2300E-01  0.1199E+02
     -1.310  0.3286E-01  0.1199E+02
     -1.191  0.5807E-01  0.1200E+02
     -1.072  0.9552E-02  0.1200E+02
     -0.952  0.4476E+00  0.1205E+02
     -0.833  0.2184E+01  0.1231E+02
     -0.714  0.2106E+01  0.1257E+02
     -0.594  0.2630E+01  0.1288E+02
     -0.475  0.3567E+01  0.1330E+02
     -0.356  0.2479E+01  0.1360E+02
     -0.236  0.3056E+01  0.1396E+02
     -0.117  0.2484E+01  0.1426E+02
      0.002  0.2104E+01  0.1451E+02
      0.121  0.1606E+01  0.1470E+02
      0.241  0.3261E+01  0.1509E+02
      0.360  0.2314E+01  0.1537E+02
      0.479  0.3060E+01  0.1573E+02
      0.599  0.3685E+01  0.1617E+02
      0.718  0.3652E+01  0.1661E+02
      0.837  0.2985E+01  0.1697E+02
      0.956  0.3736E+01  0.1741E+02
      1.076  0.4378E+01  0.1793E+02
      1.195  0.4187E+01  0.1843E+02
      1.314  0.4205E+01  0.1893E+02
      1.434  0.5088E+01  0.1954E+02
      1.553  0.4061E+01  0.2003E+02
      1.672  0.4055E+01  0.2051E+02
      1.792  0.4760E+01  0.2108E+02
      1.911  0.4717E+01  0.2164E+02
      2.030  0.4339E+01  0.2216E+02
      2.149  0.5109E+01  0.2277E+02
      2.269  0.4941E+01  0.2336E+02
      2.388  0.3730E+01  0.2380E+02
      2.507  0.5175E+01  0.2442E+02
      2.627  0.3876E+01  0.2488E+02
      2.746  0.4364E+01  0.2540E+02
      2.865  0.3838E+01  0.2586E+02
      2.984  0.3174E+01  0.2624E+02
      3.104  0.3439E+01  0.2665E+02
      3.223  0.3532E+01  0.2707E+02
      3.342  0.1928E+01  0.2730E+02
      3.462  0.3075E+01  0.2767E+02
      3.581  0.2307E+01  0.2794E+02
      3.700  0.3357E+01  0.2834E+02
      3.820  0.1797E+01  0.2856E+02
      3.939  0.1475E+01  0.2873E+02
      4.058  0.2152E+01  0.2899E+02
      4.177  0.2218E+01  0.2925E+02
      4.297  0.1689E+01  0.2946E+02
      4.416  0.1462E+01  0.2963E+02
      4.535  0.1250E+01  0.2978E+02
      4.655  0.6474E+00  0.2986E+02
      4.774  0.3884E+00  0.2990E+02
      4.893  0.8202E+00  0.3000E+02
      5.013  0.5034E+00  0.3006E+02
      5.132  0.4160E+00  0.3011E+02
      5.251  0.2778E+00  0.3014E+02
      5.370  0.7872E+00  0.3024E+02
      5.490  0.1351E+01  0.3040E+02
      5.609  0.1866E+01  0.3062E+02
      5.728  0.3193E+01  0.3100E+02
      5.848  0.4607E+01  0.3155E+02
      5.967  0.4983E+01  0.3215E+02
      6.086  0.5279E+01  0.3278E+02
      6.205  0.7108E+01  0.3362E+02
      6.325  0.2890E+01  0.3397E+02
      6.444  0.4286E+01  0.3448E+02
      6.563  0.5381E+01  0.3512E+02
      6.683  0.3889E+01  0.3559E+02
      6.802  0.4075E+01  0.3607E+02
      6.921  0.3203E+01  0.3645E+02
      7.041  0.4316E+01  0.3697E+02
      7.160  0.4261E+01  0.3748E+02
      7.279  0.5659E+01  0.3815E+02
      7.398  0.5956E+01  0.3886E+02
      7.518  0.4420E+01  0.3939E+02
      7.637  0.3663E+01  0.3983E+02
      7.756  0.2756E+01  0.4016E+02
      7.876  0.3729E+01  0.4060E+02
      7.995  0.3781E+01  0.4105E+02
      8.114  0.3783E+01  0.4150E+02
      8.233  0.5279E+01  0.4213E+02
      8.353  0.2721E+01  0.4246E+02
      8.472  0.2703E+01  0.4278E+02
      8.591  0.4383E+01  0.4330E+02
      8.711  0.5434E+01  0.4395E+02
      8.830  0.3677E+01  0.4439E+02
      8.949  0.2444E+01  0.4468E+02
      9.069  0.2038E+01  0.4492E+02
      9.188  0.2013E+01  0.4516E+02
      9.307  0.3307E+01  0.4556E+02
      9.426  0.1766E+01  0.4577E+02
      9.546  0.1259E+01  0.4592E+02
      9.665  0.1438E+01  0.4609E+02
      9.784  0.2899E+01  0.4644E+02
      9.904  0.1960E+01  0.4667E+02
     10.023  0.2176E+01  0.4693E+02
     10.142  0.1881E+01  0.4716E+02
     10.262  0.3830E+01  0.4761E+02
     10.381  0.3075E+01  0.4798E+02
     10.500  0.3682E+01  0.4842E+02
     10.619  0.3033E+01  0.4878E+02
     10.739  0.3378E+01  0.4918E+02
     10.858  0.4536E+01  0.4972E+02
     10.977  0.6222E+01  0.5047E+02
     11.097  0.3749E+01  0.5091E+02
     11.216  0.3476E+01  0.5133E+02
     11.335  0.3337E+01  0.5173E+02
     11.454  0.3460E+01  0.5214E+02
     11.574  0.2894E+01  0.5248E+02
     11.693  0.2236E+01  0.5275E+02
     11.812  0.2916E+01  0.5310E+02
     11.932  0.2677E+01  0.5342E+02
     12.051  0.2970E+01  0.5377E+02
     12.170  0.1449E+01  0.5395E+02
     12.290  0.2594E+01  0.5425E+02
     12.409  0.3116E+01  0.5463E+02
     12.528  0.2236E+01  0.5489E+02
     12.647  0.1494E+01  0.5507E+02
     12.767  0.3598E+01  0.5550E+02
     12.886  0.3316E+01  0.5590E+02
     13.005  0.2746E+01  0.5622E+02
     13.125  0.3148E+01  0.5660E+02
     13.244  0.4119E+01  0.5709E+02
     13.363  0.2395E+01  0.5738E+02
     13.482  0.2187E+01  0.5764E+02
     13.602  0.2173E+01  0.5790E+02
     13.721  0.3268E+01  0.5829E+02
     13.840  0.2840E+01  0.5863E+02
     13.960  0.2797E+01  0.5896E+02
     14.079  0.2394E+01  0.5924E+02
     14.198  0.3198E+01  0.5963E+02
     14.318  0.2645E+01  0.5994E+02
     14.437  0.2814E+01  0.6028E+02
     14.556  0.3296E+01  0.6067E+02
     14.675  0.4091E+01  0.6116E+02
     14.795  0.5223E+01  0.6178E+02
     14.914  0.7881E+01  0.6272E+02
     15.033  0.3388E+01  0.6313E+02
     15.153  0.2752E+01  0.6345E+02
     15.272  0.4882E+01  0.6404E+02
     15.391  0.5852E+01  0.6473E+02
     15.510  0.5778E+01  0.6542E+02
     15.630  0.4112E+01  0.6591E+02
     15.749  0.5195E+01  0.6653E+02
     15.868  0.4014E+01  0.6701E+02
     15.988  0.2824E+01  0.6735E+02
     16.107  0.4646E+01  0.6790E+02
     16.226  0.5223E+01  0.6853E+02
     16.346  0.5119E+01  0.6914E+02
     16.465  0.3909E+01  0.6960E+02
     16.584  0.5045E+01  0.7021E+02
     16.703  0.5106E+01  0.7082E+02
     16.823  0.6578E+01  0.7160E+02
     16.942  0.4830E+01  0.7218E+02
     17.061  0.4809E+01  0.7275E+02
     17.181  0.5964E+01  0.7346E+02
     17.300  0.6323E+01  0.7422E+02
     17.419  0.5916E+01  0.7492E+02
     17.539  0.3701E+01  0.7536E+02
     17.658  0.3193E+01  0.7574E+02
     17.777  0.5874E+01  0.7645E+02
     17.896  0.6236E+01  0.7719E+02
     18.016  0.5486E+01  0.7784E+02
     18.135  0.4885E+01  0.7843E+02
     18.254  0.5009E+01  0.7902E+02
     18.374  0.4189E+01  0.7952E+02
     18.493  0.4727E+01  0.8009E+02
     18.612  0.4391E+01  0.8061E+02
     18.731  0.3247E+01  0.8100E+02
     18.851  0.4008E+01  0.8148E+02
     18.970  0.2818E+01  0.8181E+02
     19.089  0.3081E+01  0.8218E+02
     19.209  0.4079E+01  0.8267E+02
     19.328  0.4639E+01  0.8322E+02
     19.447  0.5667E+01  0.8390E+02
     19.567  0.3662E+01  0.8433E+02
     19.686  0.4724E+01  0.8490E+02
     19.805  0.4169E+01  0.8539E+02
     19.924  0.4114E+01  0.8588E+02
     20.044  0.4185E+01  0.8638E+02
     20.163  0.4638E+01  0.8694E+02
     20.282  0.4557E+01  0.8748E+02
     20.402  0.7232E+01  0.8834E+02
     20.521  0.5752E+01  0.8903E+02
     20.640  0.5282E+01  0.8966E+02
     20.759  0.5645E+01  0.9033E+02
     20.879  0.5221E+01  0.9096E+02
     20.998  0.4695E+01  0.9152E+02
     21.117  0.4626E+01  0.9207E+02
     21.237  0.4696E+01  0.9263E+02
     21.356  0.3105E+01  0.9300E+02
     21.475  0.3373E+01  0.9340E+02
     21.595  0.5695E+01  0.9408E+02
     21.714  0.5445E+01  0.9473E+02
     21.833  0.2005E+01  0.9497E+02
     21.952  0.2393E+01  0.9525E+02
     22.072  0.1372E+01  0.9542E+02
     22.191  0.1831E+01  0.9564E+02
     22.310  0.1991E+01  0.9587E+02
     22.430  0.3368E+00  0.9591E+02
     22.549  0.5101E+00  0.9598E+02
     22.668  0.8496E-02  0.9598E+02
     22.788  0.2159E-01  0.9598E+02
     22.907  0.1717E+00  0.9600E+02
     23.026  0.3122E-02  0.9600E+02
     23.145  0.3304E-08  0.9600E+02
     23.265  0.0000E+00  0.9600E+02
     23.384  0.0000E+00  0.9600E+02
     23.503  0.0000E+00  0.9600E+02
     23.623  0.0000E+00  0.9600E+02
     23.742  0.0000E+00  0.9600E+02
     23.861  0.0000E+00  0.9600E+02
     23.980  0.0000E+00  0.9600E+02
     24.100  0.0000E+00  0.9600E+02
     24.219  0.0000E+00  0.9600E+02
     24.338  0.0000E+00  0.9600E+02
     24.458  0.0000E+00  0.9600E+02
