    6    6    1    1
  0.2273200E+02  0.3820550E-09  0.3820550E-09  0.1078963E-08  0.5000000E-15
  1.000000000000000E-004
  CAR 
 As                                      
     30     65     48
 
  0.0000000E+00  0.0000000E+00  0.0000000E+00  0.1953125E-02
      1         -9.704188   1.000000
      2         -8.930565   1.000000
      3         -8.930252   1.000000
      4         -4.050790   1.000000
      5         -4.050547   1.000000
      6         -1.217932   1.000000
      7          2.484302   1.000000
      8          3.003374   1.000000
      9          3.003384   1.000000
     10          3.167327   1.000000
     11          3.167337   1.000000
     12          3.167611   1.000000
     13          3.167620   1.000000
     14          4.013167   1.000000
     15          4.013434   1.000000
     16          6.160721   0.000000
     17          6.160728   0.000000
     18          6.160779   0.000000
     19          6.160786   0.000000
     20          6.518279   0.000000
     21          6.633840   0.000000
     22          6.633960   0.000000
     23          7.693406   0.000000
     24          7.693415   0.000000
     25         11.797098   0.000000
     26         11.797099   0.000000
     27         11.808756   0.000000
     28         11.808933   0.000000
     29         12.154155   0.000000
     30         13.524190   0.000000
     31         13.524191   0.000000
     32         13.524333   0.000000
     33         13.524334   0.000000
     34         13.596618   0.000000
     35         13.612466   0.000000
     36         13.612467   0.000000
     37         13.967034   0.000000
     38         16.971178   0.000000
     39         16.971352   0.000000
     40         17.577204   0.000000
     41         17.577206   0.000000
     42         17.577255   0.000000
     43         17.577257   0.000000
     44         17.662628   0.000000
     45         17.662674   0.000000
     46         19.493948   0.000000
     47         19.494014   0.000000
     48         19.494064   0.000000
 
  0.1250000E+00  0.1330263E-17  0.0000000E+00  0.1171875E-01
      1         -9.519823   1.000000
      2         -8.757884   1.000000
      3         -8.754897   1.000000
      4         -4.051413   1.000000
      5         -4.013248   1.000000
      6         -1.729888   1.000000
      7          1.368813   1.000000
      8          1.711924   1.000000
      9          2.466598   1.000000
     10          2.519592   1.000000
     11          2.765373   1.000000
     12          2.920136   1.000000
     13          3.129878   1.000000
     14          4.237871   1.000000
     15          5.008217   0.000505
     16          5.505314   0.000000
     17          6.085645   0.000000
     18          6.190177   0.000000
     19          6.859934   0.000000
     20          7.060297   0.000000
     21          7.234722   0.000000
     22          7.514927   0.000000
     23          7.784533   0.000000
     24          8.167289   0.000000
     25         10.793465   0.000000
     26         11.241243   0.000000
     27         11.464346   0.000000
     28         11.837762   0.000000
     29         11.975949   0.000000
     30         12.838705   0.000000
     31         13.709789   0.000000
     32         14.409963   0.000000
     33         14.459040   0.000000
     34         14.637528   0.000000
     35         14.773764   0.000000
     36         15.183388   0.000000
     37         15.372694   0.000000
     38         15.985020   0.000000
     39         16.212649   0.000000
     40         16.234283   0.000000
     41         16.507192   0.000000
     42         17.602243   0.000000
     43         18.319271   0.000000
     44         18.558452   0.000000
     45         18.771289   0.000000
     46         19.223915   0.000000
     47         19.596103   0.000000
     48         21.166261   0.000000
 
  0.2500000E+00  0.2660526E-17  0.0000000E+00  0.1171875E-01
      1         -8.976208   1.000000
      2         -8.266422   1.000000
      3         -8.238527   1.000000
      4         -4.335697   1.000000
      5         -3.995856   1.000000
      6         -2.985218   1.000000
      7          0.049005   1.000000
      8          0.083138   1.000000
      9          1.714530   1.000000
     10          2.296427   1.000000
     11          2.422021   1.000000
     12          2.533349   1.000000
     13          2.684689   1.000000
     14          3.021630   1.000000
     15          4.130749   1.000000
     16          5.899005   0.000000
     17          6.129199   0.000000
     18          6.600508   0.000000
     19          6.821891   0.000000
     20          7.303541   0.000000
     21          7.699199   0.000000
     22          8.595063   0.000000
     23          8.831703   0.000000
     24          9.423816   0.000000
     25         10.528208   0.000000
     26         10.915012   0.000000
     27         11.767756   0.000000
     28         11.879666   0.000000
     29         12.795322   0.000000
     30         13.179041   0.000000
     31         13.822696   0.000000
     32         15.363192   0.000000
     33         15.430617   0.000000
     34         15.691549   0.000000
     35         15.773199   0.000000
     36         15.944291   0.000000
     37         16.040439   0.000000
     38         16.235519   0.000000
     39         16.637238   0.000000
     40         17.100632   0.000000
     41         17.915860   0.000000
     42         18.252631   0.000000
     43         19.346845   0.000000
     44         20.383317   0.000000
     45         20.704241   0.000000
     46         21.158155   0.000000
     47         21.185520   0.000000
     48         21.264986   0.000000
 
  0.3750000E+00  0.1786858E-16  0.0000000E+00  0.1171875E-01
      1         -8.116685   1.000000
      2         -7.572322   1.000000
      3         -7.458088   1.000000
      4         -5.235294   1.000000
      5         -4.456988   1.000000
      6         -4.328256   1.000000
      7         -0.734142   1.000000
      8          0.029292   1.000000
      9          1.206968   1.000000
     10          1.463886   1.000000
     11          1.929122   1.000000
     12          2.034724   1.000000
     13          2.121892   1.000000
     14          2.680131   1.000000
     15          3.367146   1.000000
     16          5.807960   0.000000
     17          6.234611   0.000000
     18          6.512859   0.000000
     19          6.784692   0.000000
     20          6.934738   0.000000
     21          7.402608   0.000000
     22          8.614317   0.000000
     23          9.636757   0.000000
     24         10.506544   0.000000
     25         10.801379   0.000000
     26         11.297287   0.000000
     27         12.176144   0.000000
     28         13.201565   0.000000
     29         13.912415   0.000000
     30         14.694170   0.000000
     31         14.787437   0.000000
     32         15.333652   0.000000
     33         15.749525   0.000000
     34         16.631714   0.000000
     35         16.901972   0.000000
     36         17.057892   0.000000
     37         17.241785   0.000000
     38         17.413357   0.000000
     39         18.078430   0.000000
     40         18.346847   0.000000
     41         19.943749   0.000000
     42         20.062397   0.000000
     43         20.130105   0.000000
     44         20.342266   0.000000
     45         20.445230   0.000000
     46         20.832538   0.000000
     47         20.978896   0.000000
     48         21.435230   0.000000
 
  0.5000000E+00  0.5321051E-17  0.0000000E+00  0.5859375E-02
      1         -7.180118   1.000000
      2         -7.179918   1.000000
      3         -7.136070   1.000000
      4         -5.634945   1.000000
      5         -5.634892   1.000000
      6         -4.715410   1.000000
      7         -0.799747   1.000000
      8          0.916097   1.000000
      9          0.943947   1.000000
     10          0.944106   1.000000
     11          1.030877   1.000000
     12          1.824632   1.000000
     13          1.824979   1.000000
     14          2.869885   1.000000
     15          2.869919   1.000000
     16          6.198302   0.000000
     17          6.198333   0.000000
     18          6.518199   0.000000
     19          7.099539   0.000000
     20          7.099825   0.000000
     21          7.141399   0.000000
     22          7.141674   0.000000
     23          9.997574   0.000000
     24         11.041180   0.000000
     25         11.041189   0.000000
     26         11.477071   0.000000
     27         11.656601   0.000000
     28         15.315879   0.000000
     29         15.573226   0.000000
     30         15.573353   0.000000
     31         16.419435   0.000000
     32         16.506463   0.000000
     33         16.637556   0.000000
     34         16.637581   0.000000
     35         16.799696   0.000000
     36         16.799989   0.000000
     37         17.877784   0.000000
     38         17.877989   0.000000
     39         17.969507   0.000000
     40         17.969537   0.000000
     41         18.573926   0.000000
     42         18.586048   0.000000
     43         18.679965   0.000000
     44         19.278935   0.000000
     45         20.561708   0.000000
     46         20.561727   0.000000
     47         22.013676   0.000000
     48         22.013693   0.000000
 
  0.1250000E+00  0.1250000E+00  0.0000000E+00  0.1171875E-01
      1         -9.155395   1.000000
      2         -8.416435   1.000000
      3         -8.416132   1.000000
      4         -4.089313   1.000000
      5         -4.089146   1.000000
      6         -2.586969   1.000000
      7          0.460856   1.000000
      8          0.461065   1.000000
      9          1.837280   1.000000
     10          1.837441   1.000000
     11          1.967040   1.000000
     12          2.884466   1.000000
     13          3.011786   1.000000
     14          4.177521   1.000000
     15          4.177536   1.000000
     16          6.184156   0.000000
     17          6.184219   0.000000
     18          6.284567   0.000000
     19          6.820118   0.000000
     20          7.770093   0.000000
     21          7.770155   0.000000
     22          7.776970   0.000000
     23          8.678905   0.000000
     24          8.678906   0.000000
     25         10.216262   0.000000
     26         11.258455   0.000000
     27         11.258468   0.000000
     28         11.743328   0.000000
     29         12.952390   0.000000
     30         14.026748   0.000000
     31         14.026867   0.000000
     32         14.162478   0.000000
     33         14.832822   0.000000
     34         14.832823   0.000000
     35         15.357277   0.000000
     36         15.357390   0.000000
     37         16.200971   0.000000
     38         16.200982   0.000000
     39         16.506153   0.000000
     40         17.765554   0.000000
     41         17.859010   0.000000
     42         18.353316   0.000000
     43         18.353395   0.000000
     44         19.344308   0.000000
     45         19.344386   0.000000
     46         20.628020   0.000000
     47         20.628079   0.000000
     48         22.214995   0.000000
 
  0.2500000E+00  0.1250000E+00  0.0000000E+00  0.2343750E-01
      1         -8.448113   1.000000
      2         -7.798996   1.000000
      3         -7.758275   1.000000
      4         -4.705486   1.000000
      5         -4.315138   1.000000
      6         -3.874311   1.000000
      7         -0.327333   1.000000
      8         -0.045401   1.000000
      9          0.749629   1.000000
     10          1.096490   1.000000
     11          1.206240   1.000000
     12          2.754292   1.000000
     13          2.800262   1.000000
     14          3.152579   1.000000
     15          4.113692   1.000000
     16          5.628314   0.000000
     17          5.845568   0.000000
     18          6.218062   0.000000
     19          7.350082   0.000000
     20          8.101922   0.000000
     21          8.174067   0.000000
     22          8.609063   0.000000
     23          9.239841   0.000000
     24          9.722947   0.000000
     25         10.554297   0.000000
     26         10.884458   0.000000
     27         11.122466   0.000000
     28         12.455965   0.000000
     29         13.304761   0.000000
     30         14.826010   0.000000
     31         14.827906   0.000000
     32         15.071039   0.000000
     33         15.291171   0.000000
     34         15.475088   0.000000
     35         16.501442   0.000000
     36         16.820512   0.000000
     37         17.234758   0.000000
     38         17.436272   0.000000
     39         17.852669   0.000000
     40         18.148236   0.000000
     41         19.399134   0.000000
     42         19.598483   0.000000
     43         20.277982   0.000000
     44         20.506579   0.000000
     45         20.521982   0.000000
     46         21.018090   0.000000
     47         21.307901   0.000000
     48         21.420249   0.000000
 
  0.3750000E+00  0.1250000E+00  0.0000000E+00  0.2343750E-01
      1         -7.483918   1.000000
      2         -7.127209   1.000000
      3         -6.996095   1.000000
      4         -5.671020   1.000000
      5         -5.186683   1.000000
      6         -4.817691   1.000000
      7         -0.839153   1.000000
      8          0.528667   1.000000
      9          0.732242   1.000000
     10          0.750726   1.000000
     11          0.763019   1.000000
     12          1.544321   1.000000
     13          1.733617   1.000000
     14          3.360863   1.000000
     15          3.727133   1.000000
     16          5.690944   0.000000
     17          5.725993   0.000000
     18          6.480538   0.000000
     19          7.288116   0.000000
     20          7.867542   0.000000
     21          8.181184   0.000000
     22          8.268283   0.000000
     23          9.252504   0.000000
     24         10.633166   0.000000
     25         11.210631   0.000000
     26         11.230378   0.000000
     27         11.910026   0.000000
     28         13.067462   0.000000
     29         14.088473   0.000000
     30         15.323856   0.000000
     31         15.476841   0.000000
     32         16.258339   0.000000
     33         16.587928   0.000000
     34         16.616740   0.000000
     35         17.141346   0.000000
     36         17.216095   0.000000
     37         17.550758   0.000000
     38         17.911047   0.000000
     39         18.174698   0.000000
     40         18.604583   0.000000
     41         19.090149   0.000000
     42         19.651246   0.000000
     43         19.944603   0.000000
     44         20.299387   0.000000
     45         20.389435   0.000000
     46         20.689326   0.000000
     47         21.683888   0.000000
     48         21.748836   0.000000
 
  0.2500000E+00  0.2500000E+00  0.0000000E+00  0.1171875E-01
      1         -7.608781   1.000000
      2         -7.068000   1.000000
      3         -7.067746   1.000000
      4         -5.210217   1.000000
      5         -5.210131   1.000000
      6         -4.915371   1.000000
      7         -0.393316   1.000000
      8         -0.393234   1.000000
      9          0.155553   1.000000
     10          0.492610   1.000000
     11          0.492674   1.000000
     12          2.666016   1.000000
     13          2.759902   1.000000
     14          2.761642   1.000000
     15          2.761738   1.000000
     16          5.956325   0.000000
     17          6.100724   0.000000
     18          7.172468   0.000000
     19          7.172584   0.000000
     20          8.714320   0.000000
     21          8.714369   0.000000
     22          9.211282   0.000000
     23          9.763445   0.000000
     24          9.763669   0.000000
     25         10.468945   0.000000
     26         10.469094   0.000000
     27         10.985677   0.000000
     28         13.478751   0.000000
     29         13.590141   0.000000
     30         13.590143   0.000000
     31         14.811749   0.000000
     32         16.513465   0.000000
     33         16.513662   0.000000
     34         16.690050   0.000000
     35         17.281833   0.000000
     36         17.281868   0.000000
     37         17.941454   0.000000
     38         18.100276   0.000000
     39         18.100316   0.000000
     40         19.317898   0.000000
     41         19.318031   0.000000
     42         19.711479   0.000000
     43         19.711539   0.000000
     44         20.448483   0.000000
     45         20.572715   0.000000
     46         20.668029   0.000000
     47         20.668088   0.000000
     48         22.830892   0.000000
 
  0.3750000E+00  0.2500000E+00  0.0000000E+00  0.1171875E-01
      1         -6.640682   1.000000
      2         -6.640504   1.000000
      3         -6.563643   1.000000
      4         -5.853047   1.000000
      5         -5.852928   1.000000
      6         -5.618185   1.000000
      7         -0.920491   1.000000
      8         -0.394089   1.000000
      9         -0.393871   1.000000
     10          1.444244   1.000000
     11          1.448455   1.000000
     12          1.457885   1.000000
     13          1.458019   1.000000
     14          2.677513   1.000000
     15          2.677612   1.000000
     16          6.555076   0.000000
     17          6.555132   0.000000
     18          7.281931   0.000000
     19          7.282186   0.000000
     20          8.097657   0.000000
     21          8.133709   0.000000
     22          9.728064   0.000000
     23          9.728209   0.000000
     24         10.111411   0.000000
     25         10.962498   0.000000
     26         12.046383   0.000000
     27         12.046519   0.000000
     28         12.795530   0.000000
     29         12.795698   0.000000
     30         13.731226   0.000000
     31         14.583972   0.000000
     32         14.584006   0.000000
     33         15.567734   0.000000
     34         17.192203   0.000000
     35         17.253228   0.000000
     36         17.253287   0.000000
     37         19.031493   0.000000
     38         19.031533   0.000000
     39         19.310413   0.000000
     40         19.584747   0.000000
     41         20.171210   0.000000
     42         20.324960   0.000000
     43         20.325142   0.000000
     44         20.793186   0.000000
     45         21.099291   0.000000
     46         21.099323   0.000000
     47         21.903620   0.000000
     48         21.903800   0.000000
 
  0.4697277E-34  0.1202531E-32  0.1250000E+00  0.3906250E-02
      1         -9.690208   1.000000
      2         -9.084846   1.000000
      3         -8.782132   1.000000
      4         -4.387463   1.000000
      5         -3.660294   1.000000
      6         -1.310122   1.000000
      7          2.556073   1.000000
      8          3.005843   1.000000
      9          3.005853   1.000000
     10          3.131561   1.000000
     11          3.131571   1.000000
     12          3.202511   1.000000
     13          3.202520   1.000000
     14          3.887377   1.000000
     15          4.103993   1.000000
     16          5.979419   0.000000
     17          5.979426   0.000000
     18          6.376292   0.000000
     19          6.376299   0.000000
     20          6.523533   0.000000
     21          6.611821   0.000000
     22          6.645363   0.000000
     23          7.650315   0.000000
     24          7.650324   0.000000
     25         11.562651   0.000000
     26         11.814702   0.000000
     27         11.814704   0.000000
     28         12.042379   0.000000
     29         12.118076   0.000000
     30         13.102671   0.000000
     31         13.102672   0.000000
     32         13.706813   0.000000
     33         13.706814   0.000000
     34         13.762802   0.000000
     35         13.987053   0.000000
     36         13.987054   0.000000
     37         14.033318   0.000000
     38         16.641746   0.000000
     39         16.871104   0.000000
     40         16.891170   0.000000
     41         16.891172   0.000000
     42         17.011925   0.000000
     43         17.910173   0.000000
     44         17.910176   0.000000
     45         18.493493   0.000000
     46         19.209273   0.000000
     47         19.209273   0.000000
     48         20.231788   0.000000
 
  0.1250000E+00  0.3647302E-17  0.1250000E+00  0.1171875E-01
      1         -9.505776   1.000000
      2         -8.909861   1.000000
      3         -8.609133   1.000000
      4         -4.357305   1.000000
      5         -3.652595   1.000000
      6         -1.808952   1.000000
      7          1.359112   1.000000
      8          1.755714   1.000000
      9          2.439423   1.000000
     10          2.495221   1.000000
     11          2.858084   1.000000
     12          2.930215   1.000000
     13          3.057730   1.000000
     14          4.293168   1.000000
     15          4.841461   0.923462
     16          5.668506   0.000000
     17          6.086559   0.000000
     18          6.119472   0.000000
     19          6.750538   0.000000
     20          7.339930   0.000000
     21          7.391740   0.000000
     22          7.467746   0.000000
     23          7.535060   0.000000
     24          8.156602   0.000000
     25         10.810503   0.000000
     26         11.105054   0.000000
     27         11.476151   0.000000
     28         11.725228   0.000000
     29         12.180025   0.000000
     30         13.244732   0.000000
     31         13.245001   0.000000
     32         14.327764   0.000000
     33         14.628712   0.000000
     34         14.816732   0.000000
     35         15.097872   0.000000
     36         15.276553   0.000000
     37         15.352124   0.000000
     38         15.763135   0.000000
     39         15.831876   0.000000
     40         15.901086   0.000000
     41         16.287502   0.000000
     42         17.520954   0.000000
     43         18.499848   0.000000
     44         19.005677   0.000000
     45         19.049352   0.000000
     46         19.503168   0.000000
     47         19.726570   0.000000
     48         20.906570   0.000000
 
  0.4697277E-34  0.1250000E+00  0.1250000E+00  0.1171875E-01
      1         -9.506196   1.000000
      2         -8.907041   1.000000
      3         -8.611978   1.000000
      4         -4.329299   1.000000
      5         -3.701828   1.000000
      6         -1.767822   1.000000
      7          1.408639   1.000000
      8          1.657725   1.000000
      9          2.274389   1.000000
     10          2.514166   1.000000
     11          2.677326   1.000000
     12          3.173112   1.000000
     13          3.268480   1.000000
     14          4.209331   1.000000
     15          5.007201   0.000559
     16          5.486437   0.000000
     17          6.147938   0.000000
     18          6.221345   0.000000
     19          6.706830   0.000000
     20          6.990149   0.000000
     21          7.002385   0.000000
     22          7.641306   0.000000
     23          7.975216   0.000000
     24          8.148645   0.000000
     25         10.804201   0.000000
     26         11.456305   0.000000
     27         11.591487   0.000000
     28         11.790596   0.000000
     29         12.026580   0.000000
     30         12.488889   0.000000
     31         13.996098   0.000000
     32         14.127102   0.000000
     33         14.188149   0.000000
     34         14.220849   0.000000
     35         14.891789   0.000000
     36         15.170313   0.000000
     37         15.364522   0.000000
     38         16.224787   0.000000
     39         16.295255   0.000000
     40         16.743067   0.000000
     41         17.084604   0.000000
     42         17.765314   0.000000
     43         17.890129   0.000000
     44         17.935736   0.000000
     45         18.538337   0.000000
     46         19.385839   0.000000
     47         19.395687   0.000000
     48         21.478363   0.000000
 
  0.2500000E+00  0.4977565E-17  0.1250000E+00  0.1171875E-01
      1         -8.961001   1.000000
      2         -8.408579   1.000000
      3         -8.102898   1.000000
      4         -4.510761   1.000000
      5         -3.729017   1.000000
      6         -3.085234   1.000000
      7         -0.118694   1.000000
      8          0.245456   1.000000
      9          1.706591   1.000000
     10          2.399632   1.000000
     11          2.431692   1.000000
     12          2.636878   1.000000
     13          2.681222   1.000000
     14          2.915797   1.000000
     15          3.846566   1.000000
     16          6.036420   0.000000
     17          6.496320   0.000000
     18          6.683590   0.000000
     19          6.789704   0.000000
     20          7.223406   0.000000
     21          7.343681   0.000000
     22          8.453624   0.000000
     23          8.787973   0.000000
     24          9.647599   0.000000
     25         10.758212   0.000000
     26         10.883091   0.000000
     27         11.591381   0.000000
     28         12.254113   0.000000
     29         12.702770   0.000000
     30         13.254567   0.000000
     31         13.461670   0.000000
     32         14.781351   0.000000
     33         14.816660   0.000000
     34         15.491868   0.000000
     35         15.934243   0.000000
     36         16.397199   0.000000
     37         16.451470   0.000000
     38         16.617555   0.000000
     39         16.663791   0.000000
     40         17.621107   0.000000
     41         17.727950   0.000000
     42         18.659263   0.000000
     43         19.221288   0.000000
     44         19.961056   0.000000
     45         20.619479   0.000000
     46         21.018051   0.000000
     47         21.257628   0.000000
     48         21.536653   0.000000
 
  0.4697277E-34  0.2500000E+00  0.1250000E+00  0.1171875E-01
      1         -8.964926   1.000000
      2         -8.382116   1.000000
      3         -8.129646   1.000000
      4         -4.250152   1.000000
      5         -4.139051   1.000000
      6         -2.924744   1.000000
      7         -0.054134   1.000000
      8          0.279294   1.000000
      9          1.748852   1.000000
     10          1.987743   1.000000
     11          2.162577   1.000000
     12          2.646576   1.000000
     13          2.738693   1.000000
     14          3.217542   1.000000
     15          4.436657   1.000000
     16          5.721206   0.000000
     17          5.897591   0.000000
     18          6.466862   0.000000
     19          6.968423   0.000000
     20          7.367454   0.000000
     21          8.060950   0.000000
     22          8.358677   0.000000
     23          9.098522   0.000000
     24          9.159819   0.000000
     25         10.419519   0.000000
     26         10.962879   0.000000
     27         11.535983   0.000000
     28         12.019500   0.000000
     29         12.910331   0.000000
     30         12.955579   0.000000
     31         14.470432   0.000000
     32         14.829419   0.000000
     33         15.652523   0.000000
     34         15.681997   0.000000
     35         15.763834   0.000000
     36         15.913916   0.000000
     37         16.067265   0.000000
     38         16.074838   0.000000
     39         16.743398   0.000000
     40         17.056489   0.000000
     41         18.052861   0.000000
     42         18.293177   0.000000
     43         19.639044   0.000000
     44         20.165241   0.000000
     45         20.308238   0.000000
     46         20.577007   0.000000
     47         21.012594   0.000000
     48         21.134334   0.000000
 
  0.3750000E+00  0.2018562E-16  0.1250000E+00  0.1171875E-01
      1         -8.096828   1.000000
      2         -7.683047   1.000000
      3         -7.358059   1.000000
      4         -5.235706   1.000000
      5         -4.587706   1.000000
      6         -4.200729   1.000000
      7         -0.514106   1.000000
      8         -0.307855   1.000000
      9          1.211980   1.000000
     10          1.402702   1.000000
     11          1.882178   1.000000
     12          2.077888   1.000000
     13          2.376686   1.000000
     14          3.036974   1.000000
     15          3.052669   1.000000
     16          5.434572   0.000000
     17          6.188680   0.000000
     18          6.614590   0.000000
     19          6.715221   0.000000
     20          7.030903   0.000000
     21          7.264726   0.000000
     22          9.297061   0.000000
     23          9.712121   0.000000
     24         10.375435   0.000000
     25         10.894319   0.000000
     26         11.271895   0.000000
     27         11.644804   0.000000
     28         13.290728   0.000000
     29         13.731758   0.000000
     30         14.713421   0.000000
     31         14.848113   0.000000
     32         14.960928   0.000000
     33         15.474421   0.000000
     34         16.935000   0.000000
     35         17.077008   0.000000
     36         17.531818   0.000000
     37         17.594907   0.000000
     38         17.627956   0.000000
     39         18.039202   0.000000
     40         18.806725   0.000000
     41         19.155533   0.000000
     42         19.830957   0.000000
     43         20.033154   0.000000
     44         20.364533   0.000000
     45         20.703992   0.000000
     46         20.777364   0.000000
     47         21.070164   0.000000
     48         21.352623   0.000000
 
  0.4697277E-34  0.3750000E+00  0.1250000E+00  0.1171875E-01
      1         -8.113459   1.000000
      2         -7.572988   1.000000
      3         -7.465216   1.000000
      4         -5.201452   1.000000
      5         -4.486487   1.000000
      6         -4.332777   1.000000
      7         -0.889079   1.000000
      8          0.419848   1.000000