As                                      
           1
     3.820550    0.000000    0.000000
    -1.910275    3.308693    0.000000
     0.000000    0.000000   10.789630
   As
     6
Direct configuration=     1
   0.00000000  0.00000000  0.22657000
   0.00000000  0.00000000  0.77343000
   0.66666667  0.33333333  0.55990000
   0.66666667  0.33333333  0.10676000
   0.33333333  0.66666667  0.89324000
   0.33333333  0.66666667  0.44010000
