Zr                                      
   1.00000000000000     
     3.236030    0.000000    0.000000
     1.618015    2.802484    0.000000
     0.000000    0.000000    5.189530
   Zr
     2
Direct
  0.000000  0.000000  0.000000
  0.333333  0.333333  0.500000
 
   28   28   48
  281.92      277.80      263.55      235.92      195.07      146.84      100.24      62.767      37.270      22.278    
  14.376      10.540      8.8031      8.0838      7.8894      8.0836      8.8030      10.540      14.376      22.278    
  37.270      62.766      100.24      146.84      195.07      235.92      263.55      277.80      277.80      268.21    
  246.49      211.35      166.18      118.82      77.562      47.270      28.204      17.631      12.281      9.7678    
  8.6667      8.2578      8.2578      8.6668      9.7677      12.281      17.631      28.204      47.270      77.561    
  118.82      166.18      211.35      246.50      268.21      277.80      263.55      246.49      216.73      176.23    
  131.09      89.122      56.188      34.069      21.093      14.225      10.869      9.3360      8.6971      8.5242    
  8.6973      9.3360      10.869      14.225      21.094      34.069      56.188      89.121      131.08      176.23    
  216.73      246.50      263.55      268.93      235.92      211.35      176.23      135.35      95.427      62.343    
  38.812      24.223      16.125      11.995      10.032      9.1632      8.8397      8.8396      9.1631      10.032    
  11.995      16.126      24.223      38.812      62.343      95.428      135.35      176.23      211.35      235.92    
  248.19      248.19      195.07      166.18      131.09      95.427      64.536      41.466      26.419      17.659    
  12.988      10.672      9.6008      9.1535      9.0329      9.1533      9.6008      10.672      12.988      17.659    
  26.419      41.467      64.537      95.428      131.09      166.18      195.07      213.67      220.03      213.67    
  146.84      118.82      89.122      62.343      41.466      27.211      18.520      13.675      11.167      9.9568    
  9.4202      9.2228      9.2229      9.4203      9.9569      11.167      13.674      18.519      27.211      41.466    
  62.344      89.123      118.82      146.84      168.44      180.12      180.12      168.44      100.24      77.562    
  56.188      38.812      26.419      18.520      13.921      11.438      10.188      9.6094      9.3729      9.3110    
  9.3730      9.6096      10.189      11.438      13.921      18.519      26.418      38.811      56.188      77.563    
  100.24      120.43      134.34      139.29      134.34      120.42      62.767      47.270      34.069      24.223    
  17.659      13.675      11.438      10.268      9.7062      9.4657      9.3825      9.3824      9.4656      9.7063    
  10.269      11.439      13.675      17.659      24.222      34.067      47.270      62.767      78.311      90.992    
  98.128      98.127      90.991      78.310      37.270      28.204      21.093      16.125      12.988      11.167    
  10.188      9.7062      9.4966      9.4210      9.4037      9.4208      9.4963      9.7059      10.188      11.168    
  12.989      16.126      21.093      28.203      37.269      47.323      56.673      63.350      65.776      63.350    
  56.673      47.323      22.278      17.631      14.225      11.995      10.672      9.9568      9.6094      9.4657    
  9.4210      9.4132      9.4132      9.4209      9.4653      9.6087      9.9563      10.672      11.996      14.227    
  17.632      22.278      27.860      33.623      38.454      41.226      41.227      38.455      33.624      27.861    
  14.376      12.281      10.869      10.032      9.6008      9.4202      9.3729      9.3825      9.4037      9.4132    
  9.4040      9.3829      9.3729      9.4195      9.5998      10.031      10.869      12.282      14.377      17.108    
  20.183      23.084      25.183      25.952      25.184      23.086      20.184      17.107      10.540      9.7678    
  9.3360      9.1632      9.1535      9.2228      9.3110      9.3824      9.4208      9.4209      9.3829      9.3117    
  9.2234      9.1534      9.1622      9.3346      9.7670      10.540      11.678      13.101      14.602      15.875    
  16.611      16.611      15.875      14.601      13.100      11.678      8.8031      8.6667      8.6971      8.8397    
  9.0329      9.2229      9.3730      9.4656      9.4963      9.4653      9.3729      9.2234      9.0340      8.8406    
  8.6972      8.6657      8.8017      9.1363      9.6572      10.294      10.922      11.385      11.556      11.384    
  10.920      10.294      9.6572      9.1373      8.0838      8.2578      8.5242      8.8396      9.1533      9.4203    
  9.6096      9.7063      9.7059      9.6087      9.4195      9.1534      8.8406      8.5256      8.2587      8.0837    
  8.0278      8.0949      8.2622      8.4806      8.6836      8.8055      8.8051      8.6829      8.4803      8.2628    
  8.0962      8.0289      7.8894      8.2578      8.6973      9.1631      9.6008      9.9569      10.189      10.269    
  10.188      9.9563      9.5998      9.1622      8.6972      8.2587      7.8908      7.6193      7.4501      7.3711    
  7.3579      7.3800      7.4079      7.4199      7.4082      7.3807      7.3589      7.3719      7.4500      7.6183    
  8.0836      8.6668      9.3360      10.032      10.672      11.167      11.438      11.439      11.168      10.672    
  10.031      9.3346      8.6657      8.0837      7.6193      7.2771      7.0423      6.8908      6.7983      6.7459    
  6.7224      6.7228      6.7467      6.7990      6.8909      7.0415      7.2757      7.6182      8.8030      9.7677    
  10.869      11.995      12.988      13.674      13.921      13.675      12.989      11.996      10.869      9.7670    
  8.8017      8.0278      7.4501      7.0423      6.7653      6.5819      6.4652      6.3996      6.3785      6.3998    
  6.4652      6.5813      6.7643      7.0416      7.4502      8.0288      10.540      12.281      14.225      16.126    
  17.659      18.519      18.519      17.659      16.126      14.227      12.282      10.540      9.1363      8.0949    
  7.3711      6.8908      6.5819      6.3892      6.2767      6.2247      6.2246      6.2763      6.3885      6.5813    
  6.8907      7.3720      8.0964      9.1373      14.376      17.631      21.094      24.223      26.419      27.211    
  26.418      24.222      21.093      17.632      14.377      11.678      9.6572      8.2622      7.3579      6.7983    
  6.4652      6.2767      6.1817      6.1527      6.1814      6.2764      6.4653      6.7989      7.3588      8.2629    
  9.6571      11.678      22.278      28.204      34.069      38.812      41.467      41.466      38.811      34.067    
  28.203      22.278      17.108      13.101      10.294      8.4806      7.3800      6.7459      6.3996      6.2247    
  6.1527      6.1527      6.2247      6.4000      6.7466      7.3806      8.4806      10.293      13.100      17.107    
  37.270      47.270      56.188      62.343      64.537      62.344      56.188      47.270      37.269      27.860    
  20.183      14.602      10.922      8.6836      7.4079      6.7224      6.3785      6.2246      6.1814      6.2247    
  6.3787      6.7227      7.4078      8.6830      10.921      14.601      20.184      27.861      62.766      77.561    
  89.121      95.428      95.428      89.123      77.563      62.767      47.323      33.623      23.084      15.875    
  11.385      8.8055      7.4199      6.7228      6.3998      6.2763      6.2764      6.4000      6.7227      7.4195    
  8.8048      11.384      15.875      23.085      33.624      47.324      100.24      118.82      131.08      135.35    
  131.09      118.82      100.24      78.311      56.673      38.454      25.183      16.611      11.556      8.8051    
  7.4082      6.7467      6.4652      6.3885      6.4653      6.7466      7.4078      8.8048      11.556      16.612    
  25.184      38.455      56.673      78.311      146.84      166.18      176.23      176.23      166.18      146.84    
  120.43      90.992      63.350      41.226      25.952      16.611      11.384      8.6829      7.3807      6.7990    
  6.5813      6.5813      6.7989      7.3806      8.6830      11.384      16.612      25.952      41.226      63.349    
  90.991      120.43      195.07      211.35      216.73      211.35      195.07      168.44      134.34      98.128    
  65.776      41.227      25.184      15.875      10.920      8.4803      7.3589      6.8909      6.7643      6.8907    
  7.3588      8.4806      10.921      15.875      25.184      41.226      65.776      98.127      134.34      168.44    
  235.92      246.50      246.50      235.92      213.67      180.12      139.29      98.127      63.350      38.455    
  23.086      14.601      10.294      8.2628      7.3719      7.0415      7.0416      7.3720      8.2629      10.293    
  14.601      23.085      38.455      63.349      98.127      139.29      180.12      213.67      263.55      268.21    
  263.55      248.19      220.03      180.12      134.34      90.991      56.673      33.624      20.184      13.100    
  9.6572      8.0962      7.4500      7.2757      7.4502      8.0964      9.6571      13.100      20.184      33.624    
  56.673      90.991      134.34      180.12      220.03      248.19      277.80      277.80      268.93      248.19    
  213.67      168.44      120.42      78.310      47.323      27.861      17.107      11.678      9.1373      8.0289    
  7.6183      7.6182      8.0288      9.1373      11.678      17.107      27.861      47.324      78.311      120.43    
  168.44      213.67      248.19      268.93      278.18      273.71      258.67      230.44      189.67      142.27    
  96.930      60.700      36.143      21.724      14.121      10.428      8.7544      8.0614      7.8739      8.0608    
  8.7543      10.428      14.121      21.723      36.143      60.701      96.930      142.27      189.67      230.44    
  258.67      273.71      273.71      263.57      241.21      205.87      161.25      114.99      74.998      45.777    
  27.431      17.261      12.111      9.6913      8.6307      8.2367      8.2366      8.6306      9.6915      12.112    
  17.260      27.431      45.777      74.997      114.99      161.25      205.87      241.21      263.57      273.71    
  258.67      241.21      211.26      171.15      126.95      86.192      54.379      33.079      20.599      13.991    
  10.760      9.2831      8.6680      8.5014      8.6678      9.2832      10.760      13.991      20.599      33.079    
  54.379      86.191      126.94      171.15      211.26      241.21      258.68      264.26      230.44      205.87    
  171.15      131.11      92.308      60.321      37.648      23.615      15.826      11.851      9.9606      9.1244    
  8.8131      8.8128      9.1241      9.9607      11.852      15.826      23.615      37.649      60.322      92.308    
  131.11      171.15      205.87      230.44      242.83      242.83      189.67      161.25      126.95      92.308    
  62.440      40.207      25.731      17.307      12.813      10.584      9.5523      9.1221      9.0060      9.1216    
  9.5522      10.584      12.813      17.306      25.732      40.208      62.442      92.308      126.95      161.25    
  189.67      208.08      214.41      208.08      142.27      114.99      86.192      60.321      40.207      26.494    
  18.138      13.478      11.065      9.9000      9.3840      9.1945      9.1944      9.3839      9.9003      11.065    
  13.478      18.137      26.494      40.208      60.322      86.193      114.99      142.26      163.39      174.84    
  174.85      163.39      96.930      74.998      54.379      37.648      25.731      18.138      13.717      11.329    
  10.126      9.5695      9.3427      9.2834      9.3426      9.5697      10.127      11.329      13.716      18.137    
  25.731      37.648      54.379      74.998      96.931      116.50      130.02      134.84      130.02      116.50    
  60.700      45.777      33.079      23.615      17.307      13.478      11.329      10.204      9.6642      9.4340    
  9.3546      9.3544      9.4338      9.6646      10.205      11.329      13.479      17.307      23.614      33.078    
  45.777      60.701      75.692      87.939      94.838      94.837      87.938      75.691      36.143      27.431    
  20.599      15.826      12.813      11.065      10.126      9.6642      9.4643      9.3926      9.3763      9.3923    
  9.4640      9.6642      10.126      11.066      12.814      15.827      20.598      27.430      36.142      45.809    
  54.805      61.233      63.570      61.233      54.805      45.809      21.724      17.261      13.991      11.851    
  10.584      9.9000      9.5695      9.4340      9.3926      9.3858      9.3858      9.3924      9.4336      9.5689    
  9.8995      10.584      11.852      13.992      17.261      21.724      27.085      32.620      37.261      39.924    
  39.924      37.262      32.621      27.086      14.121      12.111      10.760      9.9606      9.5523      9.3840    
  9.3427      9.3546      9.3763      9.3858      9.3765      9.3549      9.3426      9.3833      9.5512      9.9599    
  10.760      12.112      14.122      16.742      19.696      22.481      24.496      25.234      24.497      22.483    
  19.696      16.742      10.428      9.6913      9.2831      9.1244      9.1221      9.1945      9.2834      9.3544    
  9.3923      9.3924      9.3549      9.2841      9.1951      9.1218      9.1233      9.2818      9.6906      10.428    
  11.517      12.880      14.319      15.541      16.247      16.247      15.541      14.319      12.879      11.516    
  8.7544      8.6307      8.6680      8.8131      9.0060      9.1944      9.3426      9.4338      9.4640      9.4336    
  9.3426      9.1951      9.0071      8.8138      8.6678      8.6296      8.7530      9.0683      9.5637      10.172    
  10.772      11.215      11.379      11.215      10.771      10.171      9.5636      9.0692      8.0614      8.2367    
  8.5014      8.8128      9.1216      9.3839      9.5697      9.6646      9.6642      9.5689      9.3833      9.1218    
  8.8138      8.5028      8.2376      8.0611      7.9999      8.0580      8.2134      8.4192      8.6114      8.7271    
  8.7267      8.6106      8.4188      8.2139      8.0593      8.0012      7.8739      8.2366      8.6678      9.1241    
  9.5522      9.9003      10.127      10.205      10.126      9.8995      9.5512      9.1233      8.6678      8.2376    
  7.8753      7.6063      7.4364      7.3541      7.3360      7.3530      7.3771      7.3877      7.3773      7.3536    
  7.3369      7.3549      7.4365      7.6054      8.0608      8.6306      9.2832      9.9607      10.584      11.065    
  11.329      11.329      11.066      10.584      9.9599      9.2818      8.6296      8.0611      7.6063      7.2697    
  7.0370      6.8852      6.7910      6.7368      6.7120      6.7124      6.7376      6.7918      6.8854      7.0363    
  7.2683      7.6051      8.7543      9.6915      10.760      11.852      12.813      13.478      13.716      13.479    
  12.814      11.852      10.760      9.6906      8.7530      7.9999      7.4364      7.0370      6.7641      6.5820    
  6.4650      6.3987      6.3772      6.3990      6.4651      6.5815      6.7631      7.0362      7.4364      8.0008    
  10.428      12.112      13.991      15.826      17.306      18.137      18.137      17.307      15.827      13.992    
  12.112      10.428      9.0683      8.0580      7.3541      6.8852      6.5820      6.3914      6.2792      6.2269    
  6.2268      6.2788      6.3907      6.5813      6.8850      7.3548      8.0594      9.0694      14.121      17.260    
  20.599      23.615      25.732      26.494      25.731      23.614      20.598      17.261      14.122      11.517    
  9.5637      8.2134      7.3360      6.7910      6.4650      6.2792      6.1848      6.1559      6.1845      6.2788    
  6.4649      6.7915      7.3369      8.2142      9.5638      11.516      21.723      27.431      33.079      37.649    
  40.208      40.208      37.648      33.078      27.430      21.724      16.742      12.880      10.172      8.4192    
  7.3530      6.7368      6.3987      6.2269      6.1559      6.1557      6.2268      6.3990      6.7375      7.3537    
  8.4192      10.171      12.879      16.741      36.143      45.777      54.379      60.322      62.442      60.322    
  54.379      45.777      36.142      27.085      19.696      14.319      10.772      8.6114      7.3771      6.7120    
  6.3772      6.2268      6.1845      6.2268      6.3774      6.7125      7.3772      8.6108      10.771      14.319    
  19.696      27.086      60.701      74.997      86.191      92.308      92.308      86.193      74.998      60.701    
  45.809      32.620      22.481      15.541      11.215      8.7271      7.3877      6.7124      6.3990      6.2788    
  6.2788      6.3990      6.7125      7.3875      8.7264      11.215      15.541      22.482      32.621      45.810    
  96.930      114.99      126.94      131.11      126.95      114.99      96.931      75.692      54.805      37.261    
  24.496      16.247      11.379      8.7267      7.3773      6.7376      6.4651      6.3907      6.4649      6.7375    
  7.3772      8.7264      11.379      16.248      24.497      37.262      54.805      75.692      142.27      161.25    
  171.15      171.15      161.25      142.26      116.50      87.939      61.233      39.924      25.234      16.247    
  11.215      8.6106      7.3536      6.7918      6.5815      6.5813      6.7915      7.3537      8.6108      11.215    
  16.248      25.235      39.924      61.232      87.938      116.50      189.67      205.87      211.26      205.87    
  189.67      163.39      130.02      94.838      63.570      39.924      24.497      15.541      10.771      8.4188    
  7.3369      6.8854      6.7631      6.8850      7.3369      8.4192      10.771      15.541      24.497      39.924    
  63.569      94.837      130.02      163.39      230.44      241.21      241.21      230.44      208.08      174.84    
  134.84      94.837      61.233      37.262      22.483      14.319      10.171      8.2139      7.3549      7.0363    
  7.0362      7.3548      8.2142      10.171      14.319      22.482      37.262      61.232      94.837      134.84    
  174.85      208.08      258.67      263.57      258.68      242.83      214.41      174.85      130.02      87.938    
  54.805      32.621      19.696      12.879      9.5636      8.0593      7.4365      7.2683      7.4364      8.0594    
  9.5638      12.879      19.696      32.621      54.805      87.938      130.02      174.85      214.41      242.83    
  273.71      273.71      264.26      242.83      208.08      163.39      116.50      75.691      45.809      27.086    
  16.742      11.516      9.0692      8.0012      7.6054      7.6051      8.0008      9.0694      11.516      16.741    
  27.086      45.810      75.692      116.50      163.39      208.08      242.83      264.26      265.65      260.35    
  243.55      214.15      174.08      129.32      87.665      54.959      33.019      20.184      13.409      10.112    
  8.6152      7.9951      7.8272      7.9943      8.6151      10.113      13.409      20.183      33.019      54.959    
  87.666      129.32      174.08      214.15      243.55      260.35      260.35      248.97      225.28      189.91    
  147.16      104.21      67.850      41.633      25.284      16.228      11.637      9.4746      8.5261      8.1740    
  8.1736      8.5257      9.4750      11.637      16.227      25.284      41.633      67.850      104.21      147.16    
  189.91      225.28      248.97      260.35      243.55      225.28      195.25      156.58      115.27      78.005    
  49.350      30.331      19.221      13.335      10.451      9.1314      8.5821      8.4334      8.5817      9.1315    
  10.452      13.335      19.220      30.331      49.350      78.004      115.26      156.58      195.25      225.28    
  243.55      249.57      214.15      189.91      156.58      119.13      83.578      54.696      34.419      21.923    
  14.989      11.446      9.7576      9.0115      8.7343      8.7337      9.0109      9.7580      11.447      14.989    
  21.923      34.420      54.697      83.577      119.13      156.58      189.91      214.15      226.68      226.68    
  174.08      147.16      115.27      83.578      56.607      36.710      23.818      16.323      12.321      10.332    
  9.4122      9.0297      8.9267      9.0289      9.4121      10.333      12.321      16.322      23.818      36.711    
  56.608      83.578      115.27      147.16      174.08      191.81      197.96      191.81      129.32      104.21    
  78.005      54.696      36.710      24.501      17.071      12.926      10.776      9.7370      9.2785      9.1112    
  9.1108      9.2782      9.7374      10.776      12.925      17.070      24.502      36.711      54.697      78.005    
  104.21      129.32      148.99      159.74      159.74      148.99      87.665      67.850      49.350      34.419    
  23.818      17.071      13.143      11.018      9.9477      9.4538      9.2542      9.2022      9.2538      9.4541    
  9.9485      11.018      13.142      17.070      23.818      34.418      49.349      67.851      87.666      105.47    
  117.85      122.28      117.85      105.47      54.959      41.633      30.331      21.923      16.323      12.926    
  11.018      10.021      9.5430      9.3413      9.2727      9.2724      9.3410      9.5436      10.021      11.019    
  12.926      16.323      21.922      30.330      41.633      54.960      68.400      79.422      85.649      85.649    
  79.421      68.398      33.019      25.284      19.221      14.989      12.321      10.776      9.9477      9.5430    
  9.3701      9.3096      9.2960      9.3091      9.3699      9.5432      9.9480      10.776      12.322      14.990    
  19.220      25.283      33.018      41.612      49.624      55.358      57.444      55.357      49.623      41.612    
  20.184      16.228      13.335      11.446      10.332      9.7370      9.4538      9.3413      9.3096      9.3057    
  9.3055      9.3092      9.3410      9.4533      9.7365      10.333      11.447      13.336      16.228      20.183    
  24.937      29.844      33.958      36.320      36.320      33.959      29.844      24.938      13.409      11.637    
  10.451      9.7576      9.4122      9.2785      9.2542      9.2727      9.2960      9.3055      9.2961      9.2728    
  9.2540      9.2778      9.4111      9.7571      10.451      11.638      13.410      15.726      18.342      20.810    
  22.594      23.248      22.596      20.811      18.342      15.726      10.112      9.4746      9.1314      9.0115    
  9.0297      9.1112      9.2022      9.2724      9.3091      9.3092      9.2728      9.2029      9.1116      9.0293    
  9.0102      9.1301      9.4741      10.113      11.066      12.266      13.535      14.615      15.239      15.240    
  14.615      13.535      12.265      11.065      8.6152      8.5261      8.5821      8.7343      8.9267      9.1108    
  9.2538      9.3410      9.3699      9.3410      9.2540      9.1116      8.9277      8.7348      8.5818      8.5250    
  8.6139      8.8764      9.3021      9.8313      10.356      10.746      10.890      10.745      10.355      9.8303    
  9.3018      8.8771      7.9951      8.1740      8.4334      8.7337      9.0289      9.2782      9.4541      9.5436    
  9.5432      9.4533      9.2778      9.0293      8.7348      8.4347      8.1747      7.9947      7.9195      7.9532    
  8.0765      8.2480      8.4112      8.5101      8.5097      8.4103      8.2474      8.0769      7.9544      7.9208    
  7.8272      8.1736      8.5817      9.0109      9.4121      9.7374      9.9485      10.021      9.9480      9.7365    
  9.4111      9.0102      8.5818      8.1747      7.8286      7.5672      7.3960      7.3052      7.2743      7.2781    
  7.2924      7.2993      7.2925      7.2786      7.2752      7.3061      7.3963      7.5664      7.9943      8.5257    
  9.1315      9.7580      10.333      10.776      11.018      11.019      10.776      10.333      9.7571      9.1301    
  8.5250      7.9947      7.5672      7.2467      7.0208      6.8689      6.7707      6.7118      6.6841      6.6844    
  6.7126      6.7715      6.8692      7.0203      7.2455      7.5659      8.6151      9.4750      10.452      11.447    
  12.321      12.925      13.142      12.926      12.322      11.447      10.451      9.4741      8.6139      7.9195    
  7.3960      7.0208      6.7600      6.5820      6.4646      6.3967      6.3745      6.3971      6.4648      6.5816    
  6.7591      7.0200      7.3959      7.9202      10.113      11.637      13.335      14.989      16.322      17.070    
  17.070      16.323      14.990      13.336      11.638      10.113      8.8764      7.9532      7.3052      6.8689    
  6.5820      6.3976      6.2865      6.2338      6.2338      6.2863      6.3970      6.5812      6.8685      7.3058    
  7.9545      8.8775      13.409      16.227      19.220      21.923      23.818      24.502      23.818      21.922    
  19.220      16.228      13.410      11.066      9.3021      8.0765      7.2743      6.7707      6.4646      6.2865    
  6.1941      6.1653      6.1937      6.2861      6.4645      6.7711      7.2751      8.0773      9.3023      11.065    
  20.183      25.284      30.331      34.420      36.711      36.711      34.418      30.330      25.283      20.183    
  15.726      12.266      9.8313      8.2480      7.2781      6.7118      6.3967      6.2338      6.1653      6.1652    
  6.2336      6.3970      6.7125      7.2788      8.2481      9.8308      12.265      15.725      33.019      41.633    
  49.350      54.697      56.608      54.697      49.349      41.633      33.018      24.937      18.342      13.535    
  10.356      8.4112      7.2924      6.6841      6.3745      6.2338      6.1937      6.2336      6.3747      6.6847    
  7.2925      8.4106      10.355      13.535      18.342      24.937      54.959      67.850      78.004      83.577    
  83.578      78.005      67.851      54.960      41.612      29.844      20.810      14.615      10.746      8.5101    
  7.2993      6.6844      6.3971      6.2863      6.2861      6.3970      6.6847      7.2992      8.5094      10.745    
  14.615      20.811      29.844      41.612      87.666      104.21      115.26      119.13      115.27      104.21    
  87.666      68.400      49.624      33.958      22.594      15.239      10.890      8.5097      7.2925      6.7126    
  6.4648      6.3970      6.4645      6.7125      7.2925      8.5094      10.889      15.240      22.596      33.959    
  49.624      68.400      129.32      147.16      156.58      156.58      147.16      129.32      105.47      79.422    
  55.358      36.320      23.248      15.240      10.745      8.4103      7.2786      6.7715      6.5816      6.5812    
  6.7711      7.2788      8.4106      10.745      15.240      23.249      36.320      55.357      79.421      105.47    
  174.08      189.91      195.25      189.91      174.08      148.99      117.85      85.649      57.444      36.320    
  22.596      14.615      10.355      8.2474      7.2752      6.8692      6.7591      6.8685      7.2751      8.2481    
  10.355      14.615      22.596      36.320      57.443      85.648      117.85      148.99      214.15      225.28    
  225.28      214.15      191.81      159.74      122.28      85.649      55.357      33.959      20.811      13.535    
  9.8303      8.0769      7.3061      7.0203      7.0200      7.3058      8.0773      9.8308      13.535      20.811    
  33.959      55.357      85.648      122.28      159.74      191.81      243.55      248.97      243.55      226.68    
  197.96      159.74      117.85      79.421      49.623      29.844      18.342      12.265      9.3018      7.9544    
  7.3963      7.2455      7.3959      7.9545      9.3023      12.265      18.342      29.844      49.624      79.421    
  117.85      159.74      197.96      226.68      260.35      260.35      249.57      226.68      191.81      148.99    
  105.47      68.398      41.612      24.938      15.726      11.065      8.8771      7.9208      7.5664      7.5659    
  7.9202      8.8775      11.065      15.725      24.937      41.612      68.400      105.47      148.99      191.81    
  226.68      249.57      241.87      235.83      217.63      188.02      150.24      110.18      74.249      46.746    
  28.566      17.980      12.383      9.6498      8.4051      7.8897      7.7502      7.8886      8.4050      9.6509    
  12.383      17.979      28.566      46.747      74.250      110.18      150.24      188.02      217.63      235.83    
  235.83      223.45      199.12      165.05      126.06      88.465      57.572      35.717      22.216      14.743    
  10.946      9.1517      8.3642      8.0726      8.0720      8.3636      9.1524      10.947      14.742      22.215    
  35.718      57.573      88.464      126.05      165.05      199.13      223.45      235.83      217.63      199.12    
  170.14      134.58      98.087      66.175      42.152      26.405      17.242      12.383      9.9950      8.9006    
  8.4465      8.3238      8.4457      8.9007      9.9959      12.383      17.242      26.406      42.153      66.174    
  98.084      134.58      170.15      199.13      217.63      223.92      188.02      165.05      134.58      101.48    
  70.928      46.631      29.803      19.496      13.779      10.851      9.4524      8.8361      8.6086      8.6079    