Zr                                      
   1.00000000000000     
     3.236030    0.000000    0.000000
     1.618015    2.802484    0.000000
     0.000000    0.000000    5.189530
   Zr
     2
Direct
  0.000000  0.000000  0.000000
  0.333333  0.333333  0.500000
 
   28   28   48
 0.28191609101E+03 0.27779881944E+03 0.26354923387E+03 0.23591558039E+03 0.19506975930E+03
 0.14683648018E+03 0.10024139182E+03 0.62766515614E+02 0.37270051064E+02 0.22278076839E+02
 0.14376141116E+02 0.10540131042E+02 0.88031229718E+01 0.80838272080E+01 0.78893743211E+01
 0.80835911730E+01 0.88030093026E+01 0.10540309066E+02 0.14376329635E+02 0.22277967240E+02
 0.37269776164E+02 0.62766461033E+02 0.10024163831E+03 0.14683670182E+03 0.19506969749E+03
 0.23591537064E+03 0.26354914261E+03 0.27779885713E+03 0.27779881944E+03 0.26820783039E+03
 0.24649496785E+03 0.21134576786E+03 0.16618384883E+03 0.11881972848E+03 0.77562336653E+02
 0.47270234594E+02 0.28204287525E+02 0.17631247872E+02 0.12280708642E+02 0.97677729672E+01
 0.86666698785E+01 0.82577571409E+01 0.82578405728E+01 0.86667774248E+01 0.97677339111E+01
 0.12280651720E+02 0.17631393017E+02 0.28204467014E+02 0.47269945142E+02 0.77561409661E+02
 0.11881874429E+03 0.16618366365E+03 0.21134667424E+03 0.24649645470E+03 0.26820908893E+03
 0.27779929546E+03 0.26354923387E+03 0.24649496785E+03 0.21672713246E+03 0.17622968092E+03
 0.13108552907E+03 0.89122359244E+02 0.56188496713E+02 0.34068586925E+02 0.21093299698E+02
 0.14225371870E+02 0.10869140514E+02 0.93359673892E+01 0.86970952338E+01 0.85242173872E+01
 0.86973014767E+01 0.93360243389E+01 0.10868964563E+02 0.14225367080E+02 0.21093724046E+02
 0.34068986482E+02 0.56188149267E+02 0.89121246521E+02 0.13108454397E+03 0.17622975341E+03
 0.21672832874E+03 0.24649652509E+03 0.26355026127E+03 0.26893139450E+03 0.23591558039E+03
 0.21134576786E+03 0.17622968092E+03 0.13534531672E+03 0.95427482251E+02 0.62342751029E+02
 0.38811511879E+02 0.24222687704E+02 0.16125481249E+02 0.11995183823E+02 0.10031747712E+02
 0.91632130226E+01 0.88396519063E+01 0.88395961840E+01 0.91631061233E+01 0.10031687519E+02
 0.11995197574E+02 0.16125569089E+02 0.24222914003E+02 0.38811925172E+02 0.62343203008E+02
 0.95427659872E+02 0.13534504918E+03 0.17622915364E+03 0.21134533607E+03 0.23591540460E+03
 0.24819495706E+03 0.24819498309E+03 0.19506975930E+03 0.16618384883E+03 0.13108552907E+03
 0.95427482251E+02 0.64536120302E+02 0.41466134523E+02 0.26419348945E+02 0.17659382812E+02
 0.12987868936E+02 0.10672137007E+02 0.96008344212E+01 0.91534797557E+01 0.90328668596E+01
 0.91533497493E+01 0.96007630513E+01 0.10672126635E+02 0.12987678972E+02 0.17659005111E+02
 0.26419289816E+02 0.41466904864E+02 0.64537471326E+02 0.95428420510E+02 0.13108520985E+03
 0.16618234955E+03 0.19506794878E+03 0.21366957406E+03 0.22003380471E+03 0.21367074392E+03
 0.14683648018E+03 0.11881972848E+03 0.89122359244E+02 0.62342751029E+02 0.41466134523E+02
 0.27210865631E+02 0.18519955111E+02 0.13674888533E+02 0.11167381680E+02 0.99568197727E+01
 0.94201619914E+01 0.92228310188E+01 0.92228782840E+01 0.94202808173E+01 0.99569099520E+01
 0.11167265790E+02 0.13674461997E+02 0.18519383448E+02 0.27210562060E+02 0.41466427535E+02
 0.62343518267E+02 0.89123024880E+02 0.11881970600E+03 0.14683569387E+03 0.16844290307E+03
 0.18012436477E+03 0.18012481345E+03 0.16844390022E+03 0.10024139182E+03 0.77562336653E+02
 0.56188496713E+02 0.38811511879E+02 0.26419348945E+02 0.18519955111E+02 0.13920864730E+02
 0.11438103159E+02 0.10188384473E+02 0.96094299145E+01 0.93729127316E+01 0.93110046922E+01
 0.93729896452E+01 0.96096029015E+01 0.10188649600E+02 0.11438336190E+02 0.13920789552E+02
 0.18519343668E+02 0.26418344791E+02 0.38810681015E+02 0.56188411932E+02 0.77563068946E+02
 0.10024246909E+03 0.12042584559E+03 0.13433589305E+03 0.13929101609E+03 0.13433547176E+03
 0.12042497916E+03 0.62766515614E+02 0.47270234594E+02 0.34068586925E+02 0.24222687704E+02
 0.17659382812E+02 0.13674888533E+02 0.11438103159E+02 0.10268481195E+02 0.97062415266E+01
 0.94657056986E+01 0.93825212651E+01 0.93824487056E+01 0.94655929277E+01 0.97063234070E+01
 0.10268912608E+02 0.11438745343E+02 0.13675302428E+02 0.17659131756E+02 0.24221750517E+02
 0.34067495301E+02 0.47269744841E+02 0.62767050735E+02 0.78311331779E+02 0.90991965539E+02
 0.98127783281E+02 0.98127228707E+02 0.90990632948E+02 0.78310015412E+02 0.37270051064E+02
 0.28204287525E+02 0.21093299698E+02 0.16125481249E+02 0.12987868936E+02 0.11167381680E+02
 0.10188384473E+02 0.97062415266E+01 0.94966220899E+01 0.94209694805E+01 0.94036906202E+01
 0.94208186658E+01 0.94963141970E+01 0.97059363835E+01 0.10188437915E+02 0.11168046140E+02
 0.12988924878E+02 0.16126263360E+02 0.21093223288E+02 0.28203409488E+02 0.37269072831E+02
 0.47323119445E+02 0.56673249097E+02 0.63350211163E+02 0.65776385215E+02 0.63349724363E+02
 0.56672892374E+02 0.47323474006E+02 0.22278076839E+02 0.17631247872E+02 0.14225371870E+02
 0.11995183823E+02 0.10672137007E+02 0.99568197727E+01 0.96094299145E+01 0.94657056986E+01
 0.94209694805E+01 0.94131819412E+01 0.94132371257E+01 0.94209450388E+01 0.94652994410E+01
 0.96087049695E+01 0.99563010197E+01 0.10672365760E+02 0.11996182339E+02 0.14226566606E+02
 0.17631913108E+02 0.22277861024E+02 0.27859944601E+02 0.33622933858E+02 0.38454333779E+02
 0.41226356342E+02 0.41226660477E+02 0.38455170022E+02 0.33624038225E+02 0.27860852499E+02
 0.14376141116E+02 0.12280708642E+02 0.10869140514E+02 0.10031747712E+02 0.96008344212E+01
 0.94201619914E+01 0.93729127316E+01 0.93825212651E+01 0.94036906202E+01 0.94132371257E+01
 0.94040210878E+01 0.93828887085E+01 0.93728980701E+01 0.94195213251E+01 0.95997690775E+01
 0.10030886228E+02 0.10869128925E+02 0.12281666809E+02 0.14377461609E+02 0.17107557061E+02
 0.20183474141E+02 0.23084425744E+02 0.25182922324E+02 0.25951810277E+02 0.25183893788E+02
 0.23085565014E+02 0.20183833739E+02 0.17106810316E+02 0.10540131042E+02 0.97677729672E+01
 0.93359673892E+01 0.91632130226E+01 0.91534797557E+01 0.92228310188E+01 0.93110046922E+01
 0.93824487056E+01 0.94208186658E+01 0.94209450388E+01 0.93828887085E+01 0.93117306524E+01
 0.92234400449E+01 0.91533753807E+01 0.91622011833E+01 0.93345978386E+01 0.97669571353E+01
 0.10540369280E+02 0.11678492253E+02 0.13101343678E+02 0.14601772487E+02 0.15875231851E+02
 0.16610934744E+02 0.16611009038E+02 0.15875236860E+02 0.14601310455E+02 0.13100355165E+02
 0.11677501200E+02 0.88031229718E+01 0.86666698785E+01 0.86970952338E+01 0.88396519063E+01
 0.90328668596E+01 0.92228782840E+01 0.93729896452E+01 0.94655929277E+01 0.94963141970E+01
 0.94652994410E+01 0.93728980701E+01 0.92234400449E+01 0.90339572300E+01 0.88405801024E+01
 0.86971551031E+01 0.86657264692E+01 0.88017337474E+01 0.91362737564E+01 0.96571729316E+01
 0.10294400942E+02 0.10921612472E+02 0.11384946330E+02 0.11555827229E+02 0.11384086665E+02
 0.10920377262E+02 0.10293514886E+02 0.96572024030E+01 0.91372637232E+01 0.80838272080E+01
 0.82577571409E+01 0.85242173872E+01 0.88395961840E+01 0.91533497493E+01 0.94202808173E+01
 0.96096029015E+01 0.97063234070E+01 0.97059363835E+01 0.96087049695E+01 0.94195213251E+01
 0.91533753807E+01 0.88405801024E+01 0.85256414701E+01 0.82587093687E+01 0.80836694373E+01
 0.80277850886E+01 0.80949441203E+01 0.82622199768E+01 0.84806259021E+01 0.86835951515E+01
 0.88054646842E+01 0.88051228473E+01 0.86829117111E+01 0.84803398509E+01 0.82628287723E+01
 0.80962281679E+01 0.80289115119E+01 0.78893743211E+01 0.82578405728E+01 0.86973014767E+01
 0.91631061233E+01 0.96007630513E+01 0.99569099520E+01 0.10188649600E+02 0.10268912608E+02
 0.10188437915E+02 0.99563010197E+01 0.95997690775E+01 0.91622011833E+01 0.86971551031E+01
 0.82587093687E+01 0.78907733235E+01 0.76193410766E+01 0.74501222200E+01 0.73711077924E+01
 0.73578896621E+01 0.73800067174E+01 0.74078679190E+01 0.74198803630E+01 0.74081778897E+01
 0.73807199083E+01 0.73588815972E+01 0.73718630489E+01 0.74500410971E+01 0.76183045195E+01
 0.80835911730E+01 0.86667774248E+01 0.93360243389E+01 0.10031687519E+02 0.10672126635E+02
 0.11167265790E+02 0.11438336190E+02 0.11438745343E+02 0.11168046140E+02 0.10672365760E+02
 0.10030886228E+02 0.93345978386E+01 0.86657264692E+01 0.80836694373E+01 0.76193410766E+01
 0.72771345107E+01 0.70423076153E+01 0.68907947390E+01 0.67982560492E+01 0.67459255510E+01
 0.67224383857E+01 0.67227709352E+01 0.67467249409E+01 0.67990024496E+01 0.68908957577E+01
 0.70414880889E+01 0.72757355258E+01 0.76182111382E+01 0.88030093026E+01 0.97677339111E+01
 0.10868964563E+02 0.11995197574E+02 0.12987678972E+02 0.13674461997E+02 0.13920789552E+02
 0.13675302428E+02 0.12988924878E+02 0.11996182339E+02 0.10869128925E+02 0.97669571353E+01
 0.88017337474E+01 0.80277850886E+01 0.74501222200E+01 0.70423076153E+01 0.67652805471E+01
 0.65819375725E+01 0.64652073360E+01 0.63996317058E+01 0.63784740149E+01 0.63998433288E+01
 0.64651867580E+01 0.65813185532E+01 0.67642553892E+01 0.70415537044E+01 0.74502396771E+01
 0.80287829300E+01 0.10540309066E+02 0.12280651720E+02 0.14225367080E+02 0.16125569089E+02
 0.17659005111E+02 0.18519383448E+02 0.18519343668E+02 0.17659131756E+02 0.16126263360E+02
 0.14226566606E+02 0.12281666809E+02 0.10540369280E+02 0.91362737564E+01 0.80949441203E+01
 0.73711077924E+01 0.68907947390E+01 0.65819375725E+01 0.63892012859E+01 0.62767261543E+01
 0.62246849643E+01 0.62245757167E+01 0.62763299387E+01 0.63885040978E+01 0.65812724402E+01
 0.68907480373E+01 0.73719892027E+01 0.80963507212E+01 0.91372903525E+01 0.14376329635E+02
 0.17631393017E+02 0.21093724046E+02 0.24222914003E+02 0.26419289816E+02 0.27210562060E+02
 0.26418344791E+02 0.24221750517E+02 0.21093223288E+02 0.17631913108E+02 0.14377461609E+02
 0.11678492253E+02 0.96571729316E+01 0.82622199768E+01 0.73578896621E+01 0.67982560492E+01
 0.64652073360E+01 0.62767261543E+01 0.61816975505E+01 0.61527405621E+01 0.61813906959E+01
 0.62764104953E+01 0.64652753854E+01 0.67988871379E+01 0.73588375100E+01 0.82628986825E+01
 0.96570581692E+01 0.11677568769E+02 0.22277967240E+02 0.28204467014E+02 0.34068986482E+02
 0.38811925172E+02 0.41466904864E+02 0.41466427535E+02 0.38810681015E+02 0.34067495301E+02
 0.28203409488E+02 0.22277861024E+02 0.17107557061E+02 0.13101343678E+02 0.10294400942E+02
 0.84806259021E+01 0.73800067174E+01 0.67459255510E+01 0.63996317058E+01 0.62246849643E+01
 0.61527405621E+01 0.61526712800E+01 0.62246643729E+01 0.63999805772E+01 0.67466447656E+01
 0.73806266947E+01 0.84805626274E+01 0.10293494225E+02 0.13100064521E+02 0.17106693448E+02
 0.37269776164E+02 0.47269945142E+02 0.56188149267E+02 0.62343203008E+02 0.64537471326E+02
 0.62343518267E+02 0.56188411932E+02 0.47269744841E+02 0.37269072831E+02 0.27859944601E+02
 0.20183474141E+02 0.14601772487E+02 0.10921612472E+02 0.86835951515E+01 0.74078679190E+01
 0.67224383857E+01 0.63784740149E+01 0.62245757167E+01 0.61813906959E+01 0.62246643729E+01
 0.63787225668E+01 0.67227288006E+01 0.74078364905E+01 0.86830006912E+01 0.10920717636E+02
 0.14601208509E+02 0.20183661762E+02 0.27860692402E+02 0.62766461033E+02 0.77561409661E+02
 0.89121246521E+02 0.95427659872E+02 0.95428420510E+02 0.89123024880E+02 0.77563068946E+02
 0.62767050735E+02 0.47323119445E+02 0.33622933858E+02 0.23084425744E+02 0.15875231851E+02
 0.11384946330E+02 0.88054646842E+01 0.74198803630E+01 0.67227709352E+01 0.63998433288E+01
 0.62763299387E+01 0.62764104953E+01 0.63999805772E+01 0.67227288006E+01 0.74194891151E+01
 0.88048256289E+01 0.11384467775E+02 0.15875385674E+02 0.23085336729E+02 0.33624131168E+02
 0.47323743377E+02 0.10024163831E+03 0.11881874429E+03 0.13108454397E+03 0.13534504918E+03
 0.13108520985E+03 0.11881970600E+03 0.10024246909E+03 0.78311331779E+02 0.56673249097E+02
 0.38454333779E+02 0.25182922324E+02 0.16610934744E+02 0.11555827229E+02 0.88051228473E+01
 0.74081778897E+01 0.67467249409E+01 0.64651867580E+01 0.63885040978E+01 0.64652753854E+01
 0.67466447656E+01 0.74078364905E+01 0.88048256289E+01 0.11555970916E+02 0.16611555742E+02
 0.25183661804E+02 0.38454792664E+02 0.56673249955E+02 0.78310873926E+02 0.14683670182E+03
 0.16618366365E+03 0.17622975341E+03 0.17622915364E+03 0.16618234955E+03 0.14683569387E+03
 0.12042584559E+03 0.90991965539E+02 0.63350211163E+02 0.41226356342E+02 0.25951810277E+02
 0.16611009038E+02 0.11384086665E+02 0.86829117111E+01 0.73807199083E+01 0.67990024496E+01
 0.65813185532E+01 0.65812724402E+01 0.67988871379E+01 0.73806266947E+01 0.86830006912E+01
 0.11384467775E+02 0.16611555742E+02 0.25952128400E+02 0.41226065875E+02 0.63349368522E+02
 0.90991187341E+02 0.12042587364E+03 0.19506969749E+03 0.21134667424E+03 0.21672832874E+03
 0.21134533607E+03 0.19506794878E+03 0.16844290307E+03 0.13433589305E+03 0.98127783281E+02
 0.65776385215E+02 0.41226660477E+02 0.25183893788E+02 0.15875236860E+02 0.10920377262E+02
 0.84803398509E+01 0.73588815972E+01 0.68908957577E+01 0.67642553892E+01 0.68907480373E+01
 0.73588375100E+01 0.84805626274E+01 0.10920717636E+02 0.15875385674E+02 0.25183661804E+02
 0.41226065875E+02 0.65775609721E+02 0.98127194266E+02 0.13433600649E+03 0.16844402515E+03
 0.23591537064E+03 0.24649645470E+03 0.24649652509E+03 0.23591540460E+03 0.21366957406E+03
 0.18012436477E+03 0.13929101609E+03 0.98127228707E+02 0.63349724363E+02 0.38455170022E+02
 0.23085565014E+02 0.14601310455E+02 0.10293514886E+02 0.82628287723E+01 0.73718630489E+01
 0.70414880889E+01 0.70415537044E+01 0.73719892027E+01 0.82628986825E+01 0.10293494225E+02
 0.14601208509E+02 0.23085336729E+02 0.38454792664E+02 0.63349368522E+02 0.98127194266E+02
 0.13929139986E+03 0.18012488346E+03 0.21366984583E+03 0.26354914261E+03 0.26820908893E+03
 0.26355026127E+03 0.24819495706E+03 0.22003380471E+03 0.18012481345E+03 0.13433547176E+03
 0.90990632948E+02 0.56672892374E+02 0.33624038225E+02 0.20183833739E+02 0.13100355165E+02
 0.96572024030E+01 0.80962281679E+01 0.74500410971E+01 0.72757355258E+01 0.74502396771E+01
 0.80963507212E+01 0.96570581692E+01 0.13100064521E+02 0.20183661762E+02 0.33624131168E+02
 0.56673249955E+02 0.90991187341E+02 0.13433600649E+03 0.18012488346E+03 0.22003303404E+03
 0.24819356833E+03 0.27779885713E+03 0.27779929546E+03 0.26893139450E+03 0.24819498309E+03
 0.21367074392E+03 0.16844390022E+03 0.12042497916E+03 0.78310015412E+02 0.47323474006E+02
 0.27860852499E+02 0.17106810316E+02 0.11677501200E+02 0.91372637232E+01 0.80289115119E+01
 0.76183045195E+01 0.76182111382E+01 0.80287829300E+01 0.91372903525E+01 0.11677568769E+02
 0.17106693448E+02 0.27860692402E+02 0.47323743377E+02 0.78310873926E+02 0.12042587364E+03
 0.16844402515E+03 0.21366984583E+03 0.24819356833E+03 0.26893022160E+03 0.27818064356E+03
 0.27371012577E+03 0.25867470709E+03 0.23043601367E+03 0.18966744751E+03 0.14226547125E+03
 0.96929753400E+02 0.60700193776E+02 0.36143168245E+02 0.21723966089E+02 0.14120873936E+02
 0.10427768430E+02 0.87544178011E+01 0.80613819560E+01 0.78738590512E+01 0.80608497301E+01
 0.87543079459E+01 0.10428229797E+02 0.14121007034E+02 0.21723492687E+02 0.36142903464E+02
 0.60700583506E+02 0.96930235270E+02 0.14226557953E+03 0.18966738780E+03 0.23043589712E+03
 0.25867431359E+03 0.27370964625E+03 0.27371012577E+03 0.26356966205E+03 0.24120936185E+03
 0.20587170909E+03 0.16124648560E+03 0.11498637084E+03 0.74997579771E+02 0.45777184376E+02
 0.27431055924E+02 0.17260594522E+02 0.12111383946E+02 0.96913253616E+01 0.86306506975E+01
 0.82367221137E+01 0.82365879888E+01 0.86305535158E+01 0.96915329267E+01 0.12111549834E+02
 0.17260469349E+02 0.27430946227E+02 0.45777106537E+02 0.74996962228E+02 0.11498529811E+03
 0.16124615501E+03 0.20587280108E+03 0.24121095593E+03 0.26357058695E+03 0.27371033539E+03
 0.25867470709E+03 0.24120936185E+03 0.21126133620E+03 0.17114726073E+03 0.12694638359E+03
 0.86192177786E+02 0.54378903060E+02 0.33078883432E+02 0.20598511249E+02 0.13990789820E+02
 0.10759745350E+02 0.92831231036E+01 0.86679587914E+01 0.85013687305E+01 0.86678454117E+01
 0.92832018878E+01 0.10759935203E+02 0.13990822935E+02 0.20598608146E+02 0.33079214969E+02
 0.54378756221E+02 0.86190928603E+02 0.12694498743E+03 0.17114735070E+03 0.21126298793E+03
 0.24121110461E+03 0.25867554474E+03 0.26426052681E+03 0.23043601367E+03 0.20587170909E+03
 0.17114726073E+03 0.13110816608E+03 0.92307864141E+02 0.60321123677E+02 0.37648454307E+02
 0.23614664499E+02 0.15826063770E+02 0.11851244122E+02 0.99605779334E+01 0.91244297624E+01
 0.88130624764E+01 0.88127705341E+01 0.91240799589E+01 0.99607464296E+01 0.11851523368E+02
 0.15825998845E+02 0.23614729486E+02 0.37649066461E+02 0.60321631856E+02 0.92307580570E+02
 0.13110754665E+03 0.17114705054E+03 0.20587174653E+03 0.23043584335E+03 0.24283074367E+03
 0.24283090458E+03 0.18966744751E+03 0.16124648560E+03 0.12694638359E+03 0.92307864141E+02
 0.62440290265E+02 0.40206981651E+02 0.25731443145E+02 0.17307087262E+02 0.12813018149E+02
 0.10583653793E+02 0.95523178889E+01 0.91220950039E+01 0.90060210565E+01 0.91216222947E+01
 0.95522024759E+01 0.10583921234E+02 0.12812836303E+02 0.17306477484E+02 0.25731509177E+02
 0.40208141572E+02 0.62441609513E+02 0.92308402720E+02 0.12694601978E+03 0.16124531392E+03
 0.18966565566E+03 0.20808339748E+03 0.21440991474E+03 0.20808488228E+03 0.14226547125E+03
 0.11498637084E+03 0.86192177786E+02 0.60321123677E+02 0.40206981651E+02 0.26494149190E+02
 0.18137832417E+02 0.13478478949E+02 0.11065344570E+02 0.99000142289E+01 0.93840160635E+01
 0.91945428239E+01 0.91943728098E+01 0.93839048000E+01 0.99002758186E+01 0.11065373428E+02
 0.13477780075E+02 0.18137060751E+02 0.26494175984E+02 0.40207669537E+02 0.60321838378E+02
 0.86192689092E+02 0.11498647563E+03 0.14226469001E+03 0.16338911074E+03 0.17484496950E+03
 0.17484572875E+03 0.16339054509E+03 0.96929753400E+02 0.74997579771E+02 0.54378903060E+02
 0.37648454307E+02 0.25731443145E+02 0.18137832417E+02 0.13716712754E+02 0.11328628215E+02
 0.10126042422E+02 0.95694969394E+01 0.93427241988E+01 0.92833574633E+01 0.93425596281E+01
 0.95697099037E+01 0.10126581216E+02 0.11328782544E+02 0.13716230086E+02 0.18137125511E+02
 0.25730745324E+02 0.37647778409E+02 0.54378710231E+02 0.74998360672E+02 0.96930996541E+02
 0.11650038387E+03 0.13001697401E+03 0.13483830622E+03 0.13001696743E+03 0.11649970631E+03
 0.60700193776E+02 0.45777184376E+02 0.33078883432E+02 0.23614664499E+02 0.17307087262E+02
 0.13478478949E+02 0.11328628215E+02 0.10204202613E+02 0.96642227971E+01 0.94339655765E+01
 0.93546110994E+01 0.93543953249E+01 0.94337500268E+01 0.96645542814E+01 0.10204859830E+02
 0.11329083222E+02 0.13478605240E+02 0.17306839833E+02 0.23613786913E+02 0.33077616692E+02
 0.45776580541E+02 0.60700964082E+02 0.75692342275E+02 0.87939071477E+02 0.94837851867E+02
 0.94837427392E+02 0.87937825479E+02 0.75690780437E+02 0.36143168245E+02 0.27431055924E+02
 0.20598511249E+02 0.15826063770E+02 0.12813018149E+02 0.11065344570E+02 0.10126042422E+02
 0.96642227971E+01 0.94642891222E+01 0.93926417272E+01 0.93762777902E+01 0.93922979818E+01
 0.94639939022E+01 0.96641745163E+01 0.10126220602E+02 0.11065920242E+02 0.12814052434E+02
 0.15826890124E+02 0.20598259915E+02 0.27429875635E+02 0.36142189073E+02 0.45809234269E+02
 0.54805272128E+02 0.61233245435E+02 0.63569832062E+02 0.61232755202E+02 0.54804680217E+02
 0.45809263615E+02 0.21723966089E+02 0.17260594522E+02 0.13990789820E+02 0.11851244122E+02
 0.10583653793E+02 0.99000142289E+01 0.95694969394E+01 0.94339655765E+01 0.93926417272E+01
 0.93858453439E+01 0.93857734267E+01 0.93924352395E+01 0.94335659584E+01 0.95688710256E+01
 0.98995328737E+01 0.10583963488E+02 0.11852434743E+02 0.13992055325E+02 0.17261062456E+02
 0.21723544636E+02 0.27085147393E+02 0.32620281126E+02 0.37261041105E+02 0.39924039529E+02
 0.39924377265E+02 0.37261854906E+02 0.32621234767E+02 0.27086009288E+02 0.14120873936E+02
 0.12111383946E+02 0.10759745350E+02 0.99605779334E+01 0.95523178889E+01 0.93840160635E+01
 0.93427241988E+01 0.93546110994E+01 0.93762777902E+01 0.93857734267E+01 0.93764870601E+01
 0.93548710723E+01 0.93426446307E+01 0.93832886653E+01 0.95512131978E+01 0.99598576325E+01
 0.10759970233E+02 0.12112442103E+02 0.14122123518E+02 0.16742204184E+02 0.19695736756E+02
 0.22481347816E+02 0.24496027172E+02 0.25234240121E+02 0.24497159254E+02 0.22482623909E+02
 0.19696156577E+02 0.16741540471E+02 0.10427768430E+02 0.96913253616E+01 0.92831231036E+01
 0.91244297624E+01 0.91220950039E+01 0.91945428239E+01 0.92833574633E+01 0.93543953249E+01
 0.93922979818E+01 0.93924352395E+01 0.93548710723E+01 0.92841026479E+01 0.91950661682E+01
 0.91218089382E+01 0.91232930608E+01 0.92817940846E+01 0.96906467545E+01 0.10428123831E+02
 0.11517023922E+02 0.12880438352E+02 0.14319315422E+02 0.15541108651E+02 0.16247223995E+02
 0.16247412201E+02 0.15541333574E+02 0.14318984907E+02 0.12879452364E+02 0.11515966190E+02
 0.87544178011E+01 0.86306506975E+01 0.86679587914E+01 0.88130624764E+01 0.90060210565E+01
 0.91943728098E+01 0.93425596281E+01 0.94337500268E+01 0.94639939022E+01 0.94335659584E+01
 0.93426446307E+01 0.91950661682E+01 0.90070881174E+01 0.88138280225E+01 0.86678435327E+01
 0.86296208293E+01 0.87530458190E+01 0.90682881667E+01 0.95637186757E+01 0.10172050661E+02
 0.10771914721E+02 0.11215496028E+02 0.11379193895E+02 0.11214707169E+02 0.10770706788E+02
 0.10171083401E+02 0.95636150771E+01 0.90691800205E+01 0.80613819560E+01 0.82367221137E+01
 0.85013687305E+01 0.88127705341E+01 0.91216222947E+01 0.93839048000E+01 0.95697099037E+01
 0.96645542814E+01 0.96641745163E+01 0.95688710256E+01 0.93832886653E+01 0.91218089382E+01
 0.88138280225E+01 0.85027506980E+01 0.82375636036E+01 0.80610984811E+01 0.79999485975E+01
 0.80580382072E+01 0.82134430464E+01 0.84191975605E+01 0.86114407998E+01 0.87271265263E+01
 0.87267456582E+01 0.86106402697E+01 0.84187505298E+01 0.82139340497E+01 0.80593152836E+01
 0.80011641221E+01 0.78738590512E+01 0.82365879888E+01 0.86678454117E+01 0.91240799589E+01
 0.95522024759E+01 0.99002758186E+01 0.10126581216E+02 0.10204859830E+02 0.10126220602E+02
 0.98995328737E+01 0.95512131978E+01 0.91232930608E+01 0.86678435327E+01 0.82375636036E+01
 0.78752714396E+01 0.76063299580E+01 0.74364109368E+01 0.73540718295E+01 0.73359733085E+01
 0.73530474962E+01 0.73771321094E+01 0.73877147238E+01 0.73773452895E+01 0.73536297389E+01
 0.73369110556E+01 0.73549166726E+01 0.74364981043E+01 0.76054041784E+01 0.80608497301E+01
 0.86305535158E+01 0.92832018878E+01 0.99607464296E+01 0.10583921234E+02 0.11065373428E+02
 0.11328782544E+02 0.11329083222E+02 0.11065920242E+02 0.10583963488E+02 0.99598576325E+01
 0.92817940846E+01 0.86296208293E+01 0.80610984811E+01 0.76063299580E+01 0.72696876378E+01
 0.70370224746E+01 0.68852110664E+01 0.67910052297E+01 0.67367524753E+01 0.67120363903E+01
 0.67123750799E+01 0.67375689156E+01 0.67918003084E+01 0.68854264033E+01 0.70363441879E+01
 0.72683381308E+01 0.76050981977E+01 0.87543079459E+01 0.96915329267E+01 0.10759935203E+02
 0.11851523368E+02 0.12812836303E+02 0.13477780075E+02 0.13716230086E+02 0.13478605240E+02
 0.12814052434E+02 0.11852434743E+02 0.10759970233E+02 0.96906467545E+01 0.87530458190E+01
 0.79999485975E+01 0.74364109368E+01 0.70370224746E+01 0.67641245188E+01 0.65820210756E+01
 0.64649587571E+01 0.63986530779E+01 0.63771972037E+01 0.63989636225E+01 0.64650581337E+01
 0.65814816671E+01 0.67631210201E+01 0.70362122224E+01 0.74363933919E+01 0.80008161407E+01
 0.10428229797E+02 0.12111549834E+02 0.13990822935E+02 0.15825998845E+02 0.17306477484E+02
 0.18137060751E+02 0.18137125511E+02 0.17306839833E+02 0.15826890124E+02 0.13992055325E+02
 0.12112442103E+02 0.10428123831E+02 0.90682881667E+01 0.80580382072E+01 0.73540718295E+01
 0.68852110664E+01 0.65820210756E+01 0.63913601594E+01 0.62791553133E+01 0.62269166548E+01
 0.62268498758E+01 0.62788356451E+01 0.63906792406E+01 0.65812735978E+01 0.68850278622E+01
 0.73548423501E+01 0.80594254342E+01 0.90694006523E+01 0.14121007034E+02 0.17260469349E+02
 0.20598608146E+02 0.23614729486E+02 0.25731509177E+02 0.26494175984E+02 0.25730745324E+02
 0.23613786913E+02 0.20598259915E+02 0.17261062456E+02 0.14122123518E+02 0.11517023922E+02
 0.95637186757E+01 0.82134430464E+01 0.73359733085E+01 0.67910052297E+01 0.64649587571E+01
 0.62791553133E+01 0.61847934980E+01 0.61558877645E+01 0.61844578754E+01 0.62787922258E+01
 0.64649457366E+01 0.67915256906E+01 0.73368650507E+01 0.82142033155E+01 0.95637749270E+01
 0.11516226135E+02 0.21723492687E+02 0.27430946227E+02 0.33079214969E+02 0.37649066461E+02
 0.40208141572E+02 0.40207669537E+02 0.37647778409E+02 0.33077616692E+02 0.27429875635E+02
 0.21723544636E+02 0.16742204184E+02 0.12880438352E+02 0.10172050661E+02 0.84191975605E+01
 0.73530474962E+01 0.67367524753E+01 0.63986530779E+01 0.62269166548E+01 0.61558877645E+01
 0.61557472119E+01 0.62267895936E+01 0.63989906523E+01 0.67375083528E+01 0.73536883517E+01
 0.84192122710E+01 0.10171295250E+02 0.12879211415E+02 0.16741198025E+02 0.36142903464E+02
 0.45777106537E+02 0.54378756221E+02 0.60321631856E+02 0.62441609513E+02 0.60321838378E+02
 0.54378710231E+02 0.45776580541E+02 0.36142189073E+02 0.27085147393E+02 0.19695736756E+02
 0.14319315422E+02 0.10771914721E+02 0.86114407998E+01 0.73771321094E+01 0.67120363903E+01
 0.63771972037E+01 0.62268498758E+01 0.61844578754E+01 0.62267895936E+01 0.63774369087E+01
 0.67125048960E+01 0.73772172700E+01 0.86108328557E+01 0.10771035354E+02 0.14318763545E+02
 0.19695741389E+02 0.27085630421E+02 0.60700583506E+02 0.74996962228E+02 0.86190928603E+02
 0.92307580570E+02 0.92308402720E+02 0.86192689092E+02 0.74998360672E+02 0.60700964082E+02
 0.45809234269E+02 0.32620281126E+02 0.22481347816E+02 0.15541108651E+02 0.11215496028E+02
 0.87271265263E+01 0.73877147238E+01 0.67123750799E+01 0.63989636225E+01 0.62788356451E+01
 0.62787922258E+01 0.63989906523E+01 0.67125048960E+01 0.73875151095E+01 0.87263918609E+01
 0.11214832865E+02 0.15541258368E+02 0.22482264838E+02 0.32621304360E+02 0.45809757206E+02
 0.96930235270E+02 0.11498529811E+03 0.12694498743E+03 0.13110754665E+03 0.12694601978E+03
 0.11498647563E+03 0.96930996541E+02 0.75692342275E+02 0.54805272128E+02 0.37261041105E+02
 0.24496027172E+02 0.16247223995E+02 0.11379193895E+02 0.87267456582E+01 0.73773452895E+01
 0.67375689156E+01 0.64650581337E+01 0.63906792406E+01 0.64649457366E+01 0.67375083528E+01
 0.73772172700E+01 0.87263918609E+01 0.11379015526E+02 0.16247758888E+02 0.24497005261E+02
 0.37261639384E+02 0.54805203013E+02 0.75691900938E+02 0.14226557953E+03 0.16124615501E+03
 0.17114735070E+03 0.17114705054E+03 0.16124531392E+03 0.14226469001E+03 0.11650038387E+03
 0.87939071477E+02 0.61233245435E+02 0.39924039529E+02 0.25234240121E+02 0.16247412201E+02
 0.11214707169E+02 0.86106402697E+01 0.73536297389E+01 0.67918003084E+01 0.65814816671E+01
 0.65812735978E+01 0.67915256906E+01 0.73536883517E+01 0.86108328557E+01 0.11214832865E+02
 0.16247758888E+02 0.25234814594E+02 0.39924107461E+02 0.61232427678E+02 0.87938199537E+02
 0.11650046014E+03 0.18966738780E+03 0.20587280108E+03 0.21126298793E+03 0.20587174653E+03
 0.18966565566E+03 0.16338911074E+03 0.13001697401E+03 0.94837851867E+02 0.63569832062E+02
 0.39924377265E+02 0.24497159254E+02 0.15541333574E+02 0.10770706788E+02 0.84187505298E+01
 0.73369110556E+01 0.68854264033E+01 0.67631210201E+01 0.68850278622E+01 0.73368650507E+01
 0.84192122710E+01 0.10771035354E+02 0.15541258368E+02 0.24497005261E+02 0.39924107461E+02
 0.63569068164E+02 0.94836982302E+02 0.13001707573E+03 0.16339049051E+03 0.23043589712E+03
 0.24121095593E+03 0.24121110461E+03 0.23043584335E+03 0.20808339748E+03 0.17484496950E+03
 0.13483830622E+03 0.94837427392E+02 0.61232755202E+02 0.37261854906E+02 0.22482623909E+02
 0.14318984907E+02 0.10171083401E+02 0.82139340497E+01 0.73549166726E+01 0.70363441879E+01
 0.70362122224E+01 0.73548423501E+01 0.82142033155E+01 0.10171295250E+02 0.14318763545E+02
 0.22482264838E+02 0.37261639384E+02 0.61232427678E+02 0.94836982302E+02 0.13483839224E+03
 0.17484579704E+03 0.20808414584E+03 0.25867431359E+03 0.26357058695E+03 0.25867554474E+03
 0.24283074367E+03 0.21440991474E+03 0.17484572875E+03 0.13001696743E+03 0.87937825479E+02
 0.54804680217E+02 0.32621234767E+02 0.19696156577E+02 0.12879452364E+02 0.95636150771E+01
 0.80593152836E+01 0.74364981043E+01 0.72683381308E+01 0.74363933919E+01 0.80594254342E+01
 0.95637749270E+01 0.12879211415E+02 0.19695741389E+02 0.32621304360E+02 0.54805203013E+02
 0.87938199537E+02 0.13001707573E+03 0.17484579704E+03 0.21440958974E+03 0.24282959300E+03
 0.27370964625E+03 0.27371033539E+03 0.26426052681E+03 0.24283090458E+03 0.20808488228E+03
 0.16339054509E+03 0.11649970631E+03 0.75690780437E+02 0.45809263615E+02 0.27086009288E+02
 0.16741540471E+02 0.11515966190E+02 0.90691800205E+01 0.80011641221E+01 0.76054041784E+01
 0.76050981977E+01 0.80008161407E+01 0.90694006523E+01 0.11516226135E+02 0.16741198025E+02
 0.27085630421E+02 0.45809757206E+02 0.75691900938E+02 0.11650046014E+03 0.16339049051E+03
 0.20808414584E+03 0.24282959300E+03 0.26425904192E+03 0.26564845129E+03 0.26035349236E+03
 0.24354831521E+03 0.21415348125E+03 0.17407915716E+03 0.12932334460E+03 0.87664857425E+02
 0.54958553934E+02 0.33018750170E+02 0.20184048587E+02 0.13409000954E+02 0.10112091567E+02
 0.86152406893E+01 0.79951015024E+01 0.78271998702E+01 0.79942695038E+01 0.86151414847E+01
 0.10112845017E+02 0.13409073035E+02 0.20183208103E+02 0.33018513750E+02 0.54959397884E+02
 0.87665541550E+02 0.12932329693E+03 0.17407910313E+03 0.21415348810E+03 0.24354761461E+03
 0.26035246283E+03 0.26035349236E+03 0.24897132686E+03 0.22527756825E+03 0.18990778115E+03
 0.14716433683E+03 0.10420945920E+03 0.67850170066E+02 0.41633283408E+02 0.25284006223E+02
 0.16227867826E+02 0.11636906863E+02 0.94745676647E+01 0.85260592527E+01 0.81739870169E+01
 0.81736202351E+01 0.85257408811E+01 0.94750337209E+01 0.11637307089E+02 0.16227452743E+02
 0.25283590258E+02 0.41633448571E+02 0.67849920808E+02 0.10420832818E+03 0.14716385016E+03
 0.18990903305E+03 0.22527924065E+03 0.24897188700E+03 0.26035342036E+03 0.24354831521E+03
 0.22527756825E+03 0.19525241784E+03 0.15658478225E+03 0.11526625740E+03 0.78004878687E+02