   2   2   0   0
  0.2353172E+02  0.3236030E-09  0.3236030E-09  0.5189530E-09  0.5000000E-15
  1.000000000000000E-004
  CAR 
 Zr                                      
     50.92005299    -44.29029647  301      8.94972276      1.00000000
    -44.290  0.0000E+00  0.0000E+00
    -43.973  0.0000E+00  0.0000E+00
    -43.656  0.0000E+00  0.0000E+00
    -43.338  0.0000E+00  0.0000E+00
    -43.021  0.0000E+00  0.0000E+00
    -42.703  0.0000E+00  0.0000E+00
    -42.386  0.0000E+00  0.0000E+00
    -42.069  0.0000E+00  0.0000E+00
    -41.751  0.0000E+00  0.0000E+00
    -41.434  0.0000E+00  0.0000E+00
    -41.117  0.0000E+00  0.0000E+00
    -40.799  0.0000E+00  0.0000E+00
    -40.482  0.0000E+00  0.0000E+00
    -40.165  0.1729E-09  0.5486E-10
    -39.847  0.4145E+01  0.1315E+01
    -39.530  0.8458E+01  0.4000E+01
    -39.212  0.0000E+00  0.4000E+01
    -38.895  0.0000E+00  0.4000E+01
    -38.578  0.0000E+00  0.4000E+01
    -38.260  0.0000E+00  0.4000E+01
    -37.943  0.0000E+00  0.4000E+01
    -37.626  0.0000E+00  0.4000E+01
    -37.308  0.0000E+00  0.4000E+01
    -36.991  0.0000E+00  0.4000E+01
    -36.673  0.0000E+00  0.4000E+01
    -36.356  0.0000E+00  0.4000E+01
    -36.039  0.0000E+00  0.4000E+01
    -35.721  0.0000E+00  0.4000E+01
    -35.404  0.0000E+00  0.4000E+01
    -35.087  0.0000E+00  0.4000E+01
    -34.769  0.0000E+00  0.4000E+01
    -34.452  0.0000E+00  0.4000E+01
    -34.135  0.0000E+00  0.4000E+01
    -33.817  0.0000E+00  0.4000E+01
    -33.500  0.0000E+00  0.4000E+01
    -33.182  0.0000E+00  0.4000E+01
    -32.865  0.0000E+00  0.4000E+01
    -32.548  0.0000E+00  0.4000E+01
    -32.230  0.0000E+00  0.4000E+01
    -31.913  0.0000E+00  0.4000E+01
    -31.596  0.0000E+00  0.4000E+01
    -31.278  0.0000E+00  0.4000E+01
    -30.961  0.0000E+00  0.4000E+01
    -30.643  0.0000E+00  0.4000E+01
    -30.326  0.0000E+00  0.4000E+01
    -30.009  0.0000E+00  0.4000E+01
    -29.691  0.0000E+00  0.4000E+01
    -29.374  0.0000E+00  0.4000E+01
    -29.057  0.0000E+00  0.4000E+01
    -28.739  0.0000E+00  0.4000E+01
    -28.422  0.0000E+00  0.4000E+01
    -28.105  0.0000E+00  0.4000E+01
    -27.787  0.0000E+00  0.4000E+01
    -27.470  0.0000E+00  0.4000E+01
    -27.152  0.0000E+00  0.4000E+01
    -26.835  0.0000E+00  0.4000E+01
    -26.518  0.0000E+00  0.4000E+01
    -26.200  0.0000E+00  0.4000E+01
    -25.883  0.0000E+00  0.4000E+01
    -25.566  0.0000E+00  0.4000E+01
    -25.248  0.0000E+00  0.4000E+01
    -24.931  0.0000E+00  0.4000E+01
    -24.613  0.0000E+00  0.4000E+01
    -24.296  0.0000E+00  0.4000E+01
    -23.979  0.0000E+00  0.4000E+01
    -23.661  0.0000E+00  0.4000E+01
    -23.344  0.0000E+00  0.4000E+01
    -23.027  0.0000E+00  0.4000E+01
    -22.709  0.0000E+00  0.4000E+01
    -22.392  0.0000E+00  0.4000E+01
    -22.075  0.0000E+00  0.4000E+01
    -21.757  0.0000E+00  0.4000E+01
    -21.440  0.0000E+00  0.4000E+01
    -21.122  0.0000E+00  0.4000E+01
    -20.805  0.0000E+00  0.4000E+01
    -20.488  0.0000E+00  0.4000E+01
    -20.170  0.0000E+00  0.4000E+01
    -19.853  0.0000E+00  0.4000E+01
    -19.536  0.0000E+00  0.4000E+01
    -19.218  0.0000E+00  0.4000E+01
    -18.901  0.0000E+00  0.4000E+01
    -18.584  0.1349E-04  0.4000E+01
    -18.266  0.4134E+01  0.5312E+01
    -17.949  0.1001E+02  0.8490E+01
    -17.631  0.1844E+02  0.1434E+02
    -17.314  0.5218E+01  0.1600E+02
    -16.997  0.0000E+00  0.1600E+02
    -16.679  0.0000E+00  0.1600E+02
    -16.362  0.0000E+00  0.1600E+02
    -16.045  0.0000E+00  0.1600E+02
    -15.727  0.0000E+00  0.1600E+02
    -15.410  0.0000E+00  0.1600E+02
    -15.092  0.0000E+00  0.1600E+02
    -14.775  0.0000E+00  0.1600E+02
    -14.458  0.0000E+00  0.1600E+02
    -14.140  0.0000E+00  0.1600E+02
    -13.823  0.0000E+00  0.1600E+02
    -13.506  0.0000E+00  0.1600E+02
    -13.188  0.0000E+00  0.1600E+02
    -12.871  0.0000E+00  0.1600E+02
    -12.554  0.0000E+00  0.1600E+02
    -12.236  0.0000E+00  0.1600E+02
    -11.919  0.0000E+00  0.1600E+02
    -11.601  0.0000E+00  0.1600E+02
    -11.284  0.0000E+00  0.1600E+02
    -10.967  0.0000E+00  0.1600E+02
    -10.649  0.0000E+00  0.1600E+02
    -10.332  0.0000E+00  0.1600E+02
    -10.015  0.0000E+00  0.1600E+02
     -9.697  0.0000E+00  0.1600E+02
     -9.380  0.0000E+00  0.1600E+02
     -9.062  0.0000E+00  0.1600E+02
     -8.745  0.0000E+00  0.1600E+02
     -8.428  0.0000E+00  0.1600E+02
     -8.110  0.0000E+00  0.1600E+02
     -7.793  0.0000E+00  0.1600E+02
     -7.476  0.0000E+00  0.1600E+02
     -7.158  0.0000E+00  0.1600E+02
     -6.841  0.0000E+00  0.1600E+02
     -6.524  0.0000E+00  0.1600E+02
     -6.206  0.0000E+00  0.1600E+02
     -5.889  0.0000E+00  0.1600E+02
     -5.571  0.0000E+00  0.1600E+02
     -5.254  0.0000E+00  0.1600E+02
     -4.937  0.0000E+00  0.1600E+02
     -4.619  0.0000E+00  0.1600E+02
     -4.302  0.0000E+00  0.1600E+02
     -3.985  0.0000E+00  0.1600E+02
     -3.667  0.0000E+00  0.1600E+02
     -3.350  0.0000E+00  0.1600E+02
     -3.032  0.0000E+00  0.1600E+02
     -2.715  0.0000E+00  0.1600E+02
     -2.398  0.0000E+00  0.1600E+02
     -2.080  0.0000E+00  0.1600E+02
     -1.763  0.0000E+00  0.1600E+02
     -1.446  0.0000E+00  0.1600E+02
     -1.128  0.0000E+00  0.1600E+02
     -0.811  0.0000E+00  0.1600E+02
     -0.494  0.0000E+00  0.1600E+02
     -0.176  0.0000E+00  0.1600E+02
      0.141  0.0000E+00  0.1600E+02
      0.459  0.0000E+00  0.1600E+02
      0.776  0.0000E+00  0.1600E+02
      1.093  0.0000E+00  0.1600E+02
      1.411  0.0000E+00  0.1600E+02
      1.728  0.0000E+00  0.1600E+02
      2.045  0.0000E+00  0.1600E+02
      2.363  0.0000E+00  0.1600E+02
      2.680  0.0000E+00  0.1600E+02
      2.998  0.2050E-17  0.1600E+02
      3.315  0.9837E-02  0.1600E+02
      3.632  0.2817E-01  0.1601E+02
      3.950  0.2450E+00  0.1609E+02
      4.267  0.1480E+00  0.1614E+02
      4.584  0.1804E+00  0.1619E+02
      4.902  0.5199E+00  0.1636E+02
      5.219  0.2342E+00  0.1643E+02
      5.536  0.4348E+00  0.1657E+02
      5.854  0.9486E+00  0.1687E+02
      6.171  0.1856E+01  0.1746E+02
      6.489  0.2154E+01  0.1815E+02
      6.806  0.2375E+01  0.1890E+02
      7.123  0.2769E+01  0.1978E+02
      7.441  0.2037E+01  0.2043E+02
      7.758  0.2456E+01  0.2120E+02
      8.075  0.2911E+01  0.2213E+02
      8.393  0.3494E+01  0.2324E+02
      8.710  0.1559E+01  0.2373E+02
      9.027  0.1687E+01  0.2427E+02
      9.345  0.4381E+01  0.2566E+02
      9.662  0.2451E+01  0.2644E+02
      9.980  0.4176E+01  0.2776E+02
     10.297  0.4101E+01  0.2907E+02
     10.614  0.2326E+01  0.2980E+02
     10.932  0.2034E+01  0.3045E+02
     11.249  0.1348E+01  0.3088E+02
     11.566  0.1424E+01  0.3133E+02
     11.884  0.2177E+01  0.3202E+02
     12.201  0.9316E+00  0.3232E+02
     12.519  0.1392E+01  0.3276E+02
     12.836  0.1876E+01  0.3336E+02
     13.153  0.3933E+01  0.3460E+02
     13.471  0.2463E+01  0.3539E+02
     13.788  0.3914E+01  0.3663E+02
     14.105  0.2681E+01  0.3748E+02
     14.423  0.1068E+01  0.3782E+02
     14.740  0.1277E+01  0.3822E+02
     15.057  0.1244E+01  0.3862E+02
     15.375  0.8639E+00  0.3889E+02
     15.692  0.1149E+01  0.3926E+02
     16.010  0.5254E+00  0.3943E+02
     16.327  0.8129E+00  0.3968E+02
     16.644  0.7928E+00  0.3993E+02
     16.962  0.2053E+00  0.4000E+02
     17.279  0.7388E-01  0.4002E+02
     17.596  0.3499E+00  0.4013E+02
     17.914  0.1979E+01  0.4076E+02
     18.231  0.1784E+01  0.4133E+02
     18.549  0.1600E+01  0.4184E+02
     18.866  0.8218E+00  0.4210E+02
     19.183  0.1698E+01  0.4264E+02
     19.501  0.1708E+01  0.4318E+02
     19.818  0.1534E+01  0.4367E+02
     20.135  0.1855E+01  0.4425E+02
     20.453  0.1453E+01  0.4472E+02
     20.770  0.1545E+01  0.4521E+02
     21.087  0.1965E+01  0.4583E+02
     21.405  0.3026E+01  0.4679E+02
     21.722  0.1589E+01  0.4730E+02
     22.040  0.2553E+01  0.4811E+02
     22.357  0.2235E+01  0.4882E+02
     22.674  0.1925E+01  0.4943E+02
     22.992  0.1717E+01  0.4997E+02
     23.309  0.1749E+01  0.5053E+02
     23.626  0.2284E+01  0.5125E+02
     23.944  0.2071E+01  0.5191E+02
     24.261  0.1962E+01  0.5253E+02
     24.579  0.8073E+00  0.5279E+02
     24.896  0.1049E+01  0.5312E+02
     25.213  0.1562E+01  0.5362E+02
     25.531  0.1714E+01  0.5416E+02
     25.848  0.1496E+01  0.5464E+02
     26.165  0.1048E+01  0.5497E+02
     26.483  0.1317E+01  0.5539E+02
     26.800  0.1253E+01  0.5579E+02
     27.117  0.1655E+01  0.5631E+02
     27.435  0.1346E+01  0.5674E+02
     27.752  0.1148E+01  0.5710E+02
     28.070  0.1224E+01  0.5749E+02
     28.387  0.2012E+01  0.5813E+02
     28.704  0.2341E+01  0.5887E+02
     29.022  0.2454E+01  0.5965E+02
     29.339  0.1065E+01  0.5999E+02
     29.656  0.3218E+01  0.6101E+02
     29.974  0.2364E+01  0.6176E+02
     30.291  0.1321E+01  0.6218E+02
     30.609  0.2133E+01  0.6286E+02
     30.926  0.2223E+01  0.6357E+02
     31.243  0.2190E+01  0.6426E+02
     31.561  0.1626E+01  0.6478E+02
     31.878  0.2281E+01  0.6550E+02
     32.195  0.3492E+01  0.6661E+02
     32.513  0.5530E+00  0.6679E+02
     32.830  0.1387E+01  0.6723E+02
     33.147  0.2017E+01  0.6787E+02
     33.465  0.2559E+01  0.6868E+02
     33.782  0.1029E+01  0.6900E+02
     34.100  0.1888E+01  0.6960E+02
     34.417  0.1993E+01  0.7024E+02
     34.734  0.2095E+01  0.7090E+02
     35.052  0.2296E+01  0.7163E+02
     35.369  0.2993E+01  0.7258E+02
     35.686  0.2547E+01  0.7339E+02
     36.004  0.1871E+01  0.7398E+02
     36.321  0.2007E+01  0.7462E+02
     36.639  0.2240E+01  0.7533E+02
     36.956  0.2612E+01  0.7616E+02
     37.273  0.2167E+01  0.7685E+02
     37.591  0.2886E+01  0.7776E+02
     37.908  0.2334E+01  0.7851E+02
     38.225  0.2097E+01  0.7917E+02
     38.543  0.2313E+01  0.7991E+02
     38.860  0.1812E+01  0.8048E+02
     39.177  0.2393E+01  0.8124E+02
     39.495  0.2449E+01  0.8202E+02
     39.812  0.1926E+01  0.8263E+02
     40.130  0.1686E+01  0.8317E+02
     40.447  0.2708E+01  0.8403E+02
     40.764  0.1798E+01  0.8460E+02
     41.082  0.1381E+01  0.8503E+02
     41.399  0.2545E+01  0.8584E+02
     41.716  0.1953E+01  0.8646E+02
     42.034  0.3335E+01  0.8752E+02
     42.351  0.2744E+01  0.8839E+02
     42.668  0.2402E+01  0.8915E+02
     42.986  0.2243E+01  0.8987E+02
     43.303  0.1856E+01  0.9046E+02
     43.621  0.3561E+01  0.9159E+02
     43.938  0.3831E+01  0.9280E+02
     44.255  0.2325E+01  0.9354E+02
     44.573  0.1736E+01  0.9409E+02
     44.890  0.2766E+01  0.9497E+02
     45.207  0.1493E+01  0.9544E+02
     45.525  0.4266E+00  0.9558E+02
     45.842  0.7333E+00  0.9581E+02
     46.160  0.1477E+00  0.9586E+02
     46.477  0.1625E+00  0.9591E+02
     46.794  0.2806E+00  0.9600E+02
     47.112  0.0000E+00  0.9600E+02
     47.429  0.0000E+00  0.9600E+02
     47.746  0.0000E+00  0.9600E+02
     48.064  0.0000E+00  0.9600E+02
     48.381  0.0000E+00  0.9600E+02
     48.698  0.0000E+00  0.9600E+02
     49.016  0.0000E+00  0.9600E+02
     49.333  0.0000E+00  0.9600E+02
     49.651  0.0000E+00  0.9600E+02
     49.968  0.0000E+00  0.9600E+02
     50.285  0.0000E+00  0.9600E+02
     50.603  0.0000E+00  0.9600E+02
     50.920  0.0000E+00  0.9600E+02
