    2    2    1    1
  0.2353172E+02  0.3236030E-09  0.3236030E-09  0.5189530E-09  0.5000000E-15
  1.000000000000000E-004
  CAR 
 Zr                                      
     24     50     48
 
  0.0000000E+00  0.0000000E+00  0.0000000E+00  0.1953125E-02
      1        -39.962553   1.000000
      2        -39.818322   1.000000
      3        -18.474324   1.000000
      4        -17.632055   1.000000
      5        -17.632048   1.000000
      6        -17.517076   1.000000
      7        -17.499940   1.000000
      8        -17.499927   1.000000
      9          3.285896   1.000000
     10          5.892010   1.000000
     11          9.753436   0.000000
     12          9.753436   0.000000
     13          9.830561   0.000000
     14          9.961364   0.000000
     15         10.420950   0.000000
     16         10.420955   0.000000
     17         11.043500   0.000000
     18         11.043503   0.000000
     19         13.269169   0.000000
     20         13.269174   0.000000
     21         17.917687   0.000000
     22         19.379392   0.000000
     23         20.965801   0.000000
     24         22.129312   0.000000
     25         25.528031   0.000000
     26         25.528032   0.000000
     27         25.630251   0.000000
     28         25.630253   0.000000
     29         26.147397   0.000000
     30         28.651459   0.000000
     31         28.651481   0.000000
     32         30.625976   0.000000
     33         30.625977   0.000000
     34         32.820507   0.000000
     35         33.702482   0.000000
     36         36.968504   0.000000
     37         36.968607   0.000000
     38         37.126232   0.000000
     39         37.126263   0.000000
     40         37.485874   0.000000
     41         39.906559   0.000000
     42         41.410388   0.000000
     43         41.410452   0.000000
     44         41.463431   0.000000
     45         41.841684   0.000000
     46         41.841802   0.000000
     47         44.700710   0.000000
     48         44.950264   0.000000
 
  0.1250000E+00  0.3571199E-17  0.0000000E+00  0.1171875E-01
      1        -39.946072   1.000000
      2        -39.811330   1.000000
      3        -18.429179   1.000000
      4        -17.733301   1.000000
      5        -17.664870   1.000000
      6        -17.604138   1.000000
      7        -17.536426   1.000000
      8        -17.514265   1.000000
      9          3.709366   1.000000
     10          6.271151   1.000000
     11          9.017362   0.027866
     12          9.213306   0.000000
     13         10.044454   0.000000
     14         10.152930   0.000000
     15         10.420585   0.000000
     16         10.665164   0.000000
     17         10.703213   0.000000
     18         10.795077   0.000000
     19         13.505562   0.000000
     20         14.392520   0.000000
     21         17.932585   0.000000
     22         20.378065   0.000000
     23         21.539901   0.000000
     24         22.850834   0.000000
     25         23.227584   0.000000
     26         24.019695   0.000000
     27         24.234803   0.000000
     28         26.014368   0.000000
     29         28.810348   0.000000
     30         29.284254   0.000000
     31         29.572885   0.000000
     32         30.047375   0.000000
     33         31.055802   0.000000
     34         31.589938   0.000000
     35         32.876640   0.000000
     36         34.215739   0.000000
     37         35.314952   0.000000
     38         37.364546   0.000000
     39         37.728150   0.000000
     40         38.292636   0.000000
     41         40.283700   0.000000
     42         40.444434   0.000000
     43         41.791324   0.000000
     44         41.926945   0.000000
     45         42.428775   0.000000
     46         43.342861   0.000000
     47         44.453719   0.000000
     48         44.579336   0.000000
 
  0.2500000E+00  0.7142398E-17  0.0000000E+00  0.1171875E-01
      1        -39.903610   1.000000
      2        -39.795647   1.000000
      3        -18.307230   1.000000
      4        -17.975643   1.000000
      5        -17.841597   1.000000
      6        -17.738576   1.000000
      7        -17.594748   1.000000
      8        -17.551846   1.000000
      9          4.794049   1.000000
     10          6.896517   1.000000
     11          7.976522   1.000000
     12          8.375464   1.000000
     13          9.553566   0.000000
     14         10.093988   0.000000
     15         10.147396   0.000000
     16         11.285574   0.000000
     17         11.338620   0.000000
     18         11.833655   0.000000
     19         13.848765   0.000000
     20         16.316485   0.000000
     21         17.589611   0.000000
     22         20.621040   0.000000
     23         20.845782   0.000000
     24         21.963448   0.000000
     25         23.490759   0.000000
     26         23.522931   0.000000
     27         24.703451   0.000000
     28         27.364666   0.000000
     29         27.365356   0.000000
     30         27.467988   0.000000
     31         28.512181   0.000000
     32         30.114564   0.000000
     33         31.825517   0.000000
     34         32.184154   0.000000
     35         33.180256   0.000000
     36         33.229662   0.000000
     37         35.178466   0.000000
     38         37.170110   0.000000
     39         38.526327   0.000000
     40         38.799786   0.000000
     41         39.714851   0.000000
     42         41.482899   0.000000
     43         41.730521   0.000000
     44         42.508993   0.000000
     45         42.567763   0.000000
     46         43.232817   0.000000
     47         43.713601   0.000000
     48         43.901969   0.000000
 
  0.3750000E+00 -0.5136368E-18  0.0000000E+00  0.1171875E-01
      1        -39.855382   1.000000
      2        -39.784664   1.000000
      3        -18.215432   1.000000
      4        -18.150854   1.000000
      5        -18.063525   1.000000
      6        -17.807638   1.000000
      7        -17.685567   1.000000
      8        -17.591584   1.000000
      9          5.917089   1.000000
     10          6.670770   1.000000
     11          7.080610   1.000000
     12          8.453495   1.000000
     13          9.627877   0.000000
     14          9.758722   0.000000
     15          9.944069   0.000000
     16         12.862364   0.000000
     17         12.879985   0.000000
     18         13.217273   0.000000
     19         14.034529   0.000000
     20         17.118586   0.000000
     21         18.050623   0.000000
     22         18.075228   0.000000
     23         19.650538   0.000000
     24         19.674073   0.000000
     25         22.175576   0.000000
     26         23.934942   0.000000
     27         25.183433   0.000000
     28         26.254496   0.000000
     29         28.414080   0.000000
     30         28.538515   0.000000
     31         29.662467   0.000000
     32         29.812531   0.000000
     33         31.067063   0.000000
     34         33.615196   0.000000
     35         34.071058   0.000000
     36         35.875346   0.000000
     37         36.490175   0.000000
     38         36.543483   0.000000
     39         36.660902   0.000000
     40         38.854661   0.000000
     41         38.905420   0.000000
     42         38.983594   0.000000
     43         42.053601   0.000000
     44         42.426102   0.000000
     45         42.738564   0.000000
     46         43.443481   0.000000
     47         44.224110   0.000000
     48         44.343783   0.000000
 
  0.5000000E+00  0.1428480E-16  0.0000000E+00  0.5859375E-02
      1        -39.831495   1.000000
      2        -39.784290   1.000000
      3        -18.313844   1.000000
      4        -18.152782   1.000000
      5        -18.058790   1.000000
      6        -17.835872   1.000000
      7        -17.751003   1.000000
      8        -17.608507   1.000000
      9          6.357216   1.000000
     10          6.409076   1.000000
     11          6.761571   1.000000
     12          8.675586   1.000000
     13          9.459101   0.000000
     14          9.617834   0.000000
     15         10.291898   0.000000
     16         13.751791   0.000000
     17         14.084167   0.000000
     18         14.135715   0.000000
     19         14.959003   0.000000
     20         15.266246   0.000000
     21         17.778087   0.000000
     22         18.328874   0.000000
     23         18.820334   0.000000
     24         19.255702   0.000000
     25         20.045303   0.000000
     26         23.698528   0.000000
     27         23.781777   0.000000
     28         26.918739   0.000000
     29         29.362438   0.000000
     30         30.512469   0.000000
     31         31.167413   0.000000
     32         31.235521   0.000000
     33         31.242126   0.000000
     34         32.777501   0.000000
     35         35.152192   0.000000
     36         35.735954   0.000000
     37         35.763345   0.000000
     38         35.771051   0.000000
     39         36.077338   0.000000
     40         37.897889   0.000000
     41         37.930855   0.000000
     42         39.440519   0.000000
     43         41.985338   0.000000
     44         42.067282   0.000000
     45         42.748936   0.000000
     46         42.872921   0.000000
     47         43.646669   0.000000
     48         44.700217   0.000000
 
  0.2500000E+00  0.1250000E+00  0.0000000E+00  0.1171875E-01
      1        -39.916310   1.000000
      2        -39.799809   1.000000
      3        -18.345169   1.000000
      4        -17.871647   1.000000
      5        -17.823372   1.000000
      6        -17.679260   1.000000
      7        -17.575053   1.000000
      8        -17.562405   1.000000
      9          4.479082   1.000000
     10          6.875460   1.000000
     11          8.335985   1.000000
     12          8.342077   1.000000
     13          9.668134   0.000000
     14          9.887621   0.000000
     15         10.625675   0.000000
     16         10.798392   0.000000
     17         10.994500   0.000000
     18         11.667090   0.000000
     19         13.655358   0.000000
     20         15.879656   0.000000
     21         17.739899   0.000000
     22         21.330606   0.000000
     23         21.854216   0.000000
     24         21.970858   0.000000
     25         22.388311   0.000000
     26         23.303746   0.000000
     27         24.266019   0.000000
     28         27.117476   0.000000
     29         27.616794   0.000000
     30         28.040413   0.000000
     31         30.613516   0.000000
     32         30.893908   0.000000
     33         30.914841   0.000000
     34         31.793456   0.000000
     35         32.148323   0.000000
     36         32.856989   0.000000
     37         35.638721   0.000000
     38         35.775542   0.000000
     39         37.929020   0.000000
     40         39.254638   0.000000
     41         40.231880   0.000000
     42         41.400205   0.000000
     43         41.847955   0.000000
     44         42.091428   0.000000
     45         42.385383   0.000000
     46         42.448967   0.000000
     47         44.650011   0.000000
     48         45.244078   0.000000
 
  0.3750000E+00  0.1250000E+00  0.0000000E+00  0.2343750E-01
      1        -39.870382   1.000000
      2        -39.786844   1.000000
      3        -18.202896   1.000000
      4        -18.094498   1.000000
      5        -18.004466   1.000000
      6        -17.790620   1.000000
      7        -17.652377   1.000000
      8        -17.627297   1.000000
      9          5.690144   1.000000
     10          7.163606   1.000000
     11          7.414046   1.000000
     12          8.037450   1.000000
     13          9.366381   0.000000
     14          9.639286   0.000000
     15         10.149346   0.000000
     16         11.638768   0.000000
     17         12.434697   0.000000
     18         13.148693   0.000000
     19         13.784005   0.000000
     20         17.406635   0.000000
     21         17.760188   0.000000
     22         19.038757   0.000000
     23         19.807168   0.000000
     24         20.653005   0.000000
     25         23.374649   0.000000
     26         23.628123   0.000000
     27         25.378651   0.000000
     28         26.226479   0.000000
     29         26.913681   0.000000
     30         28.902349   0.000000
     31         29.605937   0.000000
     32         30.062055   0.000000
     33         31.749640   0.000000
     34         32.930495   0.000000
     35         33.132483   0.000000
     36         33.917517   0.000000
     37         35.644293   0.000000
     38         35.735750   0.000000
     39         37.403318   0.000000
     40         38.052536   0.000000
     41         40.494069   0.000000
     42         41.345872   0.000000
     43         41.486909   0.000000
     44         42.452523   0.000000
     45         43.195192   0.000000
     46         43.347088   0.000000
     47         44.045652   0.000000
     48         44.888214   0.000000
 
  0.5000000E+00  0.1250000E+00  0.0000000E+00  0.2343750E-01
      1        -39.831558   1.000000
      2        -39.783982   1.000000
      3        -18.260773   1.000000
      4        -18.110146   1.000000
      5        -18.060945   1.000000
      6        -17.878388   1.000000
      7        -17.748540   1.000000
      8        -17.669230   1.000000
      9          6.548470   1.000000
     10          6.791887   1.000000
     11          6.867395   1.000000
     12          8.356733   1.000000
     13          9.256173   0.000000
     14          9.643246   0.000000
     15         10.243245   0.000000
     16         12.965421   0.000000
     17         13.574397   0.000000
     18         13.839234   0.000000
     19         14.711782   0.000000
     20         16.452054   0.000000
     21         17.675746   0.000000
     22         17.851354   0.000000
     23         19.212169   0.000000
     24         19.973086   0.000000
     25         21.134270   0.000000
     26         23.417867   0.000000
     27         23.804829   0.000000
     28         27.948690   0.000000
     29         28.512183   0.000000
     30         28.533151   0.000000
     31         30.920166   0.000000
     32         31.371111   0.000000
     33         31.376064   0.000000
     34         33.327550   0.000000
     35         34.650357   0.000000
     36         34.989307   0.000000
     37         35.516992   0.000000
     38         35.651895   0.000000
     39         36.886215   0.000000
     40         38.256925   0.000000
     41         39.113205   0.000000
     42         40.383792   0.000000
     43         40.837420   0.000000
     44         41.117545   0.000000
     45         42.652584   0.000000
     46         43.034362   0.000000
     47         43.579203   0.000000
     48         43.818700   0.000000
 
  0.5000000E+00  0.2500000E+00  0.0000000E+00  0.1171875E-01
      1        -39.831867   1.000000
      2        -39.783831   1.000000
      3        -18.170188   1.000000
      4        -18.098839   1.000000
      5        -18.063097   1.000000
      6        -17.898283   1.000000
      7        -17.760201   1.000000
      8        -17.746690   1.000000
      9          6.832149   1.000000
     10          6.992436   1.000000
     11          7.525497   1.000000
     12          7.651062   1.000000
     13          9.010822   0.041980
     14          9.703403   0.000000
     15         10.120776   0.000000
     16         12.182281   0.000000
     17         13.469342   0.000000
     18         13.609506   0.000000
     19         14.720405   0.000000
     20         16.692586   0.000000
     21         17.405887   0.000000
     22         18.106787   0.000000
     23         19.608076   0.000000
     24         21.016523   0.000000
     25         21.962805   0.000000
     26         22.874338   0.000000
     27         23.785356   0.000000
     28         26.942245   0.000000
     29         27.759000   0.000000
     30         30.560054   0.000000
     31         30.822815   0.000000
     32         31.520909   0.000000
     33         31.757812   0.000000
     34         31.932633   0.000000
     35         32.268838   0.000000
     36         35.236533   0.000000
     37         35.243748   0.000000
     38         35.757990   0.000000
     39         36.728582   0.000000
     40         38.696572   0.000000
     41         40.002540   0.000000
     42         41.169727   0.000000
     43         41.883523   0.000000
     44         42.148454   0.000000
     45         42.807006   0.000000
     46         43.423423   0.000000
     47         44.272851   0.000000
     48         44.373215   0.000000
 
 -0.3750000E+00  0.2500000E+00  0.0000000E+00  0.1171875E-01
      1        -39.809049   1.000000
      2        -39.789233   1.000000
      3        -18.210281   1.000000
      4        -18.056642   1.000000
      5        -18.006640   1.000000
      6        -17.959380   1.000000
      7        -17.830778   1.000000
      8        -17.823591   1.000000
      9          6.833186   1.000000
     10          7.288151   1.000000
     11          7.382952   1.000000
     12          7.960968   1.000000
     13          9.072521   0.000257
     14          9.306464   0.000000
     15         10.542892   0.000000
     16         12.923988   0.000000
     17         13.427752   0.000000
     18         13.535197   0.000000
     19         15.265839   0.000000
     20         15.554817   0.000000
     21         16.234318   0.000000
     22         19.439413   0.000000
     23         20.789434   0.000000
     24         21.095778   0.000000
     25         21.172982   0.000000
     26         22.276577   0.000000
     27         22.464247   0.000000
     28         27.517834   0.000000
     29         28.055027   0.000000
     30         29.354988   0.000000
     31         30.311550   0.000000
     32         31.433160   0.000000
     33         31.896209   0.000000
     34         33.090268   0.000000
     35         34.561892   0.000000
     36         34.859756   0.000000
     37         35.460933   0.000000
     38         37.212405   0.000000
     39         37.986940   0.000000
     40         38.457303   0.000000
     41         39.219428   0.000000
     42         39.799371   0.000000
     43         40.228808   0.000000
     44         42.352989   0.000000
     45         42.474889   0.000000
     46         43.072606   0.000000
     47         43.194385   0.000000
     48         43.788218   0.000000
 
 -0.4401908E-34 -0.4401908E-34  0.1250000E+00  0.3906250E-02
      1        -39.957286   1.000000
      2        -39.823931   1.000000
      3        -18.439937   1.000000
      4        -17.627243   1.000000
      5        -17.627239   1.000000
      6        -17.555618   1.000000
      7        -17.505493   1.000000
      8        -17.505484   1.000000
      9          3.413321   1.000000
     10          5.879512   1.000000
     11          9.689286   0.000000
     12          9.689287   0.000000
     13          9.728964   0.000000
     14          9.732707   0.000000
     15         10.327037   0.000000
     16         10.327039   0.000000
     17         11.233755   0.000000
     18         11.233757   0.000000
     19         13.302723   0.000000
     20         13.302727   0.000000
     21         18.349061   0.000000
     22         19.086992   0.000000
     23         21.597912   0.000000
     24         21.651088   0.000000
     25         24.348102   0.000000
     26         24.348104   0.000000
     27         26.833507   0.000000
     28         27.145681   0.000000
     29         27.145682   0.000000
     30         27.654677   0.000000
     31         27.654687   0.000000
     32         30.958600   0.000000
     33         31.567225   0.000000
     34         31.567243   0.000000
     35         35.477575   0.000000
     36         36.196682   0.000000
     37         36.981911   0.000000
     38         36.982016   0.000000
     39         37.065674   0.000000
     40         37.065692   0.000000
     41         39.526799   0.000000
     42         41.344076   0.000000
     43         41.344138   0.000000
     44         41.994274   0.000000
     45         41.994389   0.000000
     46         42.267529   0.000000
     47         44.249647   0.000000
     48         44.249658   0.000000
 
  0.1250000E+00  0.8388591E-17  0.1250000E+00  0.2343750E-01
      1        -39.940880   1.000000
      2        -39.816438   1.000000
      3        -18.399202   1.000000
      4        -17.726135   1.000000
      5        -17.659179   1.000000
      6        -17.636635   1.000000
      7        -17.543712   1.000000
      8        -17.519933   1.000000
      9          3.829545   1.000000
     10          6.267796   1.000000
     11          8.963468   0.348720
     12          9.040322   0.005196
     13          9.936664   0.000000
     14         10.030054   0.000000
     15         10.201084   0.000000
     16         10.641570   0.000000
     17         11.019479   0.000000
     18         11.053980   0.000000
     19         13.502567   0.000000
     20         14.215277   0.000000
     21         18.367093   0.000000
     22         20.075525   0.000000
     23         21.905352   0.000000
     24         22.263285   0.000000
     25         23.331310   0.000000
     26         23.872740   0.000000
     27         24.795644   0.000000
     28         26.451370   0.000000
     29         27.457544   0.000000
     30         29.140850   0.000000
     31         29.484383   0.000000
     32         30.602641   0.000000
     33         31.689195   0.000000
     34         31.806401   0.000000
     35         33.184845   0.000000
     36         33.857720   0.000000
     37         35.704683   0.000000
     38         36.943850   0.000000
     39         37.595469   0.000000
     40         38.206974   0.000000
     41         39.852105   0.000000
     42         40.249096   0.000000
     43         40.287482   0.000000
     44         42.817923   0.000000
     45         43.306399   0.000000
     46         43.678873   0.000000
     47         43.826874   0.000000
     48         44.950262   0.000000
 
  0.2500000E+00  0.1195979E-16  0.1250000E+00  0.2343750E-01
      1        -39.899405   1.000000
      2        -39.799627   1.000000
      3        -18.296466   1.000000
      4        -17.958098   1.000000
      5        -17.865225   1.000000
      6        -17.731335   1.000000
      7        -17.599019   1.000000
      8        -17.559009   1.000000
      9          4.877987   1.000000
     10          6.927991   1.000000
     11          7.847451   1.000000
     12          8.421334   1.000000
     13          9.435418   0.000000
     14         10.105097   0.000000
     15         10.123877   0.000000
     16         11.344225   0.000000
     17         11.491918   0.000000
     18         11.772239   0.000000
     19         13.781877   0.000000
     20         15.722661   0.000000
     21         18.094138   0.000000
     22         20.603501   0.000000
     23         21.172127   0.000000
     24         22.118973   0.000000
     25         22.975455   0.000000
     26         24.116812   0.000000
     27         24.950788   0.000000
     28         26.472602   0.000000
     29         27.237223   0.000000
     30         27.394954   0.000000
     31         28.666756   0.000000
     32         31.009959   0.000000
     33         31.081057   0.000000
     34         32.524516   0.000000
     35         32.775103   0.000000
     36         33.562862   0.000000
     37         36.093155   0.000000
     38         36.631600   0.000000
     39         38.115671   0.000000
     40         38.710604   0.000000
     41         39.152473   0.000000
     42         40.993770   0.000000
     43         41.166504   0.000000
     44         41.877168   0.000000
     45         42.507202   0.000000
     46         43.875696   0.000000
     47         44.217294   0.000000
     48         45.170699   0.000000
 
  0.3750000E+00  0.4303755E-17  0.1250000E+00  0.2343750E-01
      1        -39.852746   1.000000
      2        -39.787343   1.000000
      3        -18.269233   1.000000
      4        -18.113446   1.000000
      5        -18.051876   1.000000
      6        -17.799487   1.000000
      7        -17.679653   1.000000
      8        -17.599964   1.000000
      9          5.871800   1.000000
     10          6.676846   1.000000
     11          7.225134   1.000000
     12          8.307421   1.000000
     13          9.723680   0.000000
     14          9.738925   0.000000
     15         10.032185   0.000000
     16         12.865495   0.000000
     17         12.869567   0.000000
     18         13.044631   0.000000
     19         13.954667   0.000000
     20         16.402191   0.000000
     21         17.792803   0.000000
     22         18.940323   0.000000
     23         19.987160   0.000000
     24         20.047034   0.000000
     25         22.107785   0.000000
     26         23.997499   0.000000
     27         25.074660   0.000000
     28         25.937057   0.000000
     29         28.158032   0.000000
     30         28.773935   0.000000
     31         29.404363   0.000000
     32         30.467864   0.000000
     33         31.288958   0.000000
     34         32.961189   0.000000
     35         33.670362   0.000000
     36         34.774683   0.000000
     37         36.564142   0.000000
     38         37.478522   0.000000
     39         37.496018   0.000000
     40         38.632321   0.000000
     41         39.140983   0.000000
     42         39.592855   0.000000
     43         41.392689   0.000000
     44         41.479225   0.000000
     45         42.192391   0.000000
     46         43.386115   0.000000
     47         43.535158   0.000000
     48         44.695753   0.000000
 
  0.5000000E+00  0.1910219E-16  0.1250000E+00  0.1171875E-01
      1        -39.829532   1.000000
      2        -39.786149   1.000000
      3        -18.341145   1.000000
      4        -18.183696   1.000000
      5        -18.012736   1.000000
      6        -17.827421   1.000000
      7        -17.736146   1.000000
      8        -17.617131   1.000000
      9          6.130382   1.000000
     10          6.394142   1.000000
     11          7.177089   1.000000
     12          8.267954   1.000000
     13          9.566455   0.000000
     14         10.035726   0.000000
     15         10.187226   0.000000
     16         13.606154   0.000000
     17         13.863987   0.000000
     18         14.123881   0.000000
     19         14.754569   0.000000
     20         15.139866   0.000000
     21         17.714419   0.000000
     22         18.665145   0.000000
     23         18.783492   0.000000
     24         19.623503   0.000000
     25         20.346739   0.000000
     26         23.702747   0.000000
     27         23.799755   0.000000
     28         26.644428   0.000000
     29         29.411166   0.000000
     30         30.259884   0.000000
     31         31.056716   0.000000
     32         31.093198   0.000000
     33         31.809616   0.000000
     34         32.534288   0.000000
     35         34.652119   0.000000
     36         35.042570   0.000000
     37         35.782201   0.000000
     38         36.102837   0.000000
     39         36.314359   0.000000
     40         37.971865   0.000000
     41         38.777497   0.000000
     42         39.521081   0.000000
     43         40.969050   0.000000
     44         42.312206   0.000000
     45         42.431321   0.000000
     46         43.497682   0.000000
     47         43.655839   0.000000
     48         44.682934   0.000000
 
  0.2500000E+00  0.1250000E+00  0.1250000E+00  0.2343750E-01
      1        -39.911919   1.000000
      2        -39.804250   1.000000
      3        -18.326168   1.000000
      4        -17.858274   1.000000
      5        -17.835192   1.000000
      6        -17.693797   1.000000
      7        -17.576171   1.000000
      8        -17.568954   1.000000
      9          4.578866   1.000000
     10          6.897977   1.000000
     11          8.140312   1.000000
     12          8.385280   1.000000
     13          9.708660   0.000000
     14          9.773394   0.000000
     15         10.423546   0.000000
     16         10.890003   0.000000
     17         11.237034   0.000000
     18         11.674901   0.000000
     19         13.618858   0.000000
     20         15.431168   0.000000
     21         18.224799   0.000000
     22         21.271194   0.000000
     23         21.523566   0.000000
     24         22.207044   0.000000
     25         22.404598   0.000000
     26         23.931768   0.000000
     27         24.527767   0.000000
     28         26.381157   0.000000
     29         27.005843   0.000000
     30         28.629580   0.000000
     31         29.605309   0.000000
     32         30.831480   0.000000
     33         31.614260   0.000000
     34         31.946101   0.000000
     35         32.884748   0.000000
     36         33.116593   0.000000
     37         35.580835   0.000000
     38         36.116714   0.000000
     39         37.401632   0.000000
     40         38.544393   0.000000
     41         38.819379   0.000000
     42         40.551699   0.000000
     43         41.891985   0.000000
     44         42.176281   0.000000
     45         43.583014   0.000000
     46         43.724239   0.000000
     47         44.656342   0.000000
     48         45.423966   0.000000
 
  0.3750000E+00  0.1250000E+00  0.1250000E+00  0.4687500E-01
      1        -39.867281   1.000000
      2        -39.790129   1.000000
      3        -18.230417   1.000000
      4        -18.068826   1.000000
      5        -17.996484   1.000000
      6        -17.797911   1.000000
      7        -17.652784   1.000000
      8        -17.625926   1.000000