Zr                                      
           1
     3.236030    0.000000    0.000000
     1.618015    2.802484    0.000000
     0.000000    0.000000    5.189530
   Zr
     2
Direct configuration=     1
   0.00000000  0.00000000  0.00000000
   0.33333333  0.33333333  0.50000000
