F                                       
   1.00000000000000     
     6.120059    0.000000   -0.727106
     0.000000    3.685050    0.000000
     0.000000    0.000000    6.925430
   F 
     8
Direct
  0.255000  0.330300  0.094130
  0.745000  0.669700  0.905870
  0.745000  0.330300  0.405870
  0.255000  0.669700  0.594130
  0.755000  0.830300  0.094130
  0.245000  0.169700  0.905870
  0.245000  0.830300  0.405870
  0.755000  0.169700  0.594130
 
   72   48   80
  1.1131      1.1807      1.3870      1.7447      2.2814      3.0461      4.1141      5.5851      7.5748      10.199    
  13.559      17.721      22.691      28.380      34.548      40.762      46.407      50.772      53.210      53.325    
  51.096      46.883      41.315      35.108      28.896      23.133      18.078      13.837      10.406      7.7256    
  5.6968      4.2057      3.1387      2.3979      1.9112      1.6339      1.5436      1.6339      1.9112      2.3979    
  3.1387      4.2057      5.6968      7.7256      10.406      13.837      18.078      23.133      28.896      35.108    
  41.315      46.883      51.096      53.325      53.210      50.772      46.407      40.762      34.548      28.380    
  22.691      17.721      13.559      10.199      7.5748      5.5851      4.1141      3.0461      2.2814      1.7447    
  1.3870      1.1807      1.1186      1.2468      1.5210      1.9628      2.6130      3.5399      4.8453      6.6612    
  9.1403      12.441      16.713      22.079      28.602      36.218      44.636      53.264      61.208      67.404    
  70.878      71.026      67.816      61.799      53.931      45.285      36.787      29.065      22.434      16.975    
  12.627      9.2673      6.7465      4.9074      3.5995      2.6925      2.0870      1.7176      1.5472      1.5583    
  1.7472      2.1231      2.7128      3.5642      4.7466      6.3427      8.4343      11.085      14.321      18.115    
  22.360      26.846      31.245      35.128      38.032      39.554      39.468      37.788      34.766      30.814    
  26.398      21.936      17.741      14.009      10.836      8.2416      6.1946      4.6276      3.4569      2.5979    
  1.9785      1.5458      1.2672      1.1264      1.1349      1.3233      1.6670      2.1967      2.9679      4.0715    
  5.6393      7.8400      10.869      14.939      20.268      27.064      35.478      45.490      56.754      68.464    
  79.354      87.898      92.692      92.867      88.381      80.029      69.193      57.421      46.027      35.869    
  27.327      20.434      15.038      10.923      7.8642      5.6485      4.0821      2.9989      2.2699      1.8070    
  1.5573      1.4921      1.5980      1.8733      2.3295      2.9948      3.9140      5.1437      6.7409      8.7472    
  11.172      13.979      17.071      20.284      23.383      26.078      28.068      29.103      29.042      27.893    
  25.814      23.064      19.948      16.746      13.686      10.923      8.5431      6.5769      5.0095      3.7968    
  2.8801      2.2002      1.7078      1.3686      1.1632      1.0846      1.1610      1.4086      1.8219      2.4416    
  3.3390      4.6306      6.4810      9.0988      12.728      17.646      24.161      32.595      43.215      56.064    
  70.723      86.115      100.51      111.82      118.15      118.33      112.31      101.16      86.766      71.250    
  56.405      43.374      32.617      24.103      17.555      12.630      9.0065      6.4003      4.5684      3.3061    
  2.4534      1.8986      1.5726      1.4355      1.4652      1.6507      1.9921      2.5015      3.2039      4.1347    
  5.3315      6.8209      8.6048      10.649      12.876      15.160      17.334      19.202      20.568      21.274    
  21.232      20.447      19.018      17.110      14.921      12.641      10.434      8.4175      6.6630      5.1981    
  4.0173      3.0925      2.3848      1.8547      1.4710      1.2142      1.0756      1.0552      1.1956      1.5001    
  1.9822      2.6921      3.7187      5.2055      7.3528      10.410      14.673      20.495      28.288      38.513    
  51.573      67.580      86.020      105.48      123.71      137.99      145.92      146.03      138.29      124.06    
  105.75      86.098      67.436      51.242      38.073      27.823      20.067      14.313      10.121      7.1288    
  5.0368      3.6009      2.6298      1.9882      1.5910      1.3882      1.3494      1.4562      1.7002      2.0821    
  2.6114      3.3065      4.1900      5.2780      6.5684      8.0332      9.6147      11.223      12.739      14.030    
  14.968      15.451      15.424      14.889      13.909      12.590      11.062      9.4553      7.8833      6.4336    
  5.1600      4.0843      3.2054      2.5078      1.9676      1.5603      1.2681      1.0831      1.0046      1.0377    
  1.2372      1.5955      2.1441      2.9430      4.0990      5.7847      8.2355      11.742      16.653      23.400    
  32.511      44.592      60.193      79.492      101.85      125.47      147.52      164.69      174.14      174.06    
  164.44      147.06      124.78      100.93      78.383      58.979      43.376      31.391      22.444      15.886    
  11.154      7.7982      5.4646      3.8693      2.7907      2.0708      1.6100      1.3490      1.2503      1.2892    
  1.4518      1.7308      2.1247      2.6392      3.2856      4.0722      4.9941      6.0292      7.1371      8.2559    
  9.3037      10.190      10.830      11.160      11.144      10.781      10.113      9.2085      8.1537      7.0341    
  5.9288      4.9001      3.9865      3.2037      2.5538      2.0310      1.6226      1.3144      1.0983     0.97490    
 0.94948      1.0311      1.2839      1.6921      2.3038      3.1890      4.4730      6.3568      9.1103      13.062    
  18.613      26.268      36.670      50.572      68.666      91.186      117.34      144.94      170.55      190.46    
  201.25      200.77      189.05      168.39      142.32      114.54      88.384      66.005      48.157      34.582    
  24.550      17.266      12.051      8.3752      5.8310      4.0983      2.9280      2.1416      1.6267      1.3163    
  1.1668      1.1488      1.2440      1.4407      1.7300      2.1087      2.5804      3.1475      3.8030      4.5289    
  5.2975      6.0681      6.7852      7.3877      7.8213      8.0457      8.0367      7.7933      7.3416      6.7282    
  6.0078      5.2358      4.4653      3.7406      3.0884      2.5198      2.0394      1.6485      1.3426      1.1138    
 0.96025     0.88881     0.90941      1.0341      1.3339      1.7876      2.4580      3.4258      4.8344      6.9115    
  9.9590      14.340      20.499      29.011      40.622      56.221      76.637      102.15      131.82      163.04    
  191.89      214.13      225.80      224.56      210.65      186.77      157.14      125.89      96.647      71.777    
  52.072      37.188      26.263      18.382      12.770      8.8326      6.1190      4.2775      3.0351      2.1964    
  1.6385      1.2883      1.0978      1.0333      1.0741      1.2054      1.4141      1.6916      2.0364      2.4476    
  2.9161      3.4266      3.9599      4.4898      4.9792      5.3870      5.6792      5.8313      5.8277      5.6660    
  5.3631      4.9498      4.4606      3.9296      3.3922      2.8800      2.4122      1.9967      1.6396      1.3475    
  1.1205     0.95483     0.85213     0.82366     0.88312      1.0451      1.3854      1.8797      2.6040      3.6496    
  5.1773      7.4389      10.764      15.546      22.267      31.559      44.260      61.384      83.878      112.07    
  144.89      179.36      211.04      235.05      247.02      244.63      228.38      201.42      168.52      134.33    
  102.65      75.914      54.870      39.056      27.495      19.181      13.279      9.1527      6.3180      4.4002    
  3.1077      2.2322      1.6431      1.2632      1.0412     0.94093     0.93910      1.0193      1.1660      1.3681    
  1.6217      1.9235      2.2639      2.6287      3.0044      3.3740      3.7121      3.9911      4.1899      4.2946    
  4.2952      4.1885      3.9851      3.7056      3.3710      3.0017      2.6213      2.2533      1.9121      1.6039    
  1.3359      1.1170     0.95046     0.83408     0.77184     0.77790     0.86910      1.0626      1.4366      1.9665    
  2.7392      3.8567      5.4960      7.9293      11.510      16.656      23.881      33.867      47.531      65.991    
  90.300      120.83      156.40      193.73      227.78      253.07      264.86      260.91      242.10      212.13    
  176.30      139.65      106.20      78.273      56.451      40.120      28.204      19.641      13.567      9.3281    
  6.4241      4.4640      3.1440      2.2473      1.6390      1.2393     0.99521     0.86909     0.83586     0.87742    
 0.97741      1.1240      1.3123      1.5384      1.7925      2.0618      2.3360      2.6031      2.8455      3.0436    
  3.1843      3.2602      3.2644      3.1939      3.0552      2.8619      2.6268      2.3620      2.0839      1.8108    
  1.5543      1.3198      1.1149     0.94935     0.82743     0.74820     0.71693     0.74965     0.86568      1.0849    
  1.4857      2.0460      2.8610      4.0432      5.7838      8.3716      12.178      17.644      25.312      35.908    
  50.414      70.030      95.883      128.36      166.19      205.82      241.72      267.80      279.06      273.29    
  251.83      218.98      180.56      142.01      107.43      78.942      56.864      40.406      28.403      19.767    
  13.637      9.3622      6.4396      4.4707      3.1446      2.2416      1.6254      1.2152     0.95778     0.81509    
 0.76085     0.77541     0.84197     0.94917      1.0925      1.2678      1.4658      1.6753      1.8876      2.0937    
  2.2797      2.4311      2.5395      2.6003      2.6086      2.5617      2.4635      2.3234      2.1491      1.9485    
  1.7339      1.5203      1.3176      1.1311     0.96854     0.83931     0.74782     0.69422     0.68489     0.73685    
 0.87113      1.1101      1.5308      2.1158      2.9663      4.2042      6.0327      8.7526      12.750      18.485    
  26.530      37.653      52.887      73.482      100.58      134.53      173.92      215.01      251.94      278.18    
  288.56      280.98      257.13      221.87      181.46      141.70      106.66      78.168      56.272      40.006    
  28.141      19.588      13.507      9.2662      6.3723      4.4251      3.1125      2.2163      1.6022      1.1901    
 0.92731     0.77635     0.71057     0.70902     0.75458     0.83702     0.95266      1.0975      1.2628      1.4389    
  1.6185      1.7933      1.9513      2.0808      2.1754      2.2317      2.2454      2.2139      2.1401      2.0304    
  1.8900      1.7247      1.5453      1.3646      1.1915      1.0317     0.89295     0.78409     0.70934     0.66999    
 0.67364     0.73766     0.88388      1.1369      1.5702      2.1735      3.0515      4.3338      6.2326      9.0568    
  13.202      19.146      27.493      39.049      54.883      76.257      104.26      139.09      179.15      220.53    
  257.27      282.80      291.97      282.80      257.27      220.53      179.15      139.09      104.26      76.257    
  54.883      39.049      27.493      19.146      13.202      9.0568      6.2326      4.3338      3.0515      2.1735    
  1.5702      1.1639     0.90277     0.75088     0.68210     0.67466     0.71126     0.78296     0.88722      1.0200    
  1.1729      1.3374      1.5071      1.6739      1.8257      1.9521      2.0475      2.1081      2.1292      2.1081    
  2.0475      1.9521      1.8257      1.6739      1.5071      1.3374      1.1729      1.0200     0.88722     0.78296    
 0.71126     0.67466     0.68210     0.75088     0.90277      1.1639      1.6022      2.2163      3.1125      4.4251    
  6.3723      9.2662      13.507      19.588      28.141      40.006      56.272      78.168      106.66      141.70    
  181.46      221.87      257.13      280.98      288.56      278.18      251.94      215.01      173.92      134.53    
  100.58      73.482      52.887      37.653      26.530      18.485      12.750      8.7526      6.0327      4.2042    
  2.9663      2.1158      1.5308      1.1369     0.88388     0.73766     0.67364     0.66999     0.70934     0.78409    
 0.89295      1.0317      1.1915      1.3646      1.5453      1.7247      1.8900      2.0304      2.1401      2.2139    
  2.2454      2.2317      2.1754      2.0808      1.9513      1.7933      1.6185      1.4389      1.2628      1.0975    
 0.95266     0.83702     0.75458     0.70902     0.71057     0.77635     0.92731      1.1901      1.6254      2.2416    
  3.1446      4.4707      6.4396      9.3622      13.637      19.767      28.403      40.406      56.864      78.942    
  107.43      142.01      180.56      218.98      251.83      273.29      279.06      267.80      241.72      205.82    
  166.19      128.36      95.883      70.030      50.414      35.908      25.312      17.644      12.178      8.3716    
  5.7838      4.0432      2.8610      2.0460      1.4857      1.1101     0.87113     0.73685     0.68489     0.69422    
 0.74782     0.83931     0.96854      1.1311      1.3176      1.5203      1.7339      1.9485      2.1491      2.3234    
  2.4635      2.5617      2.6086      2.6003      2.5395      2.4311      2.2797      2.0937      1.8876      1.6753    
  1.4658      1.2678      1.0925     0.94917     0.84197     0.77541     0.76085     0.81509     0.95778      1.2152    
  1.6390      2.2473      3.1440      4.4640      6.4241      9.3281      13.567      19.641      28.204      40.120    
  56.451      78.273      106.20      139.65      176.30      212.13      242.10      260.91      264.86      253.07    
  227.78      193.73      156.40      120.83      90.300      65.991      47.531      33.867      23.881      16.656    
  11.510      7.9293      5.4960      3.8567      2.7392      1.9665      1.4366      1.0849     0.86568     0.74965    
 0.71693     0.74820     0.82743     0.94935      1.1149      1.3198      1.5543      1.8108      2.0839      2.3620    
  2.6268      2.8619      3.0552      3.1939      3.2644      3.2602      3.1843      3.0436      2.8455      2.6031    
  2.3360      2.0618      1.7925      1.5384      1.3123      1.1240     0.97741     0.87742     0.83586     0.86909    
 0.99521      1.2393      1.6431      2.2322      3.1077      4.4002      6.3180      9.1527      13.279      19.181    
  27.495      39.056      54.870      75.914      102.65      134.33      168.52      201.42      228.38      244.63    
  247.02      235.05      211.04      179.36      144.89      112.07      83.878      61.384      44.260      31.559    
  22.267      15.546      10.764      7.4389      5.1773      3.6496      2.6040      1.8797      1.3854      1.0626    
 0.86910     0.77790     0.77184     0.83408     0.95046      1.1170      1.3359      1.6039      1.9121      2.2533    
  2.6213      3.0017      3.3710      3.7056      3.9851      4.1885      4.2952      4.2946      4.1899      3.9911    
  3.7121      3.3740      3.0044      2.6287      2.2639      1.9235      1.6217      1.3681      1.1660      1.0193    
 0.93910     0.94093      1.0412      1.2632      1.6385      2.1964      3.0351      4.2775      6.1190      8.8326    
  12.770      18.382      26.263      37.188      52.072      71.777      96.647      125.89      157.14      186.77    
  210.65      224.56      225.80      214.13      191.89      163.04      131.82      102.15      76.637      56.221    
  40.622      29.011      20.499      14.340      9.9590      6.9115      4.8344      3.4258      2.4580      1.7876    
  1.3339      1.0451     0.88312     0.82366     0.85213     0.95483      1.1205      1.3475      1.6396      1.9967    
  2.4122      2.8800      3.3922      3.9296      4.4606      4.9498      5.3631      5.6660      5.8277      5.8313    
  5.6792      5.3870      4.9792      4.4898      3.9599      3.4266      2.9161      2.4476      2.0364      1.6916    
  1.4141      1.2054      1.0741      1.0333      1.0978      1.2883      1.6267      2.1416      2.9280      4.0983    
  5.8310      8.3752      12.051      17.266      24.550      34.582      48.157      66.005      88.384      114.54    
  142.32      168.39      189.05      200.77      201.25      190.46      170.55      144.94      117.34      91.186    
  68.666      50.572      36.670      26.268      18.613      13.062      9.1103      6.3568      4.4730      3.1890    
  2.3038      1.6921      1.2839      1.0341     0.90941     0.88881     0.96025      1.1138      1.3426      1.6485    
  2.0394      2.5198      3.0884      3.7406      4.4653      5.2358      6.0078      6.7282      7.3416      7.7933    
  8.0367      8.0457      7.8213      7.3877      6.7852      6.0681      5.2975      4.5289      3.8030      3.1475    
  2.5804      2.1087      1.7300      1.4407      1.2440      1.1488      1.1668      1.3163      1.6100      2.0708    
  2.7907      3.8693      5.4646      7.7982      11.154      15.886      22.444      31.391      43.376      58.979    
  78.383      100.93      124.78      147.06      164.44      174.06      174.14      164.69      147.52      125.47    
  101.85      79.492      60.193      44.592      32.511      23.400      16.653      11.742      8.2355      5.7847    
  4.0990      2.9430      2.1441      1.5955      1.2372      1.0311     0.94948     0.97490      1.0983      1.3144    
  1.6226      2.0310      2.5538      3.2037      3.9865      4.9001      5.9288      7.0341      8.1537      9.2085    
  10.113      10.781      11.144      11.160      10.830      10.190      9.3037      8.2559      7.1371      6.0292    
  4.9941      4.0722      3.2856      2.6392      2.1247      1.7308      1.4518      1.2892      1.2503      1.3490    
  1.5910      1.9882      2.6298      3.6009      5.0368      7.1288      10.121      14.313      20.067      27.823    
  38.073      51.242      67.436      86.098      105.75      124.06      138.29      146.03      145.92      137.99    
  123.71      105.48      86.020      67.580      51.573      38.513      28.288      20.495      14.673      10.410    
  7.3528      5.2055      3.7187      2.6921      1.9822      1.5001      1.1956      1.0377      1.0046      1.0831    
  1.2681      1.5603      1.9676      2.5078      3.2054      4.0843      5.1600      6.4336      7.8833      9.4553    
  11.062      12.590      13.909      14.889      15.424      15.451      14.968      14.030      12.739      11.223    
  9.6147      8.0332      6.5684      5.2780      4.1900      3.3065      2.6114      2.0821      1.7002      1.4562    
  1.3494      1.3882      1.5726      1.8986      2.4534      3.3061      4.5684      6.4003      9.0065      12.630    
  17.555      24.103      32.617      43.374      56.405      71.250      86.766      101.16      112.31      118.33    
  118.15      111.82      100.51      86.115      70.723      56.064      43.215      32.595      24.161      17.646    
  12.728      9.0988      6.4810      4.6306      3.3390      2.4416      1.8219      1.4086      1.1610      1.0552    
  1.0756      1.2142      1.4710      1.8547      2.3848      3.0925      4.0173      5.1981      6.6630      8.4175    
  10.434      12.641      14.921      17.110      19.018      20.447      21.232      21.274      20.568      19.202    
  17.334      15.160      12.876      10.649      8.6048      6.8209      5.3315      4.1347      3.2039      2.5015    
  1.9921      1.6507      1.4652      1.4355      1.5573      1.8070      2.2699      2.9989      4.0821      5.6485    
  7.8642      10.923      15.038      20.434      27.327      35.869      46.027      57.421      69.193      80.029    
  88.381      92.867      92.692      87.898      79.354      68.464      56.754      45.490      35.478      27.064    
  20.268      14.939      10.869      7.8400      5.6393      4.0715      2.9679      2.1967      1.6670      1.3233    
  1.1349      1.0846      1.1632      1.3686      1.7078      2.2002      2.8801      3.7968      5.0095      6.5769    
  8.5431      10.923      13.686      16.746      19.948      23.064      25.814      27.893      29.042      29.103    
  28.068      26.078      23.383      20.284      17.071      13.979      11.172      8.7472      6.7409      5.1437    
  3.9140      2.9948      2.3295      1.8733      1.5980      1.4921      1.5472      1.7176      2.0870      2.6925    
  3.5995      4.9074      6.7465      9.2673      12.627      16.975      22.434      29.065      36.787      45.285    
  53.931      61.799      67.816      71.026      70.878      67.404      61.208      53.264      44.636      36.218    
  28.602      22.079      16.713      12.441      9.1403      6.6612      4.8453      3.5399      2.6130      1.9628    
  1.5210      1.2468      1.1186      1.1264      1.2672      1.5458      1.9785      2.5979      3.4569      4.6276    
  6.1946      8.2416      10.836      14.009      17.741      21.936      26.398      30.814      34.766      37.788    
  39.468      39.554      38.032      35.128      31.245      26.846      22.360      18.115      14.321      11.085    
  8.4343      6.3427      4.7466      3.5642      2.7128      2.1231      1.7472      1.5583      1.5436      1.6339    
  1.9112      2.3979      3.1387      4.2057      5.6968      7.7256      10.406      13.837      18.078      23.133    
  28.896      35.108      41.315      46.883      51.096      53.325      53.210      50.772      46.407      40.762    
  34.548      28.380      22.691      17.721      13.559      10.199      7.5748      5.5851      4.1141      3.0461    
  2.2814      1.7447      1.3870      1.1807      1.1131      1.1807      1.3870      1.7447      2.2814      3.0461    
  4.1141      5.5851      7.5748      10.199      13.559      17.721      22.691      28.380      34.548      40.762    
  46.407      50.772      53.210      53.325      51.096      46.883      41.315      35.108      28.896      23.133    
  18.078      13.837      10.406      7.7256      5.6968      4.2057      3.1387      2.3979      1.9112      1.6339    
  1.5472      1.5583      1.7472      2.1231      2.7128      3.5642      4.7466      6.3427      8.4343      11.085    
  14.321      18.115      22.360      26.846      31.245      35.128      38.032      39.554      39.468      37.788    
  34.766      30.814      26.398      21.936      17.741      14.009      10.836      8.2416      6.1946      4.6276    
  3.4569      2.5979      1.9785      1.5458      1.2672      1.1264      1.1186      1.2468      1.5210      1.9628    
  2.6130      3.5399      4.8453      6.6612      9.1403      12.441      16.713      22.079      28.602      36.218    
  44.636      53.264      61.208      67.404      70.878      71.026      67.816      61.799      53.931      45.285    
  36.787      29.065      22.434      16.975      12.627      9.2673      6.7465      4.9074      3.5995      2.6925    
  2.0870      1.7176      1.5573      1.4921      1.5980      1.8733      2.3295      2.9948      3.9140      5.1437    
  6.7409      8.7472      11.172      13.979      17.071      20.284      23.383      26.078      28.068      29.103    
  29.042      27.893      25.814      23.064      19.948      16.746      13.686      10.923      8.5431      6.5769    
  5.0095      3.7968      2.8801      2.2002      1.7078      1.3686      1.1632      1.0846      1.1349      1.3233    
  1.6670      2.1967      2.9679      4.0715      5.6393      7.8400      10.869      14.939      20.268      27.064    
  35.478      45.490      56.754      68.464      79.354      87.898      92.692      92.867      88.381      80.029    
  69.193      57.421      46.027      35.869      27.327      20.434      15.038      10.923      7.8642      5.6485    
  4.0821      2.9989      2.2699      1.8070      1.5726      1.4355      1.4652      1.6507      1.9921      2.5015    
  3.2039      4.1347      5.3315      6.8209      8.6048      10.649      12.876      15.160      17.334      19.202    
  20.568      21.274      21.232      20.447      19.018      17.110      14.921      12.641      10.434      8.4175    
  6.6630      5.1981      4.0173      3.0925      2.3848      1.8547      1.4710      1.2142      1.0756      1.0552    
  1.1610      1.4086      1.8219      2.4416      3.3390      4.6306      6.4810      9.0988      12.728      17.646    
  24.161      32.595      43.215      56.064      70.723      86.115      100.51      111.82      118.15      118.33    
  112.31      101.16      86.766      71.250      56.405      43.374      32.617      24.103      17.555      12.630    
  9.0065      6.4003      4.5684      3.3061      2.4534      1.8986      1.5910      1.3882      1.3494      1.4562    
  1.7002      2.0821      2.6114      3.3065      4.1900      5.2780      6.5684      8.0332      9.6147      11.223    
  12.739      14.030      14.968      15.451      15.424      14.889      13.909      12.590      11.062      9.4553    
  7.8833      6.4336      5.1600      4.0843      3.2054      2.5078      1.9676      1.5603      1.2681      1.0831    
  1.0046      1.0377      1.1956      1.5001      1.9822      2.6921      3.7187      5.2055      7.3528      10.410    
  14.673      20.495      28.288      38.513      51.573      67.580      86.020      105.48      123.71      137.99    
  145.92      146.03      138.29      124.06      105.75      86.098      67.436      51.242      38.073      27.823    
  20.067      14.313      10.121      7.1288      5.0368      3.6009      2.6298      1.9882      1.6100      1.3490    
  1.2503      1.2892      1.4518      1.7308      2.1247      2.6392      3.2856      4.0722      4.9941      6.0292    
  7.1371      8.2559      9.3037      10.190      10.830      11.160      11.144      10.781      10.113      9.2085    
  8.1537      7.0341      5.9288      4.9001      3.9865      3.2037      2.5538      2.0310      1.6226      1.3144    
  1.0983     0.97490     0.94948      1.0311      1.2372      1.5955      2.1441      2.9430      4.0990      5.7847    
  8.2355      11.742      16.653      23.400      32.511      44.592      60.193      79.492      101.85      125.47    
  147.52      164.69      174.14      174.06      164.44      147.06      124.78      100.93      78.383      58.979    
  43.376      31.391      22.444      15.886      11.154      7.7982      5.4646      3.8693      2.7907      2.0708    
  1.6267      1.3163      1.1668      1.1488      1.2440      1.4407      1.7300      2.1087      2.5804      3.1475    
  3.8030      4.5289      5.2975      6.0681      6.7852      7.3877      7.8213      8.0457      8.0367      7.7933    
  7.3416      6.7282      6.0078      5.2358      4.4653      3.7406      3.0884      2.5198      2.0394      1.6485    
  1.3426      1.1138     0.96025     0.88881     0.90941      1.0341      1.2839      1.6921      2.3038      3.1890    
  4.4730      6.3568      9.1103      13.062      18.613      26.268      36.670      50.572      68.666      91.186    
  117.34      144.94      170.55      190.46      201.25      200.77      189.05      168.39      142.32      114.54    
  88.384      66.005      48.157      34.582      24.550      17.266      12.051      8.3752      5.8310      4.0983    
  2.9280      2.1416      1.6385      1.2883      1.0978      1.0333      1.0741      1.2054      1.4141      1.6916    
  2.0364      2.4476      2.9161      3.4266      3.9599      4.4898      4.9792      5.3870      5.6792      5.8313    
  5.8277      5.6660      5.3631      4.9498      4.4606      3.9296      3.3922      2.8800      2.4122      1.9967    
  1.6396      1.3475      1.1205     0.95483     0.85213     0.82366     0.88312      1.0451      1.3339      1.7876    
  2.4580      3.4258      4.8344      6.9115      9.9590      14.340      20.499      29.011      40.622      56.221    
  76.637      102.15      131.82      163.04      191.89      214.13      225.80      224.56      210.65      186.77    
  157.14      125.89      96.647      71.777      52.072      37.188      26.263      18.382      12.770      8.8326    
  6.1190      4.2775      3.0351      2.1964      1.6431      1.2632      1.0412     0.94093     0.93910      1.0193    
  1.1660      1.3681      1.6217      1.9235      2.2639      2.6287      3.0044      3.3740      3.7121      3.9911    
  4.1899      4.2946      4.2952      4.1885      3.9851      3.7056      3.3710      3.0017      2.6213      2.2533    
  1.9121      1.6039      1.3359      1.1170     0.95046     0.83408     0.77184     0.77790     0.86910      1.0626    
  1.3854      1.8797      2.6040      3.6496      5.1773      7.4389      10.764      15.546      22.267      31.559    
  44.260      61.384      83.878      112.07      144.89      179.36      211.04      235.05      247.02      244.63    
  228.38      201.42      168.52      134.33      102.65      75.914      54.870      39.056      27.495      19.181    
  13.279      9.1527      6.3180      4.4002      3.1077      2.2322      1.6390      1.2393     0.99521     0.86909    
 0.83586     0.87742     0.97741      1.1240      1.3123      1.5384      1.7925      2.0618      2.3360      2.6031    
  2.8455      3.0436      3.1843      3.2602      3.2644      3.1939      3.0552      2.8619      2.6268      2.3620    
  2.0839      1.8108      1.5543      1.3198      1.1149     0.94935     0.82743     0.74820     0.71693     0.74965    
 0.86568      1.0849      1.4366      1.9665      2.7392      3.8567      5.4960      7.9293      11.510      16.656    
  23.881      33.867      47.531      65.991      90.300      120.83      156.40      193.73      227.78      253.07    
  264.86      260.91      242.10      212.13      176.30      139.65      106.20      78.273      56.451      40.120    