   8   8   0   0
  0.1952341E+02  0.6163100E-09  0.3685050E-09  0.6925430E-09  0.5000000E-15
  1.000000000000000E-004
  CAR 
 F                                       
     24.66764351    -33.31232835  301     -5.82015836      1.00000000
    -33.312  0.0000E+00  0.0000E+00
    -33.119  0.0000E+00  0.0000E+00
    -32.926  0.0000E+00  0.0000E+00
    -32.733  0.0000E+00  0.0000E+00
    -32.539  0.0000E+00  0.0000E+00
    -32.346  0.0000E+00  0.0000E+00
    -32.153  0.0000E+00  0.0000E+00
    -31.959  0.0000E+00  0.0000E+00
    -31.766  0.0000E+00  0.0000E+00
    -31.573  0.0000E+00  0.0000E+00
    -31.380  0.0000E+00  0.0000E+00
    -31.186  0.0000E+00  0.0000E+00
    -30.993  0.0000E+00  0.0000E+00
    -30.800  0.1678E-03  0.3242E-04
    -30.607  0.2276E+02  0.4399E+01
    -30.413  0.1863E+02  0.8000E+01
    -30.220  0.6252E-05  0.8000E+01
    -30.027  0.0000E+00  0.8000E+01
    -29.834  0.0000E+00  0.8000E+01
    -29.640  0.0000E+00  0.8000E+01
    -29.447  0.0000E+00  0.8000E+01
    -29.254  0.0000E+00  0.8000E+01
    -29.060  0.0000E+00  0.8000E+01
    -28.867  0.0000E+00  0.8000E+01
    -28.674  0.0000E+00  0.8000E+01
    -28.481  0.0000E+00  0.8000E+01
    -28.287  0.0000E+00  0.8000E+01
    -28.094  0.0000E+00  0.8000E+01
    -27.901  0.0000E+00  0.8000E+01
    -27.708  0.0000E+00  0.8000E+01
    -27.514  0.0000E+00  0.8000E+01
    -27.321  0.0000E+00  0.8000E+01
    -27.128  0.0000E+00  0.8000E+01
    -26.935  0.0000E+00  0.8000E+01
    -26.741  0.0000E+00  0.8000E+01
    -26.548  0.0000E+00  0.8000E+01
    -26.355  0.0000E+00  0.8000E+01
    -26.161  0.0000E+00  0.8000E+01
    -25.968  0.0000E+00  0.8000E+01
    -25.775  0.0000E+00  0.8000E+01
    -25.582  0.0000E+00  0.8000E+01
    -25.388  0.0000E+00  0.8000E+01
    -25.195  0.0000E+00  0.8000E+01
    -25.002  0.0000E+00  0.8000E+01
    -24.809  0.1174E-05  0.8000E+01
    -24.615  0.4139E+01  0.8800E+01
    -24.422  0.3556E+02  0.1567E+02
    -24.229  0.1697E+01  0.1600E+02
    -24.036  0.8429E-08  0.1600E+02
    -23.842  0.0000E+00  0.1600E+02
    -23.649  0.0000E+00  0.1600E+02
    -23.456  0.0000E+00  0.1600E+02
    -23.262  0.0000E+00  0.1600E+02
    -23.069  0.0000E+00  0.1600E+02
    -22.876  0.0000E+00  0.1600E+02
    -22.683  0.0000E+00  0.1600E+02
    -22.489  0.0000E+00  0.1600E+02
    -22.296  0.0000E+00  0.1600E+02
    -22.103  0.0000E+00  0.1600E+02
    -21.910  0.0000E+00  0.1600E+02
    -21.716  0.0000E+00  0.1600E+02
    -21.523  0.0000E+00  0.1600E+02
    -21.330  0.0000E+00  0.1600E+02
    -21.137  0.0000E+00  0.1600E+02
    -20.943  0.0000E+00  0.1600E+02
    -20.750  0.0000E+00  0.1600E+02
    -20.557  0.0000E+00  0.1600E+02
    -20.363  0.0000E+00  0.1600E+02
    -20.170  0.0000E+00  0.1600E+02
    -19.977  0.0000E+00  0.1600E+02
    -19.784  0.0000E+00  0.1600E+02
    -19.590  0.0000E+00  0.1600E+02
    -19.397  0.0000E+00  0.1600E+02
    -19.204  0.0000E+00  0.1600E+02
    -19.011  0.0000E+00  0.1600E+02
    -18.817  0.0000E+00  0.1600E+02
    -18.624  0.0000E+00  0.1600E+02
    -18.431  0.0000E+00  0.1600E+02
    -18.238  0.0000E+00  0.1600E+02
    -18.044  0.0000E+00  0.1600E+02
    -17.851  0.0000E+00  0.1600E+02
    -17.658  0.0000E+00  0.1600E+02
    -17.464  0.0000E+00  0.1600E+02
    -17.271  0.0000E+00  0.1600E+02
    -17.078  0.0000E+00  0.1600E+02
    -16.885  0.0000E+00  0.1600E+02
    -16.691  0.0000E+00  0.1600E+02
    -16.498  0.0000E+00  0.1600E+02
    -16.305  0.0000E+00  0.1600E+02
    -16.112  0.0000E+00  0.1600E+02
    -15.918  0.0000E+00  0.1600E+02
    -15.725  0.0000E+00  0.1600E+02
    -15.532  0.0000E+00  0.1600E+02
    -15.339  0.0000E+00  0.1600E+02
    -15.145  0.0000E+00  0.1600E+02
    -14.952  0.0000E+00  0.1600E+02
    -14.759  0.0000E+00  0.1600E+02
    -14.565  0.0000E+00  0.1600E+02
    -14.372  0.0000E+00  0.1600E+02
    -14.179  0.0000E+00  0.1600E+02
    -13.986  0.0000E+00  0.1600E+02
    -13.792  0.0000E+00  0.1600E+02
    -13.599  0.0000E+00  0.1600E+02
    -13.406  0.0000E+00  0.1600E+02
    -13.213  0.0000E+00  0.1600E+02
    -13.019  0.0000E+00  0.1600E+02
    -12.826  0.0000E+00  0.1600E+02
    -12.633  0.1437E-12  0.1600E+02
    -12.440  0.2269E-01  0.1600E+02
    -12.246  0.8057E+01  0.1756E+02
    -12.053  0.2198E+02  0.2181E+02
    -11.860  0.1104E+02  0.2394E+02
    -11.666  0.3018E+00  0.2400E+02
    -11.473  0.1099E-09  0.2400E+02
    -11.280  0.0000E+00  0.2400E+02
    -11.087  0.0000E+00  0.2400E+02
    -10.893  0.0000E+00  0.2400E+02
    -10.700  0.0000E+00  0.2400E+02
    -10.507  0.0000E+00  0.2400E+02
    -10.314  0.0000E+00  0.2400E+02
    -10.120  0.9641E-17  0.2400E+02
     -9.927  0.3393E-03  0.2400E+02
     -9.734  0.1927E+01  0.2437E+02
     -9.541  0.2615E+02  0.2943E+02
     -9.347  0.3446E+02  0.3609E+02
     -9.154  0.2024E+02  0.4000E+02
     -8.961  0.6561E-02  0.4000E+02
     -8.767  0.0000E+00  0.4000E+02
     -8.574  0.0000E+00  0.4000E+02
     -8.381  0.0000E+00  0.4000E+02
     -8.188  0.0000E+00  0.4000E+02
     -7.994  0.0000E+00  0.4000E+02
     -7.801  0.0000E+00  0.4000E+02
     -7.608  0.0000E+00  0.4000E+02
     -7.415  0.0000E+00  0.4000E+02
     -7.221  0.0000E+00  0.4000E+02
     -7.028  0.0000E+00  0.4000E+02
     -6.835  0.0000E+00  0.4000E+02
     -6.642  0.6485E-08  0.4000E+02
     -6.448  0.3552E+00  0.4007E+02
     -6.255  0.2578E+02  0.4505E+02
     -6.062  0.5442E+02  0.5557E+02
     -5.868  0.2230E+01  0.5600E+02
     -5.675  0.4702E-08  0.5600E+02
     -5.482  0.0000E+00  0.5600E+02
     -5.289  0.0000E+00  0.5600E+02
     -5.095  0.0000E+00  0.5600E+02
     -4.902  0.0000E+00  0.5600E+02
     -4.709  0.0000E+00  0.5600E+02
     -4.516  0.0000E+00  0.5600E+02
     -4.322  0.0000E+00  0.5600E+02
     -4.129  0.0000E+00  0.5600E+02
     -3.936  0.0000E+00  0.5600E+02
     -3.743  0.0000E+00  0.5600E+02
     -3.549  0.3324E-18  0.5600E+02
     -3.356  0.1132E-03  0.5600E+02
     -3.163  0.1500E+01  0.5629E+02
     -2.969  0.1002E+02  0.5823E+02
     -2.776  0.1933E+02  0.6196E+02
     -2.583  0.1026E+02  0.6394E+02
     -2.390  0.2924E+00  0.6400E+02
     -2.196  0.2178E-09  0.6400E+02
     -2.003  0.0000E+00  0.6400E+02
     -1.810  0.0000E+00  0.6400E+02
     -1.617  0.0000E+00  0.6400E+02
     -1.423  0.0000E+00  0.6400E+02
     -1.230  0.0000E+00  0.6400E+02
     -1.037  0.0000E+00  0.6400E+02
     -0.844  0.0000E+00  0.6400E+02
     -0.650  0.0000E+00  0.6400E+02
     -0.457  0.0000E+00  0.6400E+02
     -0.264  0.0000E+00  0.6400E+02
     -0.070  0.0000E+00  0.6400E+02
      0.123  0.0000E+00  0.6400E+02
      0.316  0.0000E+00  0.6400E+02
      0.509  0.0000E+00  0.6400E+02
      0.703  0.0000E+00  0.6400E+02
      0.896  0.0000E+00  0.6400E+02
      1.089  0.0000E+00  0.6400E+02
      1.282  0.0000E+00  0.6400E+02
      1.476  0.0000E+00  0.6400E+02
      1.669  0.0000E+00  0.6400E+02
      1.862  0.0000E+00  0.6400E+02
      2.055  0.0000E+00  0.6400E+02
      2.249  0.0000E+00  0.6400E+02
      2.442  0.8838E-07  0.6400E+02
      2.635  0.3028E-01  0.6401E+02
      2.829  0.2922E+00  0.6406E+02
      3.022  0.4430E+00  0.6415E+02
      3.215  0.6232E+00  0.6427E+02
      3.408  0.6765E+00  0.6440E+02
      3.602  0.9659E+00  0.6459E+02
      3.795  0.9061E+00  0.6476E+02
      3.988  0.1061E+01  0.6497E+02
      4.181  0.1203E+01  0.6520E+02
      4.375  0.1339E+01  0.6546E+02
      4.568  0.1437E+01  0.6574E+02
      4.761  0.1401E+01  0.6601E+02
      4.954  0.1743E+01  0.6634E+02
      5.148  0.1897E+01  0.6671E+02
      5.341  0.1810E+01  0.6706E+02
      5.534  0.1952E+01  0.6744E+02
      5.728  0.2149E+01  0.6785E+02
      5.921  0.2165E+01  0.6827E+02
      6.114  0.2401E+01  0.6873E+02
      6.307  0.2447E+01  0.6921E+02
      6.501  0.2735E+01  0.6974E+02
      6.694  0.2832E+01  0.7028E+02
      6.887  0.2921E+01  0.7085E+02
      7.080  0.2757E+01  0.7138E+02
      7.274  0.2740E+01  0.7191E+02
      7.467  0.3009E+01  0.7249E+02
      7.660  0.2775E+01  0.7303E+02
      7.853  0.3362E+01  0.7368E+02
      8.047  0.3201E+01  0.7430E+02
      8.240  0.3620E+01  0.7500E+02
      8.433  0.4008E+01  0.7577E+02
      8.627  0.3730E+01  0.7649E+02
      8.820  0.3481E+01  0.7716E+02
      9.013  0.3093E+01  0.7776E+02
      9.206  0.3351E+01  0.7841E+02
      9.400  0.3631E+01  0.7911E+02
      9.593  0.3299E+01  0.7975E+02
      9.786  0.3596E+01  0.8044E+02
      9.979  0.3464E+01  0.8111E+02
     10.173  0.3727E+01  0.8183E+02
     10.366  0.3775E+01  0.8256E+02
     10.559  0.3306E+01  0.8320E+02
     10.752  0.3226E+01  0.8383E+02
     10.946  0.3215E+01  0.8445E+02
     11.139  0.3256E+01  0.8508E+02
     11.332  0.3880E+01  0.8583E+02
     11.526  0.3383E+01  0.8648E+02
     11.719  0.3516E+01  0.8716E+02
     11.912  0.3175E+01  0.8777E+02
     12.105  0.3051E+01  0.8836E+02
     12.299  0.3223E+01  0.8899E+02
     12.492  0.3043E+01  0.8957E+02
     12.685  0.2961E+01  0.9015E+02
     12.878  0.3181E+01  0.9076E+02
     13.072  0.2810E+01  0.9130E+02
     13.265  0.3139E+01  0.9191E+02
     13.458  0.3605E+01  0.9261E+02
     13.651  0.4021E+01  0.9338E+02
     13.845  0.3988E+01  0.9415E+02
     14.038  0.5079E+01  0.9514E+02
     14.231  0.4883E+01  0.9608E+02
     14.425  0.5342E+01  0.9711E+02
     14.618  0.5535E+01  0.9818E+02
     14.811  0.5934E+01  0.9933E+02
     15.004  0.5254E+01  0.1003E+03
     15.198  0.4288E+01  0.1012E+03
     15.391  0.4280E+01  0.1020E+03
     15.584  0.4066E+01  0.1028E+03
     15.777  0.4101E+01  0.1036E+03
     15.971  0.3991E+01  0.1043E+03
     16.164  0.3623E+01  0.1050E+03
     16.357  0.3458E+01  0.1057E+03
     16.550  0.3447E+01  0.1064E+03
     16.744  0.3578E+01  0.1071E+03
     16.937  0.3894E+01  0.1078E+03
     17.130  0.4285E+01  0.1087E+03
     17.324  0.3882E+01  0.1094E+03
     17.517  0.4670E+01  0.1103E+03
     17.710  0.4885E+01  0.1113E+03
     17.903  0.4809E+01  0.1122E+03
     18.097  0.4917E+01  0.1131E+03
     18.290  0.5053E+01  0.1141E+03
     18.483  0.4558E+01  0.1150E+03
     18.676  0.5035E+01  0.1160E+03
     18.870  0.5541E+01  0.1170E+03
     19.063  0.4811E+01  0.1180E+03
     19.256  0.4776E+01  0.1189E+03
     19.449  0.4909E+01  0.1198E+03
     19.643  0.5611E+01  0.1209E+03
     19.836  0.6023E+01  0.1221E+03
     20.029  0.5999E+01  0.1232E+03
     20.223  0.5640E+01  0.1243E+03
     20.416  0.5338E+01  0.1254E+03
     20.609  0.4188E+01  0.1262E+03
     20.802  0.3491E+01  0.1268E+03
     20.996  0.2147E+01  0.1273E+03
     21.189  0.1565E+01  0.1276E+03
     21.382  0.1218E+01  0.1278E+03
     21.575  0.5622E+00  0.1279E+03
     21.769  0.2769E+00  0.1280E+03
     21.962  0.1342E+00  0.1280E+03
     22.155  0.4677E-01  0.1280E+03
     22.348  0.6957E-05  0.1280E+03
     22.542  0.0000E+00  0.1280E+03
     22.735  0.0000E+00  0.1280E+03
     22.928  0.0000E+00  0.1280E+03
     23.122  0.0000E+00  0.1280E+03
     23.315  0.0000E+00  0.1280E+03
     23.508  0.0000E+00  0.1280E+03
     23.701  0.0000E+00  0.1280E+03
     23.895  0.0000E+00  0.1280E+03
     24.088  0.0000E+00  0.1280E+03
     24.281  0.0000E+00  0.1280E+03
     24.474  0.0000E+00  0.1280E+03
     24.668  0.0000E+00  0.1280E+03
