    8    8    1    1
  0.1952341E+02  0.6163100E-09  0.3685050E-09  0.6925430E-09  0.5000000E-15
  1.000000000000000E-004
  CAR 
 F                                       
     56    518     64
 
  0.0000000E+00  0.0000000E+00  0.0000000E+00  0.5787037E-03
      1        -30.676875   1.000000
      2        -30.638672   1.000000
      3        -30.596118   1.000000
      4        -30.570919   1.000000
      5        -24.651758   1.000000
      6        -24.615680   1.000000
      7        -24.425746   1.000000
      8        -24.425246   1.000000
      9        -12.389373   1.000000
     10        -12.313942   1.000000
     11        -11.896567   1.000000
     12        -11.870111   1.000000
     13         -9.837983   1.000000
     14         -9.569045   1.000000
     15         -9.449279   1.000000
     16         -9.351695   1.000000
     17         -9.303695   1.000000
     18         -9.276123   1.000000
     19         -9.258021   1.000000
     20         -9.229467   1.000000
     21         -6.461333   1.000000
     22         -6.407386   1.000000
     23         -6.360926   1.000000
     24         -6.140647   1.000000
     25         -6.136384   1.000000
     26         -6.105544   1.000000
     27         -6.077208   1.000000
     28         -6.061835   1.000000
     29         -3.253892   0.000000
     30         -3.103220   0.000000
     31         -2.627239   0.000000
     32         -2.590088   0.000000
     33          2.590181   0.000000
     34          5.207161   0.000000
     35          6.026211   0.000000
     36          6.133681   0.000000
     37          7.364982   0.000000
     38          7.766038   0.000000
     39          8.736904   0.000000
     40          9.097671   0.000000
     41         11.070174   0.000000
     42         12.434334   0.000000
     43         12.620913   0.000000
     44         13.469696   0.000000
     45         13.622989   0.000000
     46         13.932290   0.000000
     47         13.993923   0.000000
     48         14.597056   0.000000
     49         14.789043   0.000000
     50         15.040520   0.000000
     51         15.171347   0.000000
     52         15.698382   0.000000
     53         15.750530   0.000000
     54         16.360754   0.000000
     55         16.828180   0.000000
     56         16.851774   0.000000
     57         17.218226   0.000000
     58         17.578647   0.000000
     59         18.260031   0.000000
     60         18.327323   0.000000
     61         18.357191   0.000000
     62         18.400077   0.000000
     63         19.272626   0.000000
     64         20.035078   0.000000
 
  0.8333333E-01 -0.3455430E-33  0.0000000E+00  0.1157407E-02
      1        -30.676179   1.000000
      2        -30.639304   1.000000
      3        -30.595699   1.000000
      4        -30.571407   1.000000
      5        -24.651142   1.000000
      6        -24.616321   1.000000
      7        -24.425903   1.000000
      8        -24.425110   1.000000
      9        -12.388205   1.000000
     10        -12.315382   1.000000
     11        -11.896124   1.000000
     12        -11.870532   1.000000
     13         -9.828853   1.000000
     14         -9.563665   1.000000
     15         -9.447653   1.000000
     16         -9.353388   1.000000
     17         -9.303016   1.000000
     18         -9.286247   1.000000
     19         -9.258956   1.000000
     20         -9.235646   1.000000
     21         -6.456080   1.000000
     22         -6.406370   1.000000
     23         -6.361497   1.000000
     24         -6.146280   1.000000
     25         -6.135429   1.000000
     26         -6.104982   1.000000
     27         -6.078017   1.000000
     28         -6.062563   1.000000
     29         -3.250884   0.000000
     30         -3.105465   0.000000
     31         -2.626636   0.000000
     32         -2.590571   0.000000
     33          2.626410   0.000000
     34          5.236999   0.000000
     35          5.928976   0.000000
     36          6.052997   0.000000
     37          7.587974   0.000000
     38          7.655669   0.000000
     39          8.627401   0.000000
     40          9.228352   0.000000
     41         11.181198   0.000000
     42         12.442726   0.000000
     43         12.613613   0.000000
     44         13.472594   0.000000
     45         13.623668   0.000000
     46         13.920462   0.000000
     47         14.018758   0.000000
     48         14.270600   0.000000
     49         14.290608   0.000000
     50         15.108452   0.000000
     51         15.353603   0.000000
     52         15.705040   0.000000
     53         15.770631   0.000000
     54         16.723458   0.000000
     55         16.827699   0.000000
     56         16.980313   0.000000
     57         17.281564   0.000000
     58         17.592008   0.000000
     59         17.972998   0.000000
     60         18.056621   0.000000
     61         18.552209   0.000000
     62         18.572670   0.000000
     63         19.363957   0.000000
     64         19.968561   0.000000
 
  0.1666667E+00 -0.5518070E-33  0.0000000E+00  0.1157407E-02
      1        -30.674240   1.000000
      2        -30.641320   1.000000
      3        -30.594464   1.000000
      4        -30.572615   1.000000
      5        -24.649355   1.000000
      6        -24.618127   1.000000
      7        -24.425709   1.000000
      8        -24.425148   1.000000
      9        -12.384787   1.000000
     10        -12.319568   1.000000
     11        -11.894782   1.000000
     12        -11.871851   1.000000
     13         -9.802009   1.000000
     14         -9.547804   1.000000
     15         -9.442872   1.000000
     16         -9.358360   1.000000
     17         -9.315797   1.000000
     18         -9.301001   1.000000
     19         -9.262093   1.000000
     20         -9.253232   1.000000
     21         -6.440701   1.000000
     22         -6.403299   1.000000
     23         -6.363238   1.000000
     24         -6.162779   1.000000
     25         -6.132617   1.000000
     26         -6.103450   1.000000
     27         -6.080324   1.000000
     28         -6.064593   1.000000
     29         -3.242414   0.000000
     30         -3.112106   0.000000
     31         -2.624758   0.000000
     32         -2.592355   0.000000
     33          2.734022   0.000000
     34          5.325197   0.000000
     35          5.516396   0.000000
     36          6.133097   0.000000
     37          7.398827   0.000000
     38          8.056443   0.000000
     39          8.364949   0.000000
     40          9.526096   0.000000
     41         11.475691   0.000000
     42         12.466879   0.000000
     43         12.581873   0.000000
     44         13.367570   0.000000
     45         13.540465   0.000000
     46         13.640909   0.000000
     47         13.876904   0.000000
     48         13.885904   0.000000
     49         14.091172   0.000000
     50         14.980737   0.000000
     51         15.437707   0.000000
     52         15.557505   0.000000
     53         15.920481   0.000000
     54         16.826102   0.000000
     55         17.245243   0.000000
     56         17.335788   0.000000
     57         17.466584   0.000000
     58         17.635433   0.000000
     59         17.698034   0.000000
     60         17.785770   0.000000
     61         18.789478   0.000000
     62         18.887622   0.000000
     63         19.508070   0.000000
     64         19.886050   0.000000
 
  0.2500000E+00  0.3724882E-32  0.0000000E+00  0.1157407E-02
      1        -30.671183   1.000000
      2        -30.644380   1.000000
      3        -30.592550   1.000000
      4        -30.574611   1.000000
      5        -24.646413   1.000000
      6        -24.621051   1.000000
      7        -24.425563   1.000000
      8        -24.425155   1.000000
      9        -12.379308   1.000000
     10        -12.326109   1.000000
     11        -11.892693   1.000000
     12        -11.873949   1.000000
     13         -9.759093   1.000000
     14         -9.522356   1.000000
     15         -9.435250   1.000000
     16         -9.366365   1.000000
     17         -9.362287   1.000000
     18         -9.297736   1.000000
     19         -9.283066   1.000000
     20         -9.264861   1.000000
     21         -6.416689   1.000000
     22         -6.397990   1.000000
     23         -6.366175   1.000000
     24         -6.188857   1.000000
     25         -6.128188   1.000000
     26         -6.101478   1.000000
     27         -6.083520   1.000000
     28         -6.067812   1.000000
     29         -3.229143   0.000000
     30         -3.122864   0.000000
     31         -2.621801   0.000000
     32         -2.595360   0.000000
     33          2.910080   0.000000
     34          5.062042   0.000000
     35          5.468122   0.000000
     36          6.266737   0.000000
     37          7.088566   0.000000
     38          8.026661   0.000000
     39          8.608672   0.000000
     40          9.900724   0.000000
     41         11.889183   0.000000
     42         12.417312   0.000000
     43         12.503027   0.000000
     44         12.877209   0.000000
     45         12.996502   0.000000
     46         13.533939   0.000000
     47         13.831373   0.000000
     48         13.913752   0.000000
     49         14.203576   0.000000
     50         14.843177   0.000000
     51         15.201659   0.000000
     52         15.337939   0.000000
     53         16.075249   0.000000
     54         16.823170   0.000000
     55         17.073456   0.000000
     56         17.256986   0.000000
     57         17.723344   0.000000
     58         17.757372   0.000000
     59         18.137770   0.000000
     60         18.144009   0.000000
     61         19.130351   0.000000
     62         19.309085   0.000000
     63         19.614822   0.000000
     64         19.855395   0.000000
 
  0.3333333E+00  0.5919903E-32  0.0000000E+00  0.1157407E-02
      1        -30.667254   1.000000
      2        -30.648363   1.000000
      3        -30.589847   1.000000
      4        -30.577170   1.000000
      5        -24.642782   1.000000
      6        -24.624624   1.000000
      7        -24.425397   1.000000
      8        -24.425226   1.000000
      9        -12.372028   1.000000
     10        -12.334461   1.000000
     11        -11.889935   1.000000
     12        -11.876692   1.000000
     13         -9.702739   1.000000
     14         -9.488779   1.000000
     15         -9.425268   1.000000
     16         -9.422480   1.000000
     17         -9.376463   1.000000
     18         -9.319533   1.000000
     19         -9.293357   1.000000
     20         -9.270251   1.000000
     21         -6.395902   1.000000
     22         -6.380581   1.000000
     23         -6.370304   1.000000
     24         -6.222607   1.000000
     25         -6.122476   1.000000
     26         -6.100716   1.000000
     27         -6.085911   1.000000
     28         -6.071932   1.000000
     29         -3.212347   0.000000
     30         -3.137198   0.000000
     31         -2.617940   0.000000
     32         -2.599250   0.000000
     33          3.149877   0.000000
     34          4.612946   0.000000
     35          5.660137   0.000000
     36          6.453762   0.000000
     37          6.768002   0.000000
     38          7.663762   0.000000
     39          9.203570   0.000000
     40         10.320476   0.000000
     41         11.851141   0.000000
     42         12.381046   0.000000
     43         12.382180   0.000000
     44         12.545640   0.000000
     45         12.705020   0.000000
     46         13.555022   0.000000
     47         13.764395   0.000000
     48         14.050893   0.000000
     49         14.348230   0.000000
     50         14.704043   0.000000
     51         14.708522   0.000000
     52         15.130814   0.000000
     53         16.209048   0.000000
     54         16.819703   0.000000
     55         16.914908   0.000000
     56         16.953137   0.000000
     57         17.883173   0.000000
     58         18.126256   0.000000
     59         18.547105   0.000000
     60         18.694942   0.000000
     61         19.200754   0.000000
     62         19.746721   0.000000
     63         19.854500   0.000000
     64         20.066967   0.000000
 
  0.4166667E+00  0.9558284E-35  0.0000000E+00  0.1157407E-02
      1        -30.662678   1.000000
      2        -30.652976   1.000000
      3        -30.586707   1.000000
      4        -30.580254   1.000000
      5        -24.638363   1.000000
      6        -24.628892   1.000000
      7        -24.425488   1.000000
      8        -24.425343   1.000000
      9        -12.363342   1.000000
     10        -12.343909   1.000000
     11        -11.886732   1.000000
     12        -11.879866   1.000000
     13         -9.636451   1.000000
     14         -9.491461   1.000000
     15         -9.449061   1.000000
     16         -9.413591   1.000000
     17         -9.388334   1.000000
     18         -9.361480   1.000000
     19         -9.288083   1.000000
     20         -9.276136   1.000000
     21         -6.388222   1.000000
     22         -6.375516   1.000000
     23         -6.343883   1.000000
     24         -6.261576   1.000000
     25         -6.115972   1.000000
     26         -6.103584   1.000000
     27         -6.084945   1.000000
     28         -6.076597   1.000000
     29         -3.193207   0.000000
     30         -3.154395   0.000000
     31         -2.613434   0.000000
     32         -2.603726   0.000000
     33          3.447462   0.000000
     34          4.187232   0.000000
     35          5.893875   0.000000
     36          6.455546   0.000000
     37          6.692809   0.000000
     38          7.308175   0.000000
     39          9.830402   0.000000
     40         10.777446   0.000000
     41         11.164990   0.000000
     42         11.806658   0.000000
     43         12.588340   0.000000
     44         12.660371   0.000000
     45         12.928839   0.000000
     46         13.587887   0.000000
     47         13.695467   0.000000
     48         14.121787   0.000000
     49         14.217788   0.000000
     50         14.518281   0.000000
     51         14.555143   0.000000
     52         14.916479   0.000000
     53         16.334229   0.000000
     54         16.689554   0.000000
     55         16.817305   0.000000
     56         16.845450   0.000000
     57         18.125200   0.000000
     58         18.527159   0.000000
     59         18.659118   0.000000
     60         18.997721   0.000000
     61         19.193340   0.000000
     62         19.735618   0.000000
     63         20.141460   0.000000
     64         20.546119   0.000000
 
  0.5000000E+00  0.7449764E-32  0.0000000E+00  0.5787037E-03
      1        -30.657826   1.000000
      2        -30.657826   1.000000
      3        -30.583567   1.000000
      4        -30.583567   1.000000
      5        -24.633595   1.000000
      6        -24.633595   1.000000
      7        -24.425358   1.000000
      8        -24.425358   1.000000
      9        -12.353772   1.000000
     10        -12.353772   1.000000
     11        -11.883301   1.000000
     12        -11.883301   1.000000
     13         -9.564445   1.000000
     14         -9.564445   1.000000
     15         -9.405675   1.000000
     16         -9.405675   1.000000
     17         -9.400996   1.000000
     18         -9.400996   1.000000
     19         -9.282216   1.000000
     20         -9.282216   1.000000
     21         -6.381576   1.000000
     22         -6.381576   1.000000
     23         -6.302984   1.000000
     24         -6.302984   1.000000
     25         -6.109315   1.000000
     26         -6.109315   1.000000
     27         -6.081220   1.000000
     28         -6.081220   1.000000
     29         -3.173410   0.000000
     30         -3.173410   0.000000
     31         -2.608639   0.000000
     32         -2.608639   0.000000
     33          3.795819   0.000000
     34          3.795819   0.000000
     35          6.161521   0.000000
     36          6.161521   0.000000
     37          6.980127   0.000000
     38          6.980127   0.000000
     39         10.485624   0.000000
     40         10.485624   0.000000
     41         11.272090   0.000000
     42         11.272090   0.000000
     43         12.626469   0.000000
     44         12.626469   0.000000
     45         13.516004   0.000000
     46         13.516004   0.000000
     47         13.634786   0.000000
     48         13.634786   0.000000
     49         14.391195   0.000000
     50         14.391195   0.000000
     51         14.709459   0.000000
     52         14.709459   0.000000
     53         16.485432   0.000000
     54         16.485432   0.000000
     55         16.821686   0.000000
     56         16.821686   0.000000
     57         18.419204   0.000000
     58         18.419204   0.000000
     59         18.877649   0.000000
     60         18.877649   0.000000
     61         19.455870   0.000000
     62         19.455870   0.000000
     63         20.601531   0.000000
     64         20.604643   0.000000
 
  0.0000000E+00  0.8333333E-01  0.0000000E+00  0.1157407E-02
      1        -30.673935   1.000000
      2        -30.636788   1.000000
      3        -30.595784   1.000000
      4        -30.571582   1.000000
      5        -24.648338   1.000000
      6        -24.612714   1.000000
      7        -24.430053   1.000000
      8        -24.428872   1.000000
      9        -12.383402   1.000000
     10        -12.308414   1.000000
     11        -11.906247   1.000000
     12        -11.878685   1.000000
     13         -9.825240   1.000000
     14         -9.561821   1.000000
     15         -9.464588   1.000000
     16         -9.370387   1.000000
     17         -9.321077   1.000000
     18         -9.278483   1.000000
     19         -9.278394   1.000000
     20         -9.236997   1.000000
     21         -6.454697   1.000000
     22         -6.399913   1.000000
     23         -6.352305   1.000000
     24         -6.140459   1.000000
     25         -6.137290   1.000000
     26         -6.109638   1.000000
     27         -6.083551   1.000000
     28         -6.063975   1.000000
     29         -3.241840   0.000000
     30         -3.093226   0.000000
     31         -2.635080   0.000000
     32         -2.596761   0.000000
     33          2.686897   0.000000
     34          5.298641   0.000000
     35          6.083870   0.000000
     36          6.174176   0.000000
     37          7.452866   0.000000
     38          7.816902   0.000000
     39          8.772756   0.000000
     40          9.072206   0.000000
     41         11.102776   0.000000
     42         11.836576   0.000000
     43         12.601569   0.000000
     44         12.626196   0.000000
     45         13.667031   0.000000
     46         13.672361   0.000000
     47         14.482832   0.000000
     48         14.578760   0.000000
     49         14.799619   0.000000
     50         15.025336   0.000000
     51         15.202027   0.000000
     52         15.258575   0.000000
     53         15.385746   0.000000
     54         16.423827   0.000000
     55         16.658071   0.000000
     56         17.089595   0.000000
     57         17.680638   0.000000
     58         18.109505   0.000000
     59         18.323929   0.000000
     60         18.413954   0.000000
     61         18.434071   0.000000
     62         19.353805   0.000000
     63         19.638562   0.000000
     64         20.173638   0.000000
 
  0.8333333E-01  0.8333333E-01  0.0000000E+00  0.2314815E-02
      1        -30.673338   1.000000
      2        -30.637517   1.000000
      3        -30.595451   1.000000
      4        -30.572035   1.000000
      5        -24.647778   1.000000
      6        -24.613293   1.000000
      7        -24.430111   1.000000
      8        -24.428929   1.000000
      9        -12.382263   1.000000
     10        -12.309849   1.000000
     11        -11.905782   1.000000
     12        -11.879167   1.000000
     13         -9.816494   1.000000
     14         -9.557624   1.000000
     15         -9.462030   1.000000
     16         -9.372823   1.000000
     17         -9.320259   1.000000
     18         -9.294689   1.000000
     19         -9.272885   1.000000
     20         -9.242050   1.000000
     21         -6.449612   1.000000
     22         -6.398917   1.000000
     23         -6.352953   1.000000
     24         -6.146478   1.000000
     25         -6.136336   1.000000
     26         -6.108787   1.000000
     27         -6.084060   1.000000
     28         -6.064714   1.000000
     29         -3.238994   0.000000
     30         -3.095469   0.000000
     31         -2.634417   0.000000
     32         -2.597451   0.000000
     33          2.722623   0.000000
     34          5.327947   0.000000
     35          5.978629   0.000000
     36          6.110476   0.000000
     37          7.649459   0.000000
     38          7.724755   0.000000
     39          8.667682   0.000000
     40          9.192516   0.000000
     41         11.197247   0.000000
     42         11.866955   0.000000
     43         12.508580   0.000000
     44         12.646546   0.000000
     45         13.667506   0.000000
     46         13.681264   0.000000
     47         14.142587   0.000000
     48         14.466302   0.000000
     49         14.813129   0.000000
     50         15.047262   0.000000
     51         15.243654   0.000000
     52         15.247177   0.000000
     53         15.423514   0.000000
     54         16.442273   0.000000
     55         16.766023   0.000000
     56         17.378527   0.000000
     57         17.731009   0.000000
     58         17.809891   0.000000
     59         18.322891   0.000000
     60         18.437817   0.000000
     61         18.540101   0.000000
     62         19.213780   0.000000
     63         19.817018   0.000000
     64         20.063343   0.000000
 
  0.1666667E+00  0.8333333E-01  0.0000000E+00  0.2314815E-02
      1        -30.671449   1.000000
      2        -30.639352   1.000000
      3        -30.594246   1.000000
      4        -30.573179   1.000000
      5        -24.645976   1.000000
      6        -24.615080   1.000000
      7        -24.429996   1.000000
      8        -24.428906   1.000000
      9        -12.378881   1.000000
     10        -12.314010   1.000000
     11        -11.904399   1.000000
     12        -11.880523   1.000000
     13         -9.790787   1.000000
     14         -9.545389   1.000000
     15         -9.454376   1.000000
     16         -9.380032   1.000000
     17         -9.325321   1.000000
     18         -9.317835   1.000000
     19         -9.273587   1.000000
     20         -9.256558   1.000000
     21         -6.434728   1.000000
     22         -6.395945   1.000000
     23         -6.354886   1.000000
     24         -6.163499   1.000000
     25         -6.133542   1.000000
     26         -6.106659   1.000000
     27         -6.085714   1.000000
     28         -6.066865   1.000000
     29         -3.230569   0.000000
     30         -3.102026   0.000000
     31         -2.632480   0.000000
     32         -2.599383   0.000000
     33          2.828844   0.000000
     34          5.414665   0.000000
     35          5.577327   0.000000
     36          6.190664   0.000000
     37          7.453316   0.000000
     38          8.120144   0.000000
     39          8.416864   0.000000
     40          9.459973   0.000000
     41         11.444699   0.000000
     42         11.958059   0.000000
     43         12.319429   0.000000
     44         12.601803   0.000000
     45         13.375163   0.000000
     46         13.720337   0.000000
     47         13.871217   0.000000
     48         14.420245   0.000000
     49         14.480810   0.000000
     50         15.033737   0.000000
     51         15.219809   0.000000
     52         15.288933   0.000000
     53         15.517313   0.000000
     54         16.486034   0.000000
     55         16.987845   0.000000
     56         17.461887   0.000000
     57         17.879629   0.000000
     58         18.013225   0.000000
     59         18.184130   0.000000
     60         18.459266   0.000000
     61         18.664190   0.000000
     62         19.285608   0.000000
     63         19.943700   0.000000
     64         19.970272   0.000000
 
  0.2500000E+00  0.8333333E-01  0.0000000E+00  0.2314815E-02
      1        -30.668439   1.000000
      2        -30.642363   1.000000
      3        -30.592265   1.000000
      4        -30.575142   1.000000
      5        -24.643102   1.000000
      6        -24.618051   1.000000
      7        -24.429769   1.000000
      8        -24.428938   1.000000
      9        -12.373413   1.000000
     10        -12.320519   1.000000
     11        -11.902204   1.000000
     12        -11.882704   1.000000
     13         -9.749705   1.000000
     14         -9.526251   1.000000
     15         -9.441665   1.000000
     16         -9.391778   1.000000
     17         -9.370573   1.000000
     18         -9.313920   1.000000
     19         -9.282257   1.000000
     20         -9.274580   1.000000
     21         -6.411395   1.000000
     22         -6.390878   1.000000
     23         -6.358097   1.000000
     24         -6.189690   1.000000
     25         -6.129163   1.000000
     26         -6.103949   1.000000
     27         -6.088414   1.000000
     28         -6.070261   1.000000
     29         -3.217436   0.000000
     30         -3.112634   0.000000
     31         -2.629453   0.000000
     32         -2.602370   0.000000
     33          3.002692   0.000000
     34          5.130380   0.000000
     35          5.555232   0.000000
     36          6.324522   0.000000
     37          7.149535   0.000000
     38          8.078127   0.000000
     39          8.664968   0.000000
     40          9.787747   0.000000
     41         11.766841   0.000000
     42         12.041166   0.000000
     43         12.121695   0.000000
     44         12.368281   0.000000
     45         12.895369   0.000000
     46         13.774186   0.000000
     47         13.941989   0.000000
     48         14.169034   0.000000
     49         14.358091   0.000000
     50         14.909865   0.000000
     51         15.153677   0.000000
     52         15.185928   0.000000
     53         15.657517   0.000000
     54         16.537501   0.000000
     55         16.812269   0.000000
     56         17.679431   0.000000
     57         17.834056   0.000000
     58         18.115503   0.000000
     59         18.525739   0.000000
     60         18.793511   0.000000
     61         18.905054   0.000000
     62         19.551039   0.000000
     63         19.842221   0.000000
     64         20.001671   0.000000
 
  0.3333333E+00  0.8333333E-01  0.0000000E+00  0.2314815E-02
      1        -30.664572   1.000000
      2        -30.646255   1.000000
      3        -30.589606   1.000000
      4        -30.577586   1.000000
      5        -24.639336   1.000000
      6        -24.621808   1.000000
      7        -24.429718   1.000000
      8        -24.428983   1.000000
      9        -12.366158   1.000000
     10        -12.328827   1.000000
     11        -11.899332   1.000000
     12        -11.885528   1.000000
     13         -9.695806   1.000000
     14         -9.502187   1.000000
     15         -9.428280   1.000000
     16         -9.423843   1.000000
     17         -9.407428   1.000000
     18         -9.309701   1.000000
     19         -9.308695   1.000000
     20         -9.281658   1.000000
     21         -6.389154   1.000000
     22         -6.376116   1.000000
     23         -6.362525   1.000000
     24         -6.222994   1.000000
     25         -6.123538   1.000000
     26         -6.102308   1.000000
     27         -6.090618   1.000000
     28         -6.074648   1.000000
     29         -3.200713   0.000000
     30         -3.126783   0.000000
     31         -2.625504   0.000000
     32         -2.606233   0.000000
     33          3.239695   0.000000
     34          4.686876   0.000000
     35          5.744062   0.000000
     36          6.511996   0.000000
     37          6.834290   0.000000
     38          7.720221   0.000000
     39          9.243835   0.000000
     40         10.144731   0.000000
     41         11.692471   0.000000
     42         11.804381   0.000000
     43         12.050239   0.000000
     44         12.417786   0.000000
     45         12.691460   0.000000
     46         13.835228   0.000000
     47         13.889340   0.000000
     48         14.062969   0.000000
     49         14.302980   0.000000
     50         14.790310   0.000000
     51         14.839445   0.000000
     52         15.117127   0.000000
     53         15.842286   0.000000
     54         16.600150   0.000000
     55         16.600961   0.000000
     56         17.435643   0.000000
     57         18.121358   0.000000
     58         18.408723   0.000000
     59         18.668098   0.000000
     60         19.208035   0.000000
     61         19.390546   0.000000
     62         19.688622   0.000000
     63         19.694111   0.000000
     64         20.199342   0.000000
 
  0.4166667E+00  0.8333333E-01  0.0000000E+00  0.2314815E-02
      1        -30.660136   1.000000
      2        -30.650658   1.000000
      3        -30.586701   1.000000
      4        -30.580458   1.000000
      5        -24.635107   1.000000
      6        -24.625915   1.000000
      7        -24.429487   1.000000
      8        -24.429223   1.000000
      9        -12.357515   1.000000
     10        -12.338216   1.000000
     11        -11.896001   1.000000
     12        -11.888848   1.000000
     13         -9.632459   1.000000
     14         -9.494077   1.000000
     15         -9.475881   1.000000