F                                       
           1
     6.120059    0.000000   -0.727106
     0.000000    3.685050    0.000000
     0.000000    0.000000    6.925430
   F 
     8
Direct configuration=     1
   0.25500000  0.33030000  0.09413000
   0.74500000  0.66970000  0.90587000
   0.74500000  0.33030000  0.40587000
   0.25500000  0.66970000  0.59413000
   0.75500000  0.83030000  0.09413000
   0.24500000  0.16970000  0.90587000
   0.24500000  0.83030000  0.40587000
   0.75500000  0.16970000  0.59413000
