Sb                                      
   1.00000000000000     
     4.380470    0.000000    0.000000
    -2.190235    3.793598    0.000000
     0.000000    0.000000   11.478040
   Sb
     6
Direct
  0.000000  0.000000  0.233320
  0.000000  0.000000  0.766680
  0.666667  0.333333  0.566660
  0.666667  0.333333  0.100010
  0.333333  0.666667  0.899990
  0.333333  0.666667  0.433340
 
   32   32   84
  3.7601      3.8314      4.0530      4.4471      5.0472      5.8938      7.0317      8.5048      10.348      12.569    
  15.133      17.933      20.787      23.444      25.621      27.053      27.553      27.053      25.621      23.444    
  20.787      17.933      15.133      12.569      10.348      8.5048      7.0317      5.8938      5.0472      4.4471    
  4.0530      3.8314      3.8314      3.8314      3.9778      4.2860      4.7844      5.5117      6.5129      7.8360    
  9.5245      11.604      14.062      16.828      19.752      22.608      25.116      26.991      27.995      27.995    
  26.991      25.116      22.608      19.752      16.828      14.062      11.604      9.5245      7.8361      6.5129    
  5.5116      4.7844      4.2860      3.9778      4.0530      3.9778      4.0530      4.2860      4.6993      5.3288    
  6.2214      7.4318      9.0148      11.013      13.438      16.245      19.311      22.432      25.330      27.697    
  29.252      29.794      29.252      27.697      25.330      22.432      19.311      16.245      13.438      11.013    
  9.0148      7.4318      6.2214      5.3288      4.6993      4.2860      4.4471      4.2860      4.2860      4.4471    
  4.7844      5.3288      6.1272      7.2407      8.7375      10.680      13.103      15.989      19.244      22.681    
  26.025      28.951      31.129      32.292      32.292      31.129      28.951      26.025      22.681      19.244    
  15.989      13.103      10.680      8.7375      7.2407      6.1272      5.3288      4.7844      5.0472      4.7844    
  4.6993      4.7845      5.0472      5.5116      6.2214      7.2407      8.6494      10.530      12.944      15.905    
  19.349      23.111      26.928      30.457      33.327      35.205      35.859      35.205      33.327      30.456    
  26.928      23.111      19.349      15.905      12.944      10.530      8.6494      7.2407      6.2214      5.5117    
  5.8939      5.5116      5.3288      5.3288      5.5117      5.8939      6.5129      7.4317      8.7375      10.530    
  12.898      15.888      19.471      23.516      27.776      31.905      35.500      38.165      39.586      39.586    
  38.165      35.500      31.905      27.776      23.517      19.472      15.888      12.898      10.530      8.7375    
  7.4317      6.5129      7.0318      6.5129      6.2214      6.1272      6.2214      6.5129      7.0318      7.8361    
  9.0148      10.680      12.944      15.888      19.522      23.754      28.367      33.027      37.314      40.787    
  43.051      43.838      43.051      40.787      37.314      33.027      28.367      23.754      19.522      15.888    
  12.944      10.680      9.0148      7.8361      8.5049      7.8361      7.4317      7.2407      7.2407      7.4317    
  7.8360      8.5049      9.5245      11.013      13.103      15.905      19.472      23.754      28.578      33.635    
  38.510      42.732      45.849      47.505      47.505      45.849      42.732      38.510      33.635      28.578    
  23.754      19.472      15.905      13.103      11.013      9.5245      10.348      9.5245      9.0148      8.7375    
  8.6494      8.7375      9.0147      9.5245      10.348      11.604      13.438      15.989      19.349      23.517    
  28.367      33.635      38.927      43.765      47.660      50.188      51.064      50.188      47.659      43.765    
  38.927      33.635      28.367      23.516      19.349      15.989      13.438      11.604      12.569      11.604    
  11.013      10.680      10.530      10.530      10.680      11.013      11.604      12.569      14.062      16.245    
  19.244      23.111      27.776      33.027      38.510      43.765      48.285      51.601      53.355      53.355    
  51.601      48.285      43.765      38.510      33.027      27.776      23.111      19.244      16.245      14.062    
  15.133      14.062      13.438      13.103      12.944      12.898      12.944      13.103      13.438      14.062    
  15.133      16.828      19.311      22.681      26.928      31.905      37.314      42.732      47.659      51.601    
  54.144      55.021      54.144      51.601      47.660      42.732      37.314      31.905      26.928      22.681    
  19.311      16.828      17.933      16.828      16.245      15.989      15.905      15.888      15.888      15.905    
  15.989      16.245      16.828      17.933      19.752      22.432      26.025      30.456      35.500      40.787    
  45.849      50.187      53.355      55.021      55.021      53.355      50.188      45.849      40.787      35.499    
  30.457      26.025      22.432      19.752      20.787      19.752      19.311      19.244      19.349      19.472    
  19.522      19.471      19.349      19.244      19.311      19.752      20.787      22.608      25.330      28.951    
  33.327      38.166      43.051      47.505      51.064      53.355      54.144      53.355      51.064      47.505    
  43.051      38.165      33.327      28.951      25.330      22.608      23.444      22.608      22.432      22.681    
  23.111      23.517      23.754      23.754      23.516      23.111      22.681      22.432      22.608      23.444    
  25.116      27.697      31.129      35.205      39.586      43.838      47.505      50.188      51.601      51.601    
  50.188      47.505      43.838      39.586      35.205      31.129      27.698      25.116      25.621      25.116    
  25.330      26.025      26.928      27.776      28.367      28.578      28.367      27.776      26.928      26.025    
  25.330      25.116      25.621      26.991      29.252      32.292      35.859      39.586      43.051      45.849    
  47.660      48.285      47.659      45.849      43.051      39.586      35.859      32.292      29.252      26.991    
  27.053      26.991      27.698      28.951      30.456      31.905      33.027      33.635      33.635      33.027    
  31.905      30.457      28.951      27.698      26.991      27.053      27.995      29.794      32.292      35.205    
  38.165      40.787      42.732      43.765      43.765      42.732      40.787      38.165      35.205      32.292    
  29.794      27.995      27.553      27.995      29.252      31.129      33.327      35.499      37.314      38.510    
  38.927      38.510      37.314      35.499      33.327      31.129      29.252      27.995      27.553      27.995    
  29.252      31.129      33.327      35.499      37.314      38.510      38.927      38.510      37.314      35.499    
  33.327      31.129      29.252      27.995      27.053      27.995      29.794      32.292      35.205      38.165    
  40.787      42.732      43.765      43.765      42.732      40.787      38.165      35.205      32.292      29.794    
  27.995      27.053      26.991      27.698      28.951      30.457      31.905      33.027      33.635      33.635    
  33.027      31.905      30.456      28.951      27.698      26.991      25.621      26.991      29.252      32.292    
  35.859      39.586      43.051      45.849      47.659      48.285      47.660      45.849      43.051      39.586    
  35.859      32.292      29.252      26.991      25.621      25.116      25.330      26.025      26.928      27.776    
  28.367      28.578      28.367      27.776      26.928      26.025      25.330      25.116      23.444      25.116    
  27.698      31.129      35.205      39.586      43.838      47.505      50.188      51.601      51.601      50.188    
  47.505      43.838      39.586      35.205      31.129      27.697      25.116      23.444      22.608      22.432    
  22.681      23.111      23.516      23.754      23.754      23.517      23.111      22.681      22.432      22.608    
  20.787      22.608      25.330      28.951      33.327      38.165      43.051      47.505      51.064      53.355    
  54.144      53.355      51.064      47.505      43.051      38.166      33.327      28.951      25.330      22.608    
  20.787      19.752      19.311      19.244      19.349      19.471      19.522      19.472      19.349      19.244    
  19.311      19.752      17.933      19.752      22.432      26.025      30.457      35.499      40.787      45.849    
  50.188      53.355      55.021      55.021      53.355      50.187      45.849      40.787      35.500      30.456    
  26.025      22.432      19.752      17.933      16.828      16.245      15.989      15.905      15.888      15.888    
  15.905      15.989      16.245      16.828      15.133      16.828      19.311      22.681      26.928      31.905    
  37.314      42.732      47.660      51.601      54.144      55.021      54.144      51.601      47.659      42.732    
  37.314      31.905      26.928      22.681      19.311      16.828      15.133      14.062      13.438      13.103    
  12.944      12.898      12.944      13.103      13.438      14.062      12.569      14.062      16.245      19.244    
  23.111      27.776      33.027      38.510      43.765      48.285      51.601      53.355      53.355      51.601    
  48.285      43.765      38.510      33.027      27.776      23.111      19.244      16.245      14.062      12.569    
  11.604      11.013      10.680      10.530      10.530      10.680      11.013      11.604      10.348      11.604    
  13.438      15.989      19.349      23.516      28.367      33.635      38.927      43.765      47.659      50.188    
  51.064      50.188      47.660      43.765      38.927      33.635      28.367      23.517      19.349      15.989    
  13.438      11.604      10.348      9.5245      9.0147      8.7375      8.6494      8.7375      9.0148      9.5245    
  8.5049      9.5245      11.013      13.103      15.905      19.472      23.754      28.578      33.635      38.510    
  42.732      45.849      47.505      47.505      45.849      42.732      38.510      33.635      28.578      23.754    
  19.472      15.905      13.103      11.013      9.5245      8.5049      7.8360      7.4317      7.2407      7.2407    
  7.4317      7.8361      7.0318      7.8361      9.0148      10.680      12.944      15.888      19.522      23.754    
  28.367      33.027      37.314      40.787      43.051      43.838      43.051      40.787      37.314      33.027    
  28.367      23.754      19.522      15.888      12.944      10.680      9.0148      7.8361      7.0318      6.5129    
  6.2214      6.1272      6.2214      6.5129      5.8939      6.5129      7.4317      8.7375      10.530      12.898    
  15.888      19.472      23.517      27.776      31.905      35.500      38.165      39.586      39.586      38.165    
  35.500      31.905      27.776      23.516      19.471      15.888      12.898      10.530      8.7375      7.4317    
  6.5129      5.8939      5.5117      5.3288      5.3288      5.5116      5.0472      5.5117      6.2214      7.2407    
  8.6494      10.530      12.944      15.905      19.349      23.111      26.928      30.456      33.327      35.205    
  35.859      35.205      33.327      30.457      26.928      23.111      19.349      15.905      12.944      10.530    
  8.6494      7.2407      6.2214      5.5116      5.0472      4.7845      4.6993      4.7844      4.4471      4.7844    
  5.3288      6.1272      7.2407      8.7375      10.680      13.103      15.989      19.244      22.681      26.025    
  28.951      31.129      32.292      32.292      31.129      28.951      26.025      22.681      19.244      15.989    
  13.103      10.680      8.7375      7.2407      6.1272      5.3288      4.7844      4.4471      4.2860      4.2860    
  4.0530      4.2860      4.6993      5.3288      6.2214      7.4318      9.0148      11.013      13.438      16.245    
  19.311      22.432      25.330      27.697      29.252      29.794      29.252      27.697      25.330      22.432    
  19.311      16.245      13.438      11.013      9.0148      7.4318      6.2214      5.3288      4.6993      4.2860    
  4.0530      3.9778      3.8314      3.9778      4.2860      4.7844      5.5116      6.5129      7.8361      9.5245    
  11.604      14.062      16.828      19.752      22.608      25.116      26.991      27.995      27.995      26.991    
  25.116      22.608      19.752      16.828      14.062      11.604      9.5245      7.8360      6.5129      5.5117    
  4.7844      4.2860      3.9778      3.8314      3.8946      3.9667      4.1904      4.5874      5.1908      6.0419    
  7.1873      8.6734      10.537      12.787      15.385      18.222      21.112      23.799      25.997      27.442    
  27.946      27.442      25.997      23.799      21.112      18.222      15.385      12.787      10.537      8.6734    
  7.1873      6.0419      5.1908      4.5874      4.1904      3.9667      3.9667      3.9667      4.1255      4.4576    
  4.9918      5.7694      6.8426      8.2684      10.099      12.364      15.049      18.070      21.262      24.374    
  27.102      29.137      30.226      30.226      29.137      27.102      24.374      21.262      18.071      15.049    
  12.364      10.099      8.2684      6.8426      5.7694      4.9917      4.4576      4.1255      4.1904      4.1037    
  4.1904      4.4576      4.9279      5.6409      6.6532      8.0340      9.8541      12.167      14.985      18.250    
  21.814      25.432      28.784      31.517      33.308      33.933      33.308      31.517      28.784      25.433    
  21.814      18.250      14.985      12.167      9.8541      8.0340      6.6531      5.6409      4.9279      4.4576    
  4.5874      4.3931      4.3931      4.5874      4.9917      5.6409      6.5928      7.9268      9.7335      12.094    
  15.050      18.575      22.543      26.720      30.772      34.306      36.931      38.332      38.332      36.931    
  34.306      30.772      26.720      22.543      18.575      15.050      12.094      9.7335      7.9268      6.5928    
  5.6409      4.9918      5.1908      4.8623      4.7556      4.8623      5.1908      5.7694      6.6531      7.9268    
  9.6975      12.074      15.133      18.885      23.235      27.968      32.748      37.148      40.717      43.047    
  43.858      43.047      40.717      37.148      32.747      27.968      23.235      18.885      15.133      12.074    
  9.6975      7.9268      6.6531      5.7694      6.0420      5.5476      5.3109      5.3109      5.5477      6.0419    
  6.8426      8.0340      9.7335      12.074      15.168      19.068      23.721      28.941      34.404      39.668    
  44.231      47.603      49.397      49.397      47.603      44.231      39.668      34.404      28.941      23.721    
  19.068      15.168      12.074      9.7334      8.0339      6.8426      7.1874      6.4904      6.0990      5.9725    
  6.0991      6.4905      7.1873      8.2684      9.8541      12.094      15.133      19.068      23.894      29.470    
  35.499      41.540      47.061      51.509      54.398      55.399      54.399      51.509      47.061      41.540    
  35.499      29.471      23.894      19.068      15.133      12.094      9.8540      8.2684      8.6734      7.7339    
  7.1639      6.8941      6.8942      7.1640      7.7339      8.6734      10.099      12.167      15.050      18.885    
  23.721      29.471      35.881      42.534      48.889      54.347      58.305      60.356      60.356      58.305    
  54.347      48.889      42.534      35.881      29.471      23.721      18.885      15.050      12.167      10.099    
  10.537      9.3174      8.5496      8.1266      7.9914      8.1266      8.5495      9.3174      10.537      12.364    
  14.985      18.575      23.235      28.941      35.499      42.534      49.520      55.823      60.708      63.709    
  64.710      63.709      60.708      55.823      49.520      42.534      35.499      28.941      23.235      18.575    
  14.985      12.364      12.787      11.265      10.291      9.7166      9.4506      9.4506      9.7165      10.291    
  11.265      12.787      15.049      18.250      22.543      27.968      34.404      41.540      48.889      55.823    
  61.507      65.348      67.231      67.231      65.347      61.507      55.823      48.889      41.540      34.404    
  27.968      22.543      18.250      15.049      15.385      13.565      12.397      11.692      11.318      11.201    
  11.318      11.692      12.397      13.565      15.385      18.071      21.814      26.720      32.747      39.668    
  47.062      54.347      60.708      65.347      68.038      68.902      68.038      65.347      60.708      54.347    
  47.061      39.668      32.748      26.720      21.814      18.071      18.222      16.152      14.831      14.041    
  13.608      13.417      13.417      13.608      14.041      14.831      16.152      18.222      21.262      25.433    
  30.772      37.148      44.231      51.509      58.305      63.709      67.230      68.902      68.902      67.230    
  63.709      58.305      51.509      44.230      37.148      30.772      25.432      21.262      21.112      18.886    
  17.491      16.691      16.274      16.083      16.029      16.083      16.274      16.691      17.491      18.886    
  21.112      24.374      28.785      34.306      40.717      47.603      54.399      60.356      64.710      67.231    
  68.038      67.230      64.710      60.357      54.399      47.603      40.717      34.306      28.784      24.374    
  23.799      21.555      20.199      19.492      19.195      19.107      19.095      19.095      19.106      19.195    
  19.493      20.199      21.555      23.799      27.102      31.517      36.931      43.047      49.397      55.399    
  60.357      63.709      65.347      65.347      63.709      60.357      55.399      49.396      43.047      36.931    
  31.517      27.102      25.997      23.899      22.715      22.224      22.168      22.308      22.464      22.527    
  22.463      22.308      22.168      22.224      22.715      23.899      25.997      29.137      33.308      38.332    
  43.858      49.397      54.398      58.305      60.708      61.507      60.708      58.305      54.399      49.397    
  43.857      38.332      33.309      29.137      27.442      25.649      24.771      24.616      24.924      25.427    
  25.893      26.164      26.164      25.892      25.427      24.925      24.616      24.771      25.649      27.442    
  30.226      33.933      38.332      43.047      47.602      51.509      54.347      55.823      55.823      54.347    
  51.509      47.603      43.047      38.332      33.933      30.226      27.946      26.587      26.122      26.399    
  27.172      28.154      29.069      29.705      29.931      29.705      29.069      28.154      27.172      26.399    
  26.122      26.587      27.946      30.226      33.309      36.931      40.717      44.230      47.061      48.889    
  49.520      48.889      47.061      44.231      40.717      36.931      33.308      30.226      27.442      26.587    
  26.593      27.352      28.646      30.183      31.656      32.796      33.413      33.413      32.796      31.655    
  30.183      28.645      27.352      26.593      26.587      27.442      29.137      31.517      34.306      37.148    
  39.668      41.540      42.534      42.534      41.540      39.668      37.148      34.306      31.517      29.137    
  25.997      25.649      26.122      27.352      29.159      31.266      33.349      35.092      36.242      36.644    
  36.243      35.092      33.349      31.266      29.159      27.352      26.122      25.649      25.997      27.102    
  28.784      30.772      32.748      34.404      35.499      35.881      35.499      34.404      32.747      30.772    
  28.784      27.102      23.799      23.899      24.771      26.399      28.645      31.266      33.938      36.317    
  38.091      39.037      39.037      38.091      36.316      33.938      31.266      28.646      26.399      24.771    
  23.899      23.799      24.374      25.432      26.720      27.968      28.941      29.470      29.471      28.941    
  27.968      26.720      25.432      24.374      21.112      21.555      22.715      24.616      27.172      30.183    
  33.349      36.317      38.734      40.310      40.857      40.311      38.734      36.316      33.349      30.183    
  27.172      24.616      22.715      21.555      21.112      21.262      21.814      22.543      23.235      23.721    
  23.894      23.721      23.235      22.543      21.814      21.262      18.222      18.886      20.199      22.224    
  24.925      28.154      31.655      35.092      38.091      40.310      41.490      41.490      40.310      38.091    
  35.092      31.656      28.154      24.924      22.224      20.199      18.886      18.222      18.070      18.250    
  18.575      18.885      19.068      19.068      18.885      18.575      18.250      18.071      15.385      16.152    
  17.491      19.492      22.168      25.427      29.069      32.796      36.243      39.037      40.858      41.490    
  40.858      39.037      36.242      32.796      29.069      25.427      22.168      19.492      17.491      16.152    
  15.385      15.049      14.985      15.050      15.133      15.168      15.133      15.050      14.985      15.049    
  12.787      13.565      14.831      16.691      19.195      22.308      25.893      29.705      33.413      36.644    
  39.037      40.311      40.311      39.037      36.644      33.413      29.705      25.893      22.308      19.195    
  16.691      14.831      13.565      12.787      12.364      12.167      12.094      12.074      12.074      12.094    
  12.167      12.364      10.537      11.265      12.397      14.041      16.274      19.107      22.463      26.164    
  29.931      33.413      36.242      38.091      38.734      38.091      36.243      33.413      29.931      26.164    
  22.464      19.107      16.274      14.041      12.397      11.265      10.537      10.099      9.8540      9.7335    
  9.6975      9.7335      9.8541      10.099      8.6734      9.3174      10.291      11.692      13.608      16.083    
  19.095      22.527      26.164      29.705      32.796      35.092      36.316      36.316      35.092      32.796    
  29.705      26.164      22.527      19.095      16.083      13.608      11.692      10.291      9.3175      8.6734    
  8.2684      8.0339      7.9268      7.9268      8.0339      8.2684      7.1874      7.7339      8.5496      9.7166    
  11.318      13.417      16.029      19.095      22.463      25.893      29.069      31.656      33.349      33.938    
  33.349      31.655      29.069      25.892      22.463      19.095      16.029      13.418      11.318      9.7166    
  8.5496      7.7339      7.1873      6.8426      6.6532      6.5928      6.6531      6.8426      6.0420      6.4905    
  7.1639      8.1266      9.4505      11.201      13.417      16.083      19.107      22.308      25.427      28.154    
  30.183      31.266      31.266      30.183      28.154      25.427      22.308      19.107      16.083      13.417    
  11.201      9.4505      8.1266      7.1640      6.4904      6.0419      5.7695      5.6409      5.6409      5.7694    
  5.1908      5.5477      6.0990      6.8941      7.9914      9.4505      11.318      13.608      16.274      19.195    
  22.168      24.924      27.172      28.646      29.159      28.646      27.172      24.925      22.168      19.195    
  16.274      13.608      11.318      9.4505      7.9914      6.8941      6.0990      5.5476      5.1908      4.9918    
  4.9279      4.9917      4.5874      4.8623      5.3109      5.9725      6.8942      8.1267      9.7166      11.692    
  14.041      16.691      19.492      22.224      24.616      26.399      27.352      27.352      26.399      24.616    
  22.224      19.493      16.691      14.041      11.692      9.7165      8.1266      6.8942      5.9725      5.3109    
  4.8623      4.5874      4.4576      4.4576      4.1904      4.3931      4.7556      5.3109      6.0990      7.1640    
  8.5496      10.291      12.397      14.831      17.491      20.199      22.715      24.771      26.122      26.593    
  26.122      24.771      22.715      20.199      17.491      14.831      12.397      10.291      8.5496      7.1640    
  6.0991      5.3109      4.7556      4.3931      4.1904      4.1255      3.9667      4.1037      4.3931      4.8623    
  5.5476      6.4904      7.7339      9.3174      11.265      13.565      16.152      18.886      21.555      23.899    
  25.649      26.587      26.587      25.649      23.899      21.555      18.886      16.152      13.565      11.265    
  9.3174      7.7339      6.4904      5.5477      4.8623      4.3931      4.1037      3.9667      4.3124      4.3867    
  4.6163      5.0213      5.6341      6.4980      7.6645      9.1867      11.106      13.433      16.123      19.060    
  22.044      24.810      27.068      28.548      29.064      28.548      27.068      24.810      22.044      19.060    
  16.123      13.433      11.106      9.1866      7.6645      6.4980      5.6341      5.0213      4.6163      4.3867    
  4.3867      4.3867      4.5607      4.9219      5.4989      6.3367      7.4963      9.0469      11.052      13.545    
  16.509      19.843      23.356      26.770      29.755      31.975      33.162      33.162      31.975      29.755    
  26.771      23.356      19.843      16.509      13.545      11.052      9.0469      7.4963      6.3367      5.4988    
  4.9219      4.5607      4.6163      4.5167      4.6163      4.9219      5.4566      6.2647      7.4143      8.9917    
  11.085      13.760      17.026      20.807      24.923      29.088      32.933      36.060      38.106      38.818    
  38.105      36.060      32.934      29.088      24.923      20.807      17.026      13.760      11.086      8.9917    
  7.4142      6.2646      5.4566      4.9219      5.0213      4.7911      4.7911      5.0213      5.4988      6.2646    
  7.3902      8.9759      11.136      13.970      17.523      21.752      26.497      31.469      36.274      40.452    
  43.549      45.201      45.200      43.549      40.451      36.274      31.469      26.497      21.752      17.523    
  13.970      11.136      8.9759      7.3901      6.2646      5.4988      5.6341      5.2359      5.1066      5.2359    
  5.6341      6.3367      7.4142      8.9759      11.158      14.095      17.875      22.497      27.829      33.597    
  39.392      44.707      49.007      51.811      52.786      51.811      49.006      44.707      39.392      33.597    
  27.829      22.497      17.875      14.095      11.158      8.9758      7.4142      6.3367      6.4980      5.8855    
  5.5934      5.5935      5.8856      6.4980      7.4963      8.9917      11.136      14.095      18.002      22.904    
  28.716      35.189      41.917      48.365      53.930      57.996      60.117      60.117      57.996      53.930    
  48.365      41.917      35.189      28.716      22.904      18.002      14.095      11.136      8.9917      7.4963    
  7.6646      6.7803      6.2872      6.1287      6.2873      6.7803      7.6646      9.0469      11.086      13.970    
  17.875      22.904      29.027      36.039      43.555      51.031      57.754      62.896      66.034      67.077    
  66.034      62.897      57.754      51.031      43.555      36.039      29.027      22.904      17.875      13.970    
  11.085      9.0469      9.1867      7.9633      7.2264      6.8798      6.8798      7.2264      7.9633      9.1867    
  11.052      13.760      17.523      22.497      28.716      36.039      44.121      52.430      60.090      66.058    
  69.911      71.737      71.737      69.911      66.058      60.090      52.430      44.122      36.039      28.716    
  22.497      17.523      13.760      11.052      11.106      9.4745      8.4489      7.8863      7.7072      7.8864    
  8.4488      9.4744      11.106      13.545      17.026      21.752      27.829      35.189      43.555      52.430    
  60.864      67.541      71.898      74.154      74.821      74.153      71.898      67.541      60.864      52.430    
  43.555      35.189      27.829      21.752      17.026      13.545      13.433      11.338      9.9855      9.1846    
  8.8131      8.8131      9.1846      9.9855      11.338      13.433      16.509      20.807      26.497      33.597    
  41.917      51.031      60.090      67.541      72.478      75.039      75.990      75.990      75.039      72.478    
  67.541      60.090      51.031      41.917      33.597      26.497      20.807      16.509      16.124      13.544    
  11.845      10.797      10.232      10.054      10.232      10.797      11.846      13.544      16.123      19.843    
  24.923      31.469      39.392      48.365      57.754      66.058      71.898      75.039      76.229      76.475    
  76.229      75.039      71.898      66.058      57.754      48.365      39.392      31.469      24.923      19.843    
  19.060      16.025      13.996      12.716      11.976      11.639      11.639      11.976      12.716      13.996    
  16.025      19.060      23.356      29.088      36.274      44.707      53.931      62.896      69.911      74.153    
  75.990      76.475      76.475      75.990      74.154      69.911      62.896      53.930      44.707      36.274    
  29.088      23.356      22.044      18.645      16.346      14.881      14.011      13.558      13.418      13.558    