Sb                                      
   1.00000000000000     
     4.380470    0.000000    0.000000
    -2.190235    3.793598    0.000000
     0.000000    0.000000   11.478040
   Sb
     6
Direct
  0.000000  0.000000  0.233320
  0.000000  0.000000  0.766680
  0.666667  0.333333  0.566660
  0.666667  0.333333  0.100010
  0.333333  0.666667  0.899990
  0.333333  0.666667  0.433340
 
   32   32   84
 0.37601376003E+01 0.38313763055E+01 0.40529595570E+01 0.44471261352E+01 0.50471844568E+01
 0.58938318462E+01 0.70317229770E+01 0.85048329661E+01 0.10347577350E+02 0.12569226064E+02
 0.15132532141E+02 0.17932671970E+02 0.20786781139E+02 0.23444144518E+02 0.25620873637E+02
 0.27052940690E+02 0.27552900874E+02 0.27052940690E+02 0.25620873637E+02 0.23444144518E+02
 0.20786781139E+02 0.17932671970E+02 0.15132532141E+02 0.12569226064E+02 0.10347577350E+02
 0.85048329661E+01 0.70317229770E+01 0.58938318462E+01 0.50471844568E+01 0.44471261352E+01
 0.40529595570E+01 0.38313763055E+01 0.38313783272E+01 0.38313742635E+01 0.39778186385E+01
 0.42860110892E+01 0.47844484693E+01 0.55116615524E+01 0.65128939761E+01 0.78360450917E+01
 0.95244822061E+01 0.11603878197E+02 0.14062384954E+02 0.16827989529E+02 0.19751763267E+02
 0.22607684704E+02 0.25116269911E+02 0.26990743412E+02 0.27994753065E+02 0.27994724285E+02
 0.26990721094E+02 0.25116351663E+02 0.22607856443E+02 0.19751910202E+02 0.16828038284E+02
 0.14062375211E+02 0.11603884887E+02 0.95245174971E+01 0.78360652695E+01 0.65128721911E+01
 0.55116183191E+01 0.47844181086E+01 0.42860049329E+01 0.39778250460E+01 0.40529579378E+01
 0.39778206602E+01 0.40529624961E+01 0.42860002320E+01 0.46993413007E+01 0.53288121291E+01
 0.62214391408E+01 0.74317531577E+01 0.90147814493E+01 0.11013295436E+02 0.13438214020E+02
 0.16244703720E+02 0.19311198546E+02 0.22431603881E+02 0.25329605114E+02 0.27697453997E+02
 0.29252177499E+02 0.29794334542E+02 0.29252091806E+02 0.27697424945E+02 0.25329714119E+02
 0.22431753217E+02 0.19311241210E+02 0.16244632434E+02 0.13438149889E+02 0.11013313498E+02
 0.90148285825E+01 0.74317510951E+01 0.62213953316E+01 0.53287851985E+01 0.46993466566E+01
 0.42860069546E+01 0.44471141378E+01 0.42859970701E+01 0.42860122294E+01 0.44471238274E+01
 0.47843996761E+01 0.53287603670E+01 0.61272099996E+01 0.72407122839E+01 0.87375009405E+01
 0.10679750020E+02 0.13102847676E+02 0.15989440510E+02 0.19244464276E+02 0.22680801968E+02
 0.26025394577E+02 0.28950818108E+02 0.31128649450E+02 0.32292276562E+02 0.32292250587E+02
 0.31128582366E+02 0.28950741907E+02 0.26025337326E+02 0.22680749190E+02 0.19244383153E+02
 0.15989351024E+02 0.13102812236E+02 0.10679776239E+02 0.87375237295E+01 0.72406987157E+01
 0.61272061661E+01 0.53287971958E+01 0.47844321276E+01 0.50471844568E+01 0.47844058440E+01
 0.46993429199E+01 0.47844522771E+01 0.50471840980E+01 0.55115953553E+01 0.62213584010E+01
 0.72406819840E+01 0.86494242795E+01 0.10529747054E+02 0.12943816351E+02 0.15905039473E+02
 0.19348737815E+02 0.23111286396E+02 0.26927942555E+02 0.30456572552E+02 0.33326821174E+02
 0.35205027754E+02 0.35858905736E+02 0.35205095416E+02 0.33326794887E+02 0.30456409186E+02
 0.26927790026E+02 0.23111249860E+02 0.19348761194E+02 0.15905053967E+02 0.12943834520E+02
 0.10529772032E+02 0.86494207965E+01 0.72406701094E+01 0.62213969508E+01 0.55116569010E+01
 0.58938770951E+01 0.55116183252E+01 0.53287668802E+01 0.53288176133E+01 0.55116812078E+01
 0.58938526660E+01 0.65128719145E+01 0.74317327885E+01 0.87375100927E+01 0.10529766932E+02
 0.12897547881E+02 0.15887792249E+02 0.19471493206E+02 0.23516367369E+02 0.27776073750E+02
 0.31904714830E+02 0.35499525968E+02 0.38165332415E+02 0.39586149606E+02 0.39586261396E+02
 0.38165495569E+02 0.35499517529E+02 0.31904620801E+02 0.27776104688E+02 0.23516506697E+02
 0.19471582803E+02 0.15887811741E+02 0.12897571427E+02 0.10529776677E+02 0.87374664833E+01
 0.74317058461E+01 0.65129154183E+01 0.70317982955E+01 0.65128959978E+01 0.62213622031E+01
 0.61271980023E+01 0.62214337195E+01 0.65129171634E+01 0.70317666011E+01 0.78360917481E+01
 0.90148208651E+01 0.10679775461E+02 0.12943894752E+02 0.15887914599E+02 0.19522372778E+02
 0.23754108496E+02 0.28367092703E+02 0.33026898475E+02 0.37314474113E+02 0.40786660648E+02
 0.43051173427E+02 0.43838170452E+02 0.43051365307E+02 0.40786788222E+02 0.37314467187E+02
 0.33026947285E+02 0.28367254609E+02 0.23754201430E+02 0.19522318459E+02 0.15887856990E+02
 0.12943909838E+02 0.10679764242E+02 0.90147516448E+01 0.78360672912E+01 0.85048781121E+01
 0.78360882160E+01 0.74317080117E+01 0.72406551405E+01 0.72406865264E+01 0.74317326856E+01
 0.78360466021E+01 0.85048538542E+01 0.95245232096E+01 0.11013292478E+02 0.13102818609E+02
 0.15905145030E+02 0.19471722097E+02 0.23754282756E+02 0.28577801672E+02 0.33635089869E+02
 0.38510312843E+02 0.42732365911E+02 0.45849075054E+02 0.47505089217E+02 0.47505127633E+02
 0.45849109475E+02 0.42732324774E+02 0.38510291148E+02 0.33635152570E+02 0.28577819626E+02
 0.23754156284E+02 0.19471582905E+02 0.15905139716E+02 0.13102869380E+02 0.11013268352E+02
 0.95244743728E+01 0.10347577350E+02 0.95245045964E+01 0.90147830685E+01 0.87374885258E+01
 0.86494242795E+01 0.87374892558E+01 0.90147455467E+01 0.95244536516E+01 0.10347575739E+02
 0.11603875876E+02 0.13438095371E+02 0.15989278903E+02 0.19348740069E+02 0.23516553919E+02
 0.28367313147E+02 0.33635171304E+02 0.38926632822E+02 0.43764819136E+02 0.47659564873E+02
 0.50187656726E+02 0.51063790173E+02 0.50187523152E+02 0.47659405219E+02 0.43764745309E+02
 0.38926635464E+02 0.33635131836E+02 0.28367179290E+02 0.23516437036E+02 0.19348761194E+02
 0.15989387433E+02 0.13438151508E+02 0.11603858453E+02 0.12569254038E+02 0.11603852244E+02
 0.11013267462E+02 0.10679789991E+02 0.10529815632E+02 0.10529784207E+02 0.10679747487E+02
 0.11013275306E+02 0.11603879438E+02 0.12569248170E+02 0.14062369985E+02 0.16244557908E+02
 0.19244259055E+02 0.23111147467E+02 0.27776076317E+02 0.33026973852E+02 0.38510312590E+02
 0.43764742802E+02 0.48284822496E+02 0.51601003061E+02 0.53355170676E+02 0.53355076170E+02
 0.51600850723E+02 0.48284793339E+02 0.43764797696E+02 0.38510308320E+02 0.33026919311E+02
 0.27776087414E+02 0.23111237230E+02 0.19244343182E+02 0.16244604460E+02 0.14062401164E+02
 0.15132647895E+02 0.14062386975E+02 0.13438096648E+02 0.13102835679E+02 0.12943932104E+02
 0.12897593130E+02 0.12943854318E+02 0.13102863755E+02 0.13438211124E+02 0.14062397959E+02
 0.15132592569E+02 0.16828115492E+02 0.19311256379E+02 0.22680673716E+02 0.26927697462E+02
 0.31904598650E+02 0.37314497564E+02 0.42732311202E+02 0.47659321536E+02 0.51600796661E+02
 0.54144447766E+02 0.55020820123E+02 0.54144380434E+02 0.51600878698E+02 0.47659520972E+02
 0.42732369920E+02 0.37314426752E+02 0.31904666050E+02 0.26927905780E+02 0.22680737192E+02
 0.19311123838E+02 0.16828040306E+02 0.17932803248E+02 0.16828118786E+02 0.16244572442E+02
 0.15989297235E+02 0.15905130148E+02 0.15887878278E+02 0.15887783320E+02 0.15905058898E+02
 0.15989434594E+02 0.16244661213E+02 0.16827984214E+02 0.17932763676E+02 0.19752046254E+02
 0.22431829041E+02 0.26025334835E+02 0.30456406521E+02 0.35499557640E+02 0.40786809468E+02
 0.45849042182E+02 0.50187397888E+02 0.53354976784E+02 0.55020761951E+02 0.55020688844E+02
 0.53354972866E+02 0.50187630019E+02 0.45849195608E+02 0.40786656943E+02 0.35499431499E+02
 0.30456581068E+02 0.26025480602E+02 0.22431621938E+02 0.19751780946E+02 0.20786781139E+02
 0.19751990858E+02 0.19311200165E+02 0.19244246661E+02 0.19348737815E+02 0.19471677570E+02
 0.19522297460E+02 0.19471447338E+02 0.19348740069E+02 0.19244460694E+02 0.19311140626E+02
 0.19751685363E+02 0.20786764635E+02 0.22607926757E+02 0.25329809471E+02 0.28950792069E+02
 0.33326801327E+02 0.38165512277E+02 0.43051416487E+02 0.47505171952E+02 0.51063768994E+02
 0.53355075118E+02 0.54144332012E+02 0.53354913089E+02 0.51063790173E+02 0.47505312099E+02
 0.43051289988E+02 0.38165220708E+02 0.33326794887E+02 0.28950983517E+02 0.25329715738E+02
 0.22607624809E+02 0.23443979988E+02 0.22607851255E+02 0.22431768411E+02 0.22680649435E+02
 0.23111162470E+02 0.23516577148E+02 0.23754273026E+02 0.23754073081E+02 0.23516364977E+02
 0.23111339971E+02 0.22680838246E+02 0.22431533232E+02 0.22607532615E+02 0.23444039917E+02
 0.25116364340E+02 0.27697474675E+02 0.31128558586E+02 0.35205023021E+02 0.39586270217E+02
 0.43838305940E+02 0.47505237035E+02 0.50187693696E+02 0.51600961191E+02 0.51600810557E+02
 0.50187516608E+02 0.47505298893E+02 0.43838334982E+02 0.39586051617E+02 0.35204890283E+02
 0.31128734899E+02 0.27697589475E+02 0.25116185111E+02 0.25620684184E+02 0.25116271933E+02
 0.25329792947E+02 0.26025382580E+02 0.26927753103E+02 0.27776118999E+02 0.28367357474E+02
 0.28577846818E+02 0.28367123695E+02 0.27776104291E+02 0.26928002668E+02 0.26025466114E+02
 0.25329620019E+02 0.25116199810E+02 0.25620780201E+02 0.26990676897E+02 0.29252081204E+02
 0.32292203688E+02 0.35858818694E+02 0.39586105687E+02 0.43051227034E+02 0.45849173461E+02
 0.47659626742E+02 0.48284850470E+02 0.47659375420E+02 0.45849120200E+02 0.43051438198E+02
 0.39586194855E+02 0.35858716284E+02 0.32292238590E+02 0.29252279639E+02 0.26990723115E+02
 0.27052865548E+02 0.26990666248E+02 0.27697529139E+02 0.28950881252E+02 0.30456456806E+02
 0.31904594440E+02 0.33026973617E+02 0.33635210157E+02 0.33635120574E+02 0.33026870736E+02
 0.31904673791E+02 0.30456612941E+02 0.28950946540E+02 0.27697564064E+02 0.26990752038E+02
 0.27052894121E+02 0.27994721353E+02 0.29794380522E+02 0.32292278830E+02 0.35204933633E+02
 0.38165207523E+02 0.40786603048E+02 0.42732386344E+02 0.43764845917E+02 0.43764719582E+02
 0.42732245623E+02 0.40786735790E+02 0.38165452805E+02 0.35204993216E+02 0.32292213418E+02
 0.29794409683E+02 0.27994801449E+02 0.27552900874E+02 0.27994751043E+02 0.29252179118E+02
 0.31128661447E+02 0.33326821174E+02 0.35499480719E+02 0.37314398795E+02 0.38510267697E+02
 0.38926632822E+02 0.38510284616E+02 0.37314381810E+02 0.35499426362E+02 0.33326801327E+02
 0.31128723116E+02 0.29252270657E+02 0.27994796495E+02 0.27552910712E+02 0.27994796495E+02
 0.29252270657E+02 0.31128723116E+02 0.33326801327E+02 0.35499426362E+02 0.37314381810E+02
 0.38510284616E+02 0.38926632822E+02 0.38510267697E+02 0.37314398795E+02 0.35499480719E+02
 0.33326821174E+02 0.31128661447E+02 0.29252179118E+02 0.27994751043E+02 0.27052865548E+02
 0.27994801449E+02 0.29794409683E+02 0.32292213418E+02 0.35204993216E+02 0.38165452805E+02
 0.40786735790E+02 0.42732245623E+02 0.43764719582E+02 0.43764845917E+02 0.42732386344E+02
 0.40786603048E+02 0.38165207523E+02 0.35204933633E+02 0.32292278830E+02 0.29794380522E+02
 0.27994721353E+02 0.27052894121E+02 0.26990752038E+02 0.27697564064E+02 0.28950946540E+02
 0.30456612941E+02 0.31904673791E+02 0.33026870736E+02 0.33635120574E+02 0.33635210157E+02
 0.33026973617E+02 0.31904594440E+02 0.30456456806E+02 0.28950881252E+02 0.27697529139E+02
 0.26990666248E+02 0.25620684184E+02 0.26990723115E+02 0.29252279639E+02 0.32292238590E+02
 0.35858716284E+02 0.39586194855E+02 0.43051438198E+02 0.45849120200E+02 0.47659375420E+02
 0.48284850470E+02 0.47659626742E+02 0.45849173461E+02 0.43051227034E+02 0.39586105687E+02
 0.35858818694E+02 0.32292203688E+02 0.29252081204E+02 0.26990676897E+02 0.25620780201E+02
 0.25116199810E+02 0.25329620019E+02 0.26025466114E+02 0.26928002668E+02 0.27776104291E+02
 0.28367123695E+02 0.28577846818E+02 0.28367357474E+02 0.27776118999E+02 0.26927753103E+02
 0.26025382580E+02 0.25329792947E+02 0.25116271933E+02 0.23443979988E+02 0.25116185111E+02
 0.27697589475E+02 0.31128734899E+02 0.35204890283E+02 0.39586051617E+02 0.43838334982E+02
 0.47505298893E+02 0.50187516608E+02 0.51600810557E+02 0.51600961191E+02 0.50187693696E+02
 0.47505237035E+02 0.43838305940E+02 0.39586270217E+02 0.35205023021E+02 0.31128558586E+02
 0.27697474675E+02 0.25116364340E+02 0.23444039917E+02 0.22607532615E+02 0.22431533232E+02
 0.22680838246E+02 0.23111339971E+02 0.23516364977E+02 0.23754073081E+02 0.23754273026E+02
 0.23516577148E+02 0.23111162470E+02 0.22680649435E+02 0.22431768411E+02 0.22607851255E+02
 0.20786781139E+02 0.22607624809E+02 0.25329715738E+02 0.28950983517E+02 0.33326794887E+02
 0.38165220708E+02 0.43051289988E+02 0.47505312099E+02 0.51063790173E+02 0.53354913089E+02
 0.54144332012E+02 0.53355075118E+02 0.51063768994E+02 0.47505171952E+02 0.43051416487E+02
 0.38165512277E+02 0.33326801327E+02 0.28950792069E+02 0.25329809471E+02 0.22607926757E+02
 0.20786764635E+02 0.19751685363E+02 0.19311140626E+02 0.19244460694E+02 0.19348740069E+02
 0.19471447338E+02 0.19522297460E+02 0.19471677570E+02 0.19348737815E+02 0.19244246661E+02
 0.19311200165E+02 0.19751990858E+02 0.17932803248E+02 0.19751780946E+02 0.22431621938E+02
 0.26025480602E+02 0.30456581068E+02 0.35499431499E+02 0.40786656943E+02 0.45849195608E+02
 0.50187630019E+02 0.53354972866E+02 0.55020688844E+02 0.55020761951E+02 0.53354976784E+02
 0.50187397888E+02 0.45849042182E+02 0.40786809468E+02 0.35499557640E+02 0.30456406521E+02
 0.26025334835E+02 0.22431829041E+02 0.19752046254E+02 0.17932763676E+02 0.16827984214E+02
 0.16244661213E+02 0.15989434594E+02 0.15905058898E+02 0.15887783320E+02 0.15887878278E+02
 0.15905130148E+02 0.15989297235E+02 0.16244572442E+02 0.16828118786E+02 0.15132647895E+02
 0.16828040306E+02 0.19311123838E+02 0.22680737192E+02 0.26927905780E+02 0.31904666050E+02
 0.37314426752E+02 0.42732369920E+02 0.47659520972E+02 0.51600878698E+02 0.54144380434E+02
 0.55020820123E+02 0.54144447766E+02 0.51600796661E+02 0.47659321536E+02 0.42732311202E+02
 0.37314497564E+02 0.31904598650E+02 0.26927697462E+02 0.22680673716E+02 0.19311256379E+02
 0.16828115492E+02 0.15132592569E+02 0.14062397959E+02 0.13438211124E+02 0.13102863755E+02
 0.12943854318E+02 0.12897593130E+02 0.12943932104E+02 0.13102835679E+02 0.13438096648E+02
 0.14062386975E+02 0.12569254038E+02 0.14062401164E+02 0.16244604460E+02 0.19244343182E+02
 0.23111237230E+02 0.27776087414E+02 0.33026919311E+02 0.38510308320E+02 0.43764797696E+02
 0.48284793339E+02 0.51600850723E+02 0.53355076170E+02 0.53355170676E+02 0.51601003061E+02
 0.48284822496E+02 0.43764742802E+02 0.38510312590E+02 0.33026973852E+02 0.27776076317E+02
 0.23111147467E+02 0.19244259055E+02 0.16244557908E+02 0.14062369985E+02 0.12569248170E+02
 0.11603879438E+02 0.11013275306E+02 0.10679747487E+02 0.10529784207E+02 0.10529815632E+02
 0.10679789991E+02 0.11013267462E+02 0.11603852244E+02 0.10347577350E+02 0.11603858453E+02
 0.13438151508E+02 0.15989387433E+02 0.19348761194E+02 0.23516437036E+02 0.28367179290E+02
 0.33635131836E+02 0.38926635464E+02 0.43764745309E+02 0.47659405219E+02 0.50187523152E+02
 0.51063790173E+02 0.50187656726E+02 0.47659564873E+02 0.43764819136E+02 0.38926632822E+02
 0.33635171304E+02 0.28367313147E+02 0.23516553919E+02 0.19348740069E+02 0.15989278903E+02
 0.13438095371E+02 0.11603875876E+02 0.10347575739E+02 0.95244536516E+01 0.90147455467E+01
 0.87374892558E+01 0.86494242795E+01 0.87374885258E+01 0.90147830685E+01 0.95245045964E+01
 0.85048781121E+01 0.95244743728E+01 0.11013268352E+02 0.13102869380E+02 0.15905139716E+02
 0.19471582905E+02 0.23754156284E+02 0.28577819626E+02 0.33635152570E+02 0.38510291148E+02
 0.42732324774E+02 0.45849109475E+02 0.47505127633E+02 0.47505089217E+02 0.45849075054E+02
 0.42732365911E+02 0.38510312843E+02 0.33635089869E+02 0.28577801672E+02 0.23754282756E+02
 0.19471722097E+02 0.15905145030E+02 0.13102818609E+02 0.11013292478E+02 0.95245232096E+01
 0.85048538542E+01 0.78360466021E+01 0.74317326856E+01 0.72406865264E+01 0.72406551405E+01
 0.74317080117E+01 0.78360882160E+01 0.70317982955E+01 0.78360672912E+01 0.90147516448E+01
 0.10679764242E+02 0.12943909838E+02 0.15887856990E+02 0.19522318459E+02 0.23754201430E+02
 0.28367254609E+02 0.33026947285E+02 0.37314467187E+02 0.40786788222E+02 0.43051365307E+02
 0.43838170452E+02 0.43051173427E+02 0.40786660648E+02 0.37314474113E+02 0.33026898475E+02
 0.28367092703E+02 0.23754108496E+02 0.19522372778E+02 0.15887914599E+02 0.12943894752E+02
 0.10679775461E+02 0.90148208651E+01 0.78360917481E+01 0.70317666011E+01 0.65129171634E+01
 0.62214337195E+01 0.61271980023E+01 0.62213622031E+01 0.65128959978E+01 0.58938770951E+01
 0.65129154183E+01 0.74317058461E+01 0.87374664833E+01 0.10529776677E+02 0.12897571427E+02
 0.15887811741E+02 0.19471582803E+02 0.23516506697E+02 0.27776104688E+02 0.31904620801E+02
 0.35499517529E+02 0.38165495569E+02 0.39586261396E+02 0.39586149606E+02 0.38165332415E+02
 0.35499525968E+02 0.31904714830E+02 0.27776073750E+02 0.23516367369E+02 0.19471493206E+02
 0.15887792249E+02 0.12897547881E+02 0.10529766932E+02 0.87375100927E+01 0.74317327885E+01
 0.65128719145E+01 0.58938526660E+01 0.55116812078E+01 0.53288176133E+01 0.53287668802E+01
 0.55116183252E+01 0.50471844568E+01 0.55116569010E+01 0.62213969508E+01 0.72406701094E+01
 0.86494207965E+01 0.10529772032E+02 0.12943834520E+02 0.15905053967E+02 0.19348761194E+02
 0.23111249860E+02 0.26927790026E+02 0.30456409186E+02 0.33326794887E+02 0.35205095416E+02
 0.35858905736E+02 0.35205027754E+02 0.33326821174E+02 0.30456572552E+02 0.26927942555E+02
 0.23111286396E+02 0.19348737815E+02 0.15905039473E+02 0.12943816351E+02 0.10529747054E+02
 0.86494242795E+01 0.72406819840E+01 0.62213584010E+01 0.55115953553E+01 0.50471840980E+01
 0.47844522771E+01 0.46993429199E+01 0.47844058440E+01 0.44471141378E+01 0.47844321276E+01
 0.53287971958E+01 0.61272061661E+01 0.72406987157E+01 0.87375237295E+01 0.10679776239E+02
 0.13102812236E+02 0.15989351024E+02 0.19244383153E+02 0.22680749190E+02 0.26025337326E+02
 0.28950741907E+02 0.31128582366E+02 0.32292250587E+02 0.32292276562E+02 0.31128649450E+02
 0.28950818108E+02 0.26025394577E+02 0.22680801968E+02 0.19244464276E+02 0.15989440510E+02
 0.13102847676E+02 0.10679750020E+02 0.87375009405E+01 0.72407122839E+01 0.61272099996E+01
 0.53287603670E+01 0.47843996761E+01 0.44471238274E+01 0.42860122294E+01 0.42859970701E+01
 0.40529579378E+01 0.42860069546E+01 0.46993466566E+01 0.53287851985E+01 0.62213953316E+01
 0.74317510951E+01 0.90148285825E+01 0.11013313498E+02 0.13438149889E+02 0.16244632434E+02
 0.19311241210E+02 0.22431753217E+02 0.25329714119E+02 0.27697424945E+02 0.29252091806E+02
 0.29794334542E+02 0.29252177499E+02 0.27697453997E+02 0.25329605114E+02 0.22431603881E+02
 0.19311198546E+02 0.16244703720E+02 0.13438214020E+02 0.11013295436E+02 0.90147814493E+01
 0.74317531577E+01 0.62214391408E+01 0.53288121291E+01 0.46993413007E+01 0.42860002320E+01
 0.40529624961E+01 0.39778206602E+01 0.38313783272E+01 0.39778250460E+01 0.42860049329E+01
 0.47844181086E+01 0.55116183191E+01 0.65128721911E+01 0.78360652695E+01 0.95245174971E+01
 0.11603884887E+02 0.14062375211E+02 0.16828038284E+02 0.19751910202E+02 0.22607856443E+02
 0.25116351663E+02 0.26990721094E+02 0.27994724285E+02 0.27994753065E+02 0.26990743412E+02
 0.25116269911E+02 0.22607684704E+02 0.19751763267E+02 0.16827989529E+02 0.14062384954E+02
 0.11603878197E+02 0.95244822061E+01 0.78360450917E+01 0.65128939761E+01 0.55116615524E+01
 0.47844484693E+01 0.42860110892E+01 0.39778186385E+01 0.38313742635E+01 0.38946209136E+01
 0.39666713879E+01 0.41904055800E+01 0.45874420798E+01 0.51908101568E+01 0.60419208080E+01
 0.71872910418E+01 0.86733710089E+01 0.10536609534E+02 0.12786741342E+02 0.15384779362E+02
 0.18222228926E+02 0.21111760895E+02 0.23798813946E+02 0.25997198149E+02 0.27442156453E+02
 0.27946381994E+02 0.27442213984E+02 0.25997266644E+02 0.23798833984E+02 0.21111717613E+02
 0.18222172251E+02 0.15384764662E+02 0.12786762529E+02 0.10536620982E+02 0.86733591078E+01
 0.71872816866E+01 0.60419253609E+01 0.51908110788E+01 0.45874325869E+01 0.41904006366E+01
 0.39666751738E+01 0.39666745188E+01 0.39666648600E+01 0.41254682591E+01 0.44576339961E+01
 0.49917704841E+01 0.57694263368E+01 0.68425953368E+01 0.82683738734E+01 0.10098718827E+02
 0.12363655391E+02 0.15048582978E+02 0.18070480534E+02 0.21262026211E+02 0.24373954071E+02
 0.27102135524E+02 0.29137370892E+02 0.30226329935E+02 0.30226311673E+02 0.29137376368E+02
 0.27102243963E+02 0.24374125251E+02 0.21262145701E+02 0.18070507870E+02 0.15048577991E+02
 0.12363674701E+02 0.10098754752E+02 0.82683931430E+01 0.68425842683E+01 0.57693925787E+01
 0.49917348587E+01 0.44576205983E+01 0.41254794229E+01 0.41904051682E+01 0.41037334232E+01
 0.41904016849E+01 0.44576187913E+01 0.49279309264E+01 0.56409139090E+01 0.66531830812E+01
 0.80339675474E+01 0.98540779723E+01 0.12167290329E+02 0.14985249073E+02 0.18250256184E+02
 0.21814003128E+02 0.25432346999E+02 0.28784328881E+02 0.31517024894E+02 0.33308442672E+02
 0.33932615519E+02 0.33308320214E+02 0.31516964441E+02 0.28784439263E+02 0.25432517078E+02
 0.21814063994E+02 0.18250196755E+02 0.14985192480E+02 0.12167308872E+02 0.98541220024E+01
 0.80339683142E+01 0.66531465164E+01 0.56408882379E+01 0.49279329433E+01 0.44576287061E+01
 0.45874306223E+01 0.43930661680E+01 0.43930759000E+01 0.45874325055E+01 0.49917222224E+01
 0.56408677408E+01 0.65927711864E+01 0.79268263906E+01 0.97334768786E+01 0.12093653778E+02
 0.15049995368E+02 0.18574874379E+02 0.22543237785E+02 0.26720165477E+02 0.30772137663E+02
 0.34305982987E+02 0.36931117926E+02 0.38331952163E+02 0.38331909530E+02 0.36931014308E+02
 0.34305878465E+02 0.30772079432E+02 0.26720136175E+02 0.22543184441E+02 0.18574795915E+02
 0.15049949406E+02 0.12093662714E+02 0.97334925727E+01 0.79268156443E+01 0.65927675170E+01
 0.56408989653E+01 0.49917536940E+01 0.51908110788E+01 0.48622944273E+01 0.47556029980E+01
 0.48623432629E+01 0.51908111172E+01 0.57693670521E+01 0.66531075490E+01 0.79267975026E+01
 0.96974509316E+01 0.12073572518E+02 0.15132877996E+02 0.18884582627E+02 0.23235234663E+02
 0.27968373072E+02 0.32747512609E+02 0.37148060932E+02 0.40716566029E+02 0.43047092865E+02
 0.43857656921E+02 0.43047132305E+02 0.40716508355E+02 0.37147890317E+02 0.32747377902E+02
 0.27968351799E+02 0.23235248008E+02 0.18884571870E+02 0.15132881690E+02 0.12073599973E+02
 0.96974515337E+01 0.79267823086E+01 0.66531419848E+01 0.57694285340E+01 0.60419676509E+01
 0.55476340558E+01 0.53108834769E+01 0.53109463906E+01 0.55477120259E+01 0.60419367089E+01
 0.68425722293E+01 0.80339508211E+01 0.97334816295E+01 0.12073578609E+02 0.15167793509E+02
 0.19067634317E+02 0.23720639403E+02 0.28941181472E+02 0.34404139290E+02 0.39668327695E+02
 0.44230545003E+02 0.47602690417E+02 0.49396542290E+02 0.49396648700E+02 0.47602845557E+02
 0.44230541831E+02 0.39668253368E+02 0.34404179253E+02 0.28941297406E+02 0.23720693329E+02
 0.19067647527E+02 0.15167842983E+02 0.12073606962E+02 0.97334307926E+01 0.80339172615E+01
 0.68426272132E+01 0.71873679389E+01 0.64904436881E+01 0.60989719611E+01 0.59725057049E+01
 0.60990543129E+01 0.64904648682E+01 0.71873249587E+01 0.82684247776E+01 0.98541196706E+01
 0.12093660811E+02 0.15132931406E+02 0.19067734940E+02 0.23894314300E+02 0.29470486094E+02
 0.35498872812E+02 0.41540445353E+02 0.47061479858E+02 0.51508771370E+02 0.54398409187E+02
 0.55399145592E+02 0.54398674774E+02 0.51508967163E+02 0.47061481666E+02 0.41540465521E+02
 0.35499011147E+02 0.29470572460E+02 0.23894267653E+02 0.19067698579E+02 0.15132967943E+02
 0.12093651986E+02 0.98540402816E+01 0.82684012509E+01 0.86734203450E+01 0.77339384971E+01
 0.71639395278E+01 0.68941181985E+01 0.68941511081E+01 0.71639627492E+01 0.77338894993E+01
 0.86733944546E+01 0.10098769491E+02 0.12167291367E+02 0.15049964670E+02 0.18884671435E+02
 0.23720820451E+02 0.29470624037E+02 0.35880723353E+02 0.42534304742E+02 0.48889157825E+02
 0.54346802824E+02 0.58304883132E+02 0.60356310321E+02 0.60356393897E+02 0.58304995322E+02
 0.54346782889E+02 0.48889099655E+02 0.42534339372E+02 0.35880751845E+02 0.29470519986E+02
 0.23720691908E+02 0.18884668407E+02 0.15050012607E+02 0.12167256398E+02 0.10098710386E+02
 0.10536620982E+02 0.93174440468E+01 0.85495755561E+01 0.81266163462E+01 0.79914368733E+01
 0.81266263310E+01 0.85495391453E+01 0.93173830717E+01 0.10536615538E+02 0.12363665799E+02
 0.14985150722E+02 0.18574745060E+02 0.23235238058E+02 0.28941329196E+02 0.35499032859E+02
 0.42534326826E+02 0.49519546534E+02 0.55823203211E+02 0.60707912658E+02 0.63709359094E+02
 0.64710402884E+02 0.63709193986E+02 0.60707703374E+02 0.55823092026E+02 0.49519549738E+02
 0.42534317082E+02 0.35498924894E+02 0.28941216168E+02 0.23235248008E+02 0.18574836828E+02
 0.14985187948E+02 0.12363636408E+02 0.12786783739E+02 0.11264726294E+02 0.10290563212E+02
 0.97165816658E+01 0.94505927524E+01 0.94505611137E+01 0.97165412065E+01 0.10290575278E+02
 0.11264751176E+02 0.12786765818E+02 0.15048560850E+02 0.18250132363E+02 0.22543086231E+02
 0.27968264953E+02 0.34404135841E+02 0.41540455291E+02 0.48889095843E+02 0.55823105383E+02
 0.61507148860E+02 0.65347522027E+02 0.67230742843E+02 0.67230613236E+02 0.65347293862E+02
 0.61507061292E+02 0.55823152184E+02 0.48889122156E+02 0.41540435548E+02 0.34404158173E+02
 0.27968337709E+02 0.22543143741E+02 0.18250166782E+02 0.15048599856E+02 0.15384895080E+02
 0.13565221240E+02 0.12396614121E+02 0.11691911351E+02 0.11318337851E+02 0.11201498596E+02
 0.11318240435E+02 0.11691937976E+02 0.12396748369E+02 0.13565233453E+02 0.15384809964E+02
 0.18070564081E+02 0.21814068852E+02 0.26720074276E+02 0.32747317552E+02 0.39668258824E+02
 0.47061513235E+02 0.54346745363E+02 0.60707595685E+02 0.65347240450E+02 0.68037992079E+02
 0.68902137969E+02 0.68037900867E+02 0.65347323835E+02 0.60707833792E+02 0.54346835363E+02
 0.47061437499E+02 0.39668304421E+02 0.32747508321E+02 0.26720125447E+02 0.21813938107E+02
 0.18070515978E+02 0.18222332348E+02 0.16152068079E+02 0.14831072326E+02 0.14041061663E+02
 0.13607615181E+02 0.13417471830E+02 0.13417361501E+02 0.13607528776E+02 0.14041215353E+02
 0.14831179620E+02 0.16151922958E+02 0.18222273327E+02 0.21262256349E+02 0.25432551492E+02
 0.30772078995E+02 0.37147951763E+02 0.44230645049E+02 0.51508977213E+02 0.58304851629E+02
 0.63709002850E+02 0.67230499822E+02 0.68902082383E+02 0.68901986635E+02 0.67230491874E+02
 0.63709315135E+02 0.58305094182E+02 0.51508815829E+02 0.44230441549E+02 0.37148085715E+02
 0.30772241494E+02 0.25432365744E+02 0.21262002474E+02 0.21111717613E+02 0.18885956198E+02
 0.17490958955E+02 0.16690885893E+02 0.16273644276E+02 0.16083198956E+02 0.16029150556E+02
 0.16082928133E+02 0.16273646650E+02 0.16691143127E+02 0.17490909368E+02 0.18885627947E+02
 0.21111714978E+02 0.24374180630E+02 0.28784500031E+02 0.34305904932E+02 0.40716521748E+02
 0.47602888785E+02 0.54398744155E+02 0.60356431731E+02 0.64710356497E+02 0.67230620309E+02
 0.68037861660E+02 0.67230441048E+02 0.64710402884E+02 0.60356613244E+02 0.54398588521E+02
 0.47602522682E+02 0.40716508355E+02 0.34306161014E+02 0.28784434732E+02 0.24373845321E+02
 0.23798622161E+02 0.21555259838E+02 0.20198791817E+02 0.19492309677E+02 0.19194709311E+02
 0.19106765783E+02 0.19094816737E+02 0.19094565890E+02 0.19106497598E+02 0.19194928663E+02
 0.19492552282E+02 0.20198524254E+02 0.21554909748E+02 0.23798749082E+02 0.27102275937E+02
 0.31516984406E+02 0.36930913794E+02 0.43047015881E+02 0.49396708744E+02 0.55399380095E+02
 0.60356500493E+02 0.63709357245E+02 0.65347443510E+02 0.65347288994E+02 0.63709186218E+02
 0.60356565856E+02 0.55399348653E+02 0.49396394587E+02 0.43046885182E+02 0.36931206641E+02
 0.31517167502E+02 0.27102032795E+02 0.25997013390E+02 0.23898803027E+02 0.22714785015E+02
 0.22223584801E+02 0.22167549543E+02 0.22307946042E+02 0.22463628544E+02 0.22526955596E+02
 0.22463335172E+02 0.22307931502E+02 0.22167851069E+02 0.22223648273E+02 0.22714537302E+02
 0.23898744000E+02 0.25997203254E+02 0.29137357839E+02 0.33308304617E+02 0.38331831792E+02
 0.43857546096E+02 0.49396505684E+02 0.54398490901E+02 0.58305002963E+02 0.60707979357E+02
 0.61507178833E+02 0.60707659404E+02 0.58304935606E+02 0.54398748693E+02 0.49396593342E+02
 0.43857403667E+02 0.38331898802E+02 0.33308577999E+02 0.29137384476E+02 0.27442098637E+02
 0.25649266364E+02 0.24771180307E+02 0.24616031206E+02 0.24924477651E+02 0.25426517413E+02
 0.25892554866E+02 0.26164434972E+02 0.26164317093E+02 0.25892434930E+02 0.25426642430E+02
 0.24924645797E+02 0.24616016692E+02 0.24771160615E+02 0.25649406848E+02 0.27442188664E+02
 0.30226348967E+02 0.33932705944E+02 0.38331955901E+02 0.43046936930E+02 0.47602492853E+02
 0.51508701769E+02 0.54346869472E+02 0.55823259465E+02 0.55823048916E+02 0.54346626241E+02
 0.51508895480E+02 0.47602865579E+02 0.43047012819E+02 0.38331838780E+02 0.33932739628E+02
 0.30226443890E+02 0.27946381994E+02 0.26586690235E+02 0.26121705499E+02 0.26398859834E+02
 0.27172377567E+02 0.28153750954E+02 0.29068967862E+02 0.29704598004E+02 0.29930713622E+02
 0.29704542093E+02 0.29068957806E+02 0.28153786360E+02 0.27172372581E+02 0.26398841436E+02
 0.26121766225E+02 0.26586782814E+02 0.27946401127E+02 0.30226402533E+02 0.33308557871E+02
 0.36931187398E+02 0.40716521748E+02 0.44230423171E+02 0.47061382816E+02 0.48889136413E+02
 0.49519546534E+02 0.48889034807E+02 0.47061393606E+02 0.44230564494E+02 0.40716566029E+02
 0.36931058110E+02 0.33308438140E+02 0.30226392370E+02 0.27442120580E+02 0.26586756291E+02
 0.26592785327E+02 0.27351948028E+02 0.28645553468E+02 0.30182733940E+02 0.31655509611E+02
 0.32795517523E+02 0.33413263346E+02 0.33413317113E+02 0.32795573604E+02 0.31655435593E+02
 0.30182594197E+02 0.28645490023E+02 0.27351953082E+02 0.26592755178E+02 0.26586685160E+02
 0.27442091665E+02 0.29137384950E+02 0.31517160356E+02 0.34306149643E+02 0.37148130208E+02
 0.39668285935E+02 0.41540398207E+02 0.42534329900E+02 0.42534384327E+02 0.41540472463E+02
 0.39668249532E+02 0.37147989758E+02 0.34305999370E+02 0.31517052004E+02 0.29137335673E+02
 0.25997070743E+02 0.25649362648E+02 0.26121784657E+02 0.27351940106E+02 0.29158694354E+02
 0.31266102528E+02 0.33348867190E+02 0.35091653475E+02 0.36242461300E+02 0.36643803681E+02
 0.36242638595E+02 0.35091687247E+02 0.33348704863E+02 0.31266021816E+02 0.29158762094E+02
 0.27351925972E+02 0.26121638819E+02 0.25649282738E+02 0.25997077407E+02 0.27102072877E+02
 0.28784372625E+02 0.30772230329E+02 0.32747575377E+02 0.34404165814E+02 0.35498905453E+02