   6   6   0   0
  0.3178985E+02  0.4380470E-09  0.4380470E-09  0.1147804E-08  0.5000000E-15
  1.000000000000000E-004
  CAR 
 Sb                                      
     22.01810540     -6.99851021  301      6.63907365      1.00000000
     -6.999  0.0000E+00  0.0000E+00
     -6.902  0.0000E+00  0.0000E+00
     -6.805  0.0000E+00  0.0000E+00
     -6.708  0.0000E+00  0.0000E+00
     -6.612  0.0000E+00  0.0000E+00
     -6.515  0.0000E+00  0.0000E+00
     -6.418  0.0000E+00  0.0000E+00
     -6.321  0.0000E+00  0.0000E+00
     -6.225  0.0000E+00  0.0000E+00
     -6.128  0.0000E+00  0.0000E+00
     -6.031  0.0000E+00  0.0000E+00
     -5.935  0.4969E-14  0.4806E-15
     -5.838  0.8501E-07  0.8222E-08
     -5.741  0.1322E-02  0.1279E-03
     -5.644  0.9153E-01  0.8981E-02
     -5.548  0.4545E+00  0.5294E-01
     -5.451  0.6267E+00  0.1136E+00
     -5.354  0.9623E+00  0.2066E+00
     -5.258  0.7568E+00  0.2798E+00
     -5.161  0.1314E+01  0.4069E+00
     -5.064  0.1325E+01  0.5350E+00
     -4.967  0.1197E+01  0.6508E+00
     -4.871  0.1289E+01  0.7755E+00
     -4.774  0.2004E+01  0.9693E+00
     -4.677  0.1668E+01  0.1131E+01
     -4.580  0.1784E+01  0.1303E+01
     -4.484  0.1653E+01  0.1463E+01
     -4.387  0.2289E+01  0.1684E+01
     -4.290  0.2728E+01  0.1948E+01
     -4.194  0.2541E+01  0.2194E+01
     -4.097  0.2412E+01  0.2427E+01
     -4.000  0.2423E+01  0.2662E+01
     -3.903  0.3027E+01  0.2955E+01
     -3.807  0.3180E+01  0.3262E+01
     -3.710  0.3383E+01  0.3589E+01
     -3.613  0.3138E+01  0.3893E+01
     -3.517  0.3282E+01  0.4210E+01
     -3.420  0.3343E+01  0.4534E+01
     -3.323  0.5876E+01  0.5102E+01
     -3.226  0.3712E+01  0.5461E+01
     -3.130  0.1701E+01  0.5626E+01
     -3.033  0.1317E+01  0.5753E+01
     -2.936  0.1311E+01  0.5880E+01
     -2.839  0.5380E+00  0.5932E+01
     -2.743  0.8276E+00  0.6012E+01
     -2.646  0.1371E+01  0.6145E+01
     -2.549  0.1611E+01  0.6300E+01
     -2.453  0.1671E+01  0.6462E+01
     -2.356  0.2112E+01  0.6666E+01
     -2.259  0.2308E+01  0.6890E+01
     -2.162  0.3088E+01  0.7188E+01
     -2.066  0.2930E+01  0.7472E+01
     -1.969  0.2823E+01  0.7745E+01
     -1.872  0.4096E+01  0.8141E+01
     -1.776  0.3992E+01  0.8527E+01
     -1.679  0.3719E+01  0.8887E+01
     -1.582  0.2993E+01  0.9176E+01
     -1.485  0.2904E+01  0.9457E+01
     -1.389  0.2401E+01  0.9689E+01
     -1.292  0.2502E+01  0.9931E+01
     -1.195  0.1864E+01  0.1011E+02
     -1.098  0.2454E+01  0.1035E+02
     -1.002  0.2297E+01  0.1057E+02
     -0.905  0.1259E+01  0.1069E+02
     -0.808  0.1051E+01  0.1079E+02
     -0.712  0.1004E+01  0.1089E+02
     -0.615  0.1269E+01  0.1101E+02
     -0.518  0.1280E+01  0.1114E+02
     -0.421  0.1393E+01  0.1127E+02
     -0.325  0.8675E+00  0.1136E+02
     -0.228  0.3988E+00  0.1140E+02
     -0.131  0.6090E+00  0.1145E+02
     -0.035  0.6370E+00  0.1152E+02
      0.062  0.7653E+00  0.1159E+02
      0.159  0.4979E+00  0.1164E+02
      0.256  0.9071E+00  0.1173E+02
      0.352  0.2738E+00  0.1175E+02
      0.449  0.2710E+00  0.1178E+02
      0.546  0.2522E+00  0.1180E+02
      0.643  0.2978E+00  0.1183E+02
      0.739  0.4580E+00  0.1188E+02
      0.836  0.2528E+00  0.1190E+02
      0.933  0.3420E+00  0.1193E+02
      1.029  0.8928E-01  0.1194E+02
      1.126  0.1301E+00  0.1195E+02
      1.223  0.8827E-01  0.1196E+02
      1.320  0.1891E+00  0.1198E+02
      1.416  0.1339E+00  0.1199E+02
      1.513  0.4156E+00  0.1203E+02
      1.610  0.1478E+01  0.1218E+02
      1.706  0.2127E+01  0.1238E+02
      1.803  0.2001E+01  0.1258E+02
      1.900  0.1887E+01  0.1276E+02
      1.997  0.2891E+01  0.1304E+02
      2.093  0.2980E+01  0.1333E+02
      2.190  0.2169E+01  0.1354E+02
      2.287  0.2608E+01  0.1379E+02
      2.384  0.2541E+01  0.1404E+02
      2.480  0.2735E+01  0.1430E+02
      2.577  0.3157E+01  0.1460E+02
      2.674  0.3176E+01  0.1491E+02
      2.770  0.3892E+01  0.1529E+02
      2.867  0.2916E+01  0.1557E+02
      2.964  0.3273E+01  0.1589E+02
      3.061  0.3923E+01  0.1627E+02
      3.157  0.4261E+01  0.1668E+02
      3.254  0.5477E+01  0.1721E+02
      3.351  0.4743E+01  0.1767E+02
      3.447  0.4831E+01  0.1813E+02
      3.544  0.4186E+01  0.1854E+02
      3.641  0.4897E+01  0.1901E+02
      3.738  0.5433E+01  0.1954E+02
      3.834  0.4713E+01  0.1999E+02
      3.931  0.4940E+01  0.2047E+02
      4.028  0.4178E+01  0.2088E+02
      4.125  0.4415E+01  0.2130E+02
      4.221  0.5316E+01  0.2182E+02
      4.318  0.4967E+01  0.2230E+02
      4.415  0.4530E+01  0.2274E+02
      4.511  0.4616E+01  0.2318E+02
      4.608  0.4671E+01  0.2363E+02
      4.705  0.5178E+01  0.2414E+02
      4.802  0.5384E+01  0.2466E+02
      4.898  0.4610E+01  0.2510E+02
      4.995  0.4509E+01  0.2554E+02
      5.092  0.4264E+01  0.2595E+02
      5.188  0.4442E+01  0.2638E+02
      5.285  0.4371E+01  0.2680E+02
      5.382  0.4092E+01  0.2720E+02
      5.479  0.3695E+01  0.2756E+02
      5.575  0.3100E+01  0.2786E+02
      5.672  0.3171E+01  0.2816E+02
      5.769  0.3222E+01  0.2847E+02
      5.866  0.3142E+01  0.2878E+02
      5.962  0.2386E+01  0.2901E+02
      6.059  0.2183E+01  0.2922E+02
      6.156  0.3008E+01  0.2951E+02
      6.252  0.1784E+01  0.2968E+02
      6.349  0.1570E+01  0.2984E+02
      6.446  0.9190E+00  0.2992E+02
      6.543  0.4415E+00  0.2997E+02
      6.639  0.3422E+00  0.3000E+02
      6.736  0.3314E+00  0.3003E+02
      6.833  0.4151E+00  0.3007E+02
      6.929  0.1452E+01  0.3021E+02
      7.026  0.2938E+01  0.3050E+02
      7.123  0.4585E+01  0.3094E+02
      7.220  0.5341E+01  0.3146E+02
      7.316  0.5587E+01  0.3200E+02
      7.413  0.5324E+01  0.3251E+02
      7.510  0.4071E+01  0.3291E+02
      7.607  0.3743E+01  0.3327E+02
      7.703  0.3348E+01  0.3359E+02
      7.800  0.3578E+01  0.3394E+02
      7.897  0.2902E+01  0.3422E+02
      7.993  0.3232E+01  0.3453E+02
      8.090  0.3735E+01  0.3489E+02
      8.187  0.4162E+01  0.3530E+02
      8.284  0.4199E+01  0.3570E+02
      8.380  0.4502E+01  0.3614E+02
      8.477  0.5063E+01  0.3663E+02
      8.574  0.5011E+01  0.3711E+02
      8.670  0.4815E+01  0.3758E+02
      8.767  0.5086E+01  0.3807E+02
      8.864  0.5036E+01  0.3856E+02
      8.961  0.5449E+01  0.3908E+02
      9.057  0.4600E+01  0.3953E+02
      9.154  0.4011E+01  0.3992E+02
      9.251  0.3316E+01  0.4024E+02
      9.348  0.3927E+01  0.4062E+02
      9.444  0.4090E+01  0.4101E+02
      9.541  0.3451E+01  0.4135E+02
      9.638  0.4038E+01  0.4174E+02
      9.734  0.3846E+01  0.4211E+02
      9.831  0.5247E+01  0.4262E+02
      9.928  0.4877E+01  0.4309E+02
     10.025  0.3850E+01  0.4346E+02
     10.121  0.3664E+01  0.4381E+02
     10.218  0.3484E+01  0.4415E+02
     10.315  0.3601E+01  0.4450E+02
     10.411  0.2816E+01  0.4477E+02
     10.508  0.2716E+01  0.4503E+02
     10.605  0.2903E+01  0.4532E+02
     10.702  0.3693E+01  0.4567E+02
     10.798  0.4026E+01  0.4606E+02
     10.895  0.3919E+01  0.4644E+02
     10.992  0.4414E+01  0.4687E+02
     11.089  0.5746E+01  0.4742E+02
     11.185  0.5803E+01  0.4799E+02
     11.282  0.4871E+01  0.4846E+02
     11.379  0.4936E+01  0.4893E+02
     11.475  0.4980E+01  0.4942E+02
     11.572  0.5146E+01  0.4991E+02
     11.669  0.5548E+01  0.5045E+02
     11.766  0.4443E+01  0.5088E+02
     11.862  0.3961E+01  0.5126E+02
     11.959  0.4621E+01  0.5171E+02
     12.056  0.4050E+01  0.5210E+02
     12.152  0.4542E+01  0.5254E+02
     12.249  0.4979E+01  0.5302E+02
     12.346  0.3721E+01  0.5338E+02
     12.443  0.4209E+01  0.5379E+02
     12.539  0.4046E+01  0.5418E+02
     12.636  0.3074E+01  0.5448E+02
     12.733  0.3164E+01  0.5478E+02
     12.830  0.3347E+01  0.5511E+02
     12.926  0.3333E+01  0.5543E+02
     13.023  0.2680E+01  0.5569E+02
     13.120  0.2582E+01  0.5594E+02
     13.216  0.2695E+01  0.5620E+02
     13.313  0.3141E+01  0.5650E+02
     13.410  0.3127E+01  0.5681E+02
     13.507  0.2920E+01  0.5709E+02
     13.603  0.4011E+01  0.5748E+02
     13.700  0.3419E+01  0.5781E+02
     13.797  0.4469E+01  0.5824E+02
     13.893  0.4355E+01  0.5866E+02
     13.990  0.3374E+01  0.5899E+02
     14.087  0.4545E+01  0.5943E+02
     14.184  0.4576E+01  0.5987E+02
     14.280  0.3699E+01  0.6023E+02
     14.377  0.3789E+01  0.6059E+02
     14.474  0.4398E+01  0.6102E+02
     14.571  0.4061E+01  0.6141E+02
     14.667  0.4284E+01  0.6183E+02
     14.764  0.4718E+01  0.6228E+02
     14.861  0.6119E+01  0.6287E+02
     14.957  0.5480E+01  0.6340E+02
     15.054  0.5104E+01  0.6390E+02
     15.151  0.5633E+01  0.6444E+02
     15.248  0.7121E+01  0.6513E+02
     15.344  0.5528E+01  0.6567E+02
     15.441  0.4721E+01  0.6612E+02
     15.538  0.5403E+01  0.6665E+02
     15.634  0.6812E+01  0.6730E+02
     15.731  0.6858E+01  0.6797E+02
     15.828  0.6924E+01  0.6864E+02
     15.925  0.6431E+01  0.6926E+02
     16.021  0.6542E+01  0.6989E+02
     16.118  0.5482E+01  0.7042E+02
     16.215  0.5740E+01  0.7098E+02
     16.312  0.5238E+01  0.7148E+02
     16.408  0.5730E+01  0.7204E+02
     16.505  0.6006E+01  0.7262E+02
     16.602  0.7436E+01  0.7334E+02
     16.698  0.7491E+01  0.7406E+02
     16.795  0.6965E+01  0.7474E+02
     16.892  0.7397E+01  0.7545E+02
     16.989  0.5876E+01  0.7602E+02
     17.085  0.5884E+01  0.7659E+02
     17.182  0.5974E+01  0.7717E+02
     17.279  0.4961E+01  0.7765E+02
     17.375  0.5288E+01  0.7816E+02
     17.472  0.4865E+01  0.7863E+02
     17.569  0.7611E+01  0.7936E+02
     17.666  0.6794E+01  0.8002E+02
     17.762  0.5296E+01  0.8053E+02
     17.859  0.5553E+01  0.8107E+02
     17.956  0.6918E+01  0.8174E+02
     18.053  0.6717E+01  0.8239E+02
     18.149  0.5255E+01  0.8290E+02
     18.246  0.7778E+01  0.8365E+02
     18.343  0.7637E+01  0.8439E+02
     18.439  0.5123E+01  0.8488E+02
     18.536  0.6672E+01  0.8553E+02
     18.633  0.5968E+01  0.8611E+02
     18.730  0.6022E+01  0.8669E+02
     18.826  0.6260E+01  0.8730E+02
     18.923  0.6038E+01  0.8788E+02
     19.020  0.7310E+01  0.8859E+02
     19.116  0.7782E+01  0.8934E+02
     19.213  0.8286E+01  0.9014E+02
     19.310  0.8174E+01  0.9093E+02
     19.407  0.7611E+01  0.9167E+02
     19.503  0.6749E+01  0.9232E+02
     19.600  0.5983E+01  0.9290E+02
     19.697  0.5544E+01  0.9343E+02
     19.793  0.5724E+01  0.9399E+02
     19.890  0.5717E+01  0.9454E+02
     19.987  0.4366E+01  0.9496E+02
     20.084  0.2915E+01  0.9525E+02
     20.180  0.1895E+01  0.9543E+02
     20.277  0.2221E+01  0.9564E+02
     20.374  0.1661E+01  0.9580E+02
     20.471  0.7407E+00  0.9588E+02
     20.567  0.4220E+00  0.9592E+02
     20.664  0.5281E+00  0.9597E+02
     20.761  0.3197E+00  0.9600E+02
     20.857  0.9970E-02  0.9600E+02
     20.954  0.7663E-06  0.9600E+02
     21.051  0.4917E-13  0.9600E+02
     21.148  0.0000E+00  0.9600E+02
     21.244  0.0000E+00  0.9600E+02
     21.341  0.0000E+00  0.9600E+02
     21.438  0.0000E+00  0.9600E+02
     21.534  0.0000E+00  0.9600E+02
     21.631  0.0000E+00  0.9600E+02
     21.728  0.0000E+00  0.9600E+02
     21.825  0.0000E+00  0.9600E+02
     21.921  0.0000E+00  0.9600E+02
     22.018  0.0000E+00  0.9600E+02
