 vasp.6.4.3 19Mar24 (build Jun 26 2024 13:02:28) complex                        
  
 executed on             LinuxIFC date 2025.08.08  18:39:09
 running   48 mpi-ranks, on    4 nodes
 distrk:  each k-point on   48 cores,    1 groups
 distr:  one band on NCORE=   1 cores,   48 groups


--------------------------------------------------------------------------------------------------------


 INCAR:
   ENCUT = 223.6897
   IBRION = -1
   ISMEAR = 0
   ISYM = 2
   LCHARG = True
   LWAVE = True
   SIGMA = 0.05
   SYSTEM = Sb

 POTCAR:  PAW_PBE Sb 06Sep2000                    
 -----------------------------------------------------------------------------
|                                                                             |
|           W    W    AA    RRRRR   N    N  II  N    N   GGGG   !!!           |
|           W    W   A  A   R    R  NN   N  II  NN   N  G    G  !!!           |
|           W    W  A    A  R    R  N N  N  II  N N  N  G       !!!           |
|           W WW W  AAAAAA  RRRRR   N  N N  II  N  N N  G  GGG   !            |
|           WW  WW  A    A  R   R   N   NN  II  N   NN  G    G                |
|           W    W  A    A  R    R  N    N  II  N    N   GGGG   !!!           |
|                                                                             |
|     For optimal performance we recommend to set                             |
|       NCORE = 2 up to number-of-cores-per-socket                            |
|     NCORE specifies how many cores store one orbital (NPAR=cpu/NCORE).      |
|     This setting can greatly improve the performance of VASP for DFT.       |
|     The default, NCORE=1 might be grossly inefficient on modern             |
|     multi-core architectures or massively parallel machines. Do your        |
|     own testing! More info at https://www.vasp.at/wiki/index.php/NCORE      |
|     Unfortunately you need to use the default for GW and RPA                |
|     calculations (for HF NCORE is supported but not extensively tested      |
|     yet).                                                                   |
|                                                                             |
 -----------------------------------------------------------------------------

 POTCAR:  PAW_PBE Sb 06Sep2000                    
   VRHFIN =Sb: s2p3                                                                                 
   LEXCH  = PE                                                                                      
   EATOM  =   149.9515 eV,   11.0211 Ry                                                             
                                                                                                    
   TITEL  = PAW_PBE Sb 06Sep2000                                                                    
   LULTRA =        F    use ultrasoft PP ?                                                          
   IUNSCR =        1    unscreen: 0-lin 1-nonlin 2-no                                               
   RPACOR =    2.200    partial core radius                                                         
   POMASS =  121.750; ZVAL   =    5.000    mass and valenz                                          
   RCORE  =    2.300    outmost cutoff radius                                                       
   RWIGS  =    2.980; RWIGS  =    1.577    wigner-seitz radius (au A)                               
   ENMAX  =  172.069; ENMIN  =  129.052 eV                                                          
   ICORE  =        3    local potential                                                             
   LCOR   =        T    correct aug charges                                                         
   LPAW   =        T    paw PP                                                                      
   EAUG   =  380.513                                                                                
   DEXC   =    0.000                                                                                
   RMAX   =    2.346    core radius for proj-oper                                                   
   RAUG   =    1.300    factor for augmentation sphere                                              
   RDEP   =    2.360    radius for radial grids                                                     
   RDEPT  =    2.192    core radius for aug-charge                                                  
                                                                                                    
   Atomic configuration                                                                             
   13 entries                                                                                       
     n  l   j            E        occ.                                                              
     1  0  0.50    -30298.2797   2.0000                                                             
     2  0  0.50     -4610.2252   2.0000                                                             
     2  1  1.50     -4138.3407   6.0000                                                             
     3  0  0.50      -903.8815   2.0000                                                             
     3  1  1.50      -750.1337   6.0000                                                             
     3  2  2.50      -515.7092  10.0000                                                             
     4  0  0.50      -148.8034   2.0000                                                             
     4  1  1.50      -101.7581   6.0000                                                             
     4  2  2.50       -33.5048  10.0000                                                             
     5  0  0.50       -12.8298   2.0000                                                             
     5  1  0.50        -4.8276   3.0000                                                             
     5  2  1.50        -4.0817   0.0000                                                             
     4  3  2.50        -4.0817   0.0000                                                             
   Description                                                                                      
     l       E           TYP  RCUT    TYP  RCUT                                                     
     0    -12.8297861     23  2.300                                                                 
     0     13.6058260     23  2.300                                                                 
     1     -4.8275512     23  2.300                                                                 
     1     -0.7245443     23  2.300                                                                 
     2     -4.0817478     23  2.300                                                                 
     3     -1.3605826     23  2.300                                                                 
  local pseudopotential read in
  partial core-charges read in
  partial kinetic energy density read in
  atomic valenz-charges read in
  non local Contribution for L=           0  read in
    real space projection operators read in
  non local Contribution for L=           0  read in
    real space projection operators read in
  non local Contribution for L=           1  read in
    real space projection operators read in
  non local Contribution for L=           1  read in
    real space projection operators read in
  non local Contribution for L=           2  read in
    real space projection operators read in
    PAW grid and wavefunctions read in
 
   number of l-projection  operators is LMAX  =           5
   number of lm-projection operators is LMMAX =          13
 
PAW_PBE Sb 06Sep2000                    :
 energy of atom  1       EATOM= -149.9515
 kinetic energy error for atom=    0.0031 (will be added to EATOM!!)
 
 
 POSCAR: Sb6
  positions in direct lattice
  No initial velocities read in


 exchange-correlation table for PE
   RHO(1)=    0.500       N(1)  =     2000
   RHO(2)=  100.500       N(2)  =     4000
 


--------------------------------------------------------------------------------------------------------


 ion  position               nearest neighbor table
   1  0.000  0.000  0.233-   4 2.96   4 2.96   4 2.96   6 3.42   6 3.42   6 3.42
   2  0.000  0.000  0.767-   5 2.96   5 2.96   5 2.96   3 3.42   3 3.42   3 3.42
   3  0.667  0.333  0.567-   6 2.96   6 2.96   6 2.96   2 3.42   2 3.42   2 3.42
   4  0.667  0.333  0.100-   1 2.96   1 2.96   1 2.96   5 3.42   5 3.42   5 3.42
   5  0.333  0.667  0.900-   2 2.96   2 2.96   2 2.96   4 3.42   4 3.42   4 3.42
   6  0.333  0.667  0.433-   3 2.96   3 2.96   3 2.96   1 3.42   1 3.42   1 3.42
 
  LATTYP: Found a hexagonal cell.
 ALAT       =     4.3804700000
 C/A-ratio  =     2.6202759065
  
  Lattice vectors:
  
 A1 = (   4.3804700000,   0.0000000000,   0.0000000000)
 A2 = (  -2.1902350000,   3.7935983005,   0.0000000000)
 A3 = (   0.0000000000,   0.0000000000,  11.4780400000)


Analysis of symmetry for initial positions (statically):
=====================================================================
 Subroutine PRICEL returns:
 Original cell was already a primitive cell.
 

 Routine SETGRP: Setting up the symmetry group for a 
 hexagonal supercell.


 Subroutine GETGRP returns: Found 12 space group operations
 (whereof 12 operations were pure point group operations)
 out of a pool of 24 trial point group operations.


The static configuration has the point symmetry D_3d.


Analysis of symmetry for dynamics (positions and initial velocities):
=====================================================================
 Subroutine PRICEL returns:
 Original cell was already a primitive cell.
 

 Routine SETGRP: Setting up the symmetry group for a 
 hexagonal supercell.


 Subroutine GETGRP returns: Found 12 space group operations
 (whereof 12 operations were pure point group operations)
 out of a pool of 24 trial point group operations.


The dynamic configuration has the point symmetry D_3d.


 Subroutine INISYM returns: Found 12 space group operations
 (whereof 12 operations are pure point group operations),
 and found     1 'primitive' translations


----------------------------------------------------------------------------------------

                                     Primitive cell                                     

  volume of cell :     190.7391

  direct lattice vectors                    reciprocal lattice vectors
     4.380470000  0.000000000  0.000000000     0.228286006  0.131800987  0.000000000
    -2.190235000  3.793598301  0.000000000     0.000000000  0.263601974  0.000000000
     0.000000000  0.000000000 11.478040000    -0.000000000 -0.000000000  0.087122889

  length of vectors
     4.380470000  4.380470000 11.478040000     0.263601974  0.263601974  0.087122889

  position of ions in fractional coordinates (direct lattice)
     0.000000000  0.000000000  0.233320000
     0.000000000  0.000000000  0.766680000
     0.666666667  0.333333333  0.566660000
     0.666666667  0.333333333  0.100010000
     0.333333333  0.666666667  0.899990000
     0.333333333  0.666666667  0.433340000

  ion indices of the primitive-cell ions
   primitive index   ion index
                 1           1
                 2           2
                 3           3
                 4           4
                 5           5
                 6           6

----------------------------------------------------------------------------------------

 
 
 KPOINTS: Automatic kpoint scheme                 

Automatic generation of k-mesh.
 Grid dimensions read from file:
 generate k-points for:   12   12   12

 Generating k-lattice:

  Cartesian coordinates                     Fractional coordinates (reciprocal lattice)
     0.019023834  0.010983416  0.000000000     0.083333333  0.000000000  0.000000000
     0.000000000  0.021966831  0.000000000     0.000000000  0.083333333  0.000000000
    -0.000000000 -0.000000000  0.007260241     0.000000000 -0.000000000  0.083333333

  Length of vectors
     0.021966831  0.021966831  0.007260241

  Shift w.r.t. Gamma in fractional coordinates (k-lattice)
     0.000000000  0.000000000  0.000000000

 
 Subroutine IBZKPT returns following result:
 ===========================================
 
 Found    193 irreducible k-points:
 
 Following reciprocal coordinates:
            Coordinates               Weight
  0.000000  0.000000  0.000000      1.000000
  0.083333  0.000000  0.000000      6.000000
  0.166667  0.000000  0.000000      6.000000
  0.250000  0.000000  0.000000      6.000000
  0.333333  0.000000  0.000000      6.000000
  0.416667  0.000000  0.000000      6.000000
  0.500000  0.000000  0.000000      3.000000
  0.083333  0.083333  0.000000      6.000000
  0.166667  0.083333  0.000000     12.000000
  0.250000  0.083333  0.000000     12.000000
  0.333333  0.083333  0.000000     12.000000
  0.416667  0.083333  0.000000     12.000000
  0.166667  0.166667  0.000000      6.000000
  0.250000  0.166667  0.000000     12.000000
  0.333333  0.166667  0.000000     12.000000
  0.416667  0.166667  0.000000      6.000000
  0.250000  0.250000  0.000000      6.000000
  0.333333  0.250000  0.000000     12.000000
  0.333333  0.333333  0.000000      2.000000
  0.000000  0.000000  0.083333      2.000000
  0.083333  0.000000  0.083333      6.000000
  0.000000  0.083333  0.083333      6.000000
  0.166667  0.000000  0.083333      6.000000
  0.000000  0.166667  0.083333      6.000000
  0.250000  0.000000  0.083333      6.000000
  0.000000  0.250000  0.083333      6.000000
  0.333333  0.000000  0.083333      6.000000
  0.000000  0.333333  0.083333      6.000000
  0.416667  0.000000  0.083333      6.000000
  0.000000  0.416667  0.083333      6.000000
  0.500000  0.000000  0.083333      6.000000
  0.083333  0.083333  0.083333     12.000000
  0.166667  0.083333  0.083333     12.000000
 -0.083333  0.250000  0.083333     12.000000
  0.250000  0.083333  0.083333     12.000000
 -0.083333  0.333333  0.083333     12.000000
  0.333333  0.083333  0.083333     12.000000
 -0.083333  0.416667  0.083333     12.000000
  0.416667  0.083333  0.083333     12.000000
 -0.083333  0.500000  0.083333     12.000000
  0.166667  0.166667  0.083333     12.000000
  0.250000  0.166667  0.083333     12.000000
 -0.166667  0.416667  0.083333     12.000000
  0.333333  0.166667  0.083333     12.000000
 -0.166667  0.500000  0.083333     12.000000
  0.416667  0.166667  0.083333     12.000000
  0.250000  0.250000  0.083333     12.000000
  0.333333  0.250000  0.083333     12.000000
 -0.250000 -0.416667  0.083333     12.000000
  0.333333  0.333333  0.083333      4.000000
 -0.000000  0.000000  0.166667      2.000000
  0.083333 -0.000000  0.166667      6.000000
 -0.000000  0.083333  0.166667      6.000000
  0.166667  0.000000  0.166667      6.000000
 -0.000000  0.166667  0.166667      6.000000
  0.250000  0.000000  0.166667      6.000000
 -0.000000  0.250000  0.166667      6.000000
  0.333333  0.000000  0.166667      6.000000
 -0.000000  0.333333  0.166667      6.000000
  0.416667  0.000000  0.166667      6.000000
 -0.000000  0.416667  0.166667      6.000000
  0.500000  0.000000  0.166667      6.000000
  0.083333  0.083333  0.166667     12.000000
  0.166667  0.083333  0.166667     12.000000
 -0.083333  0.250000  0.166667     12.000000
  0.250000  0.083333  0.166667     12.000000
 -0.083333  0.333333  0.166667     12.000000
  0.333333  0.083333  0.166667     12.000000
 -0.083333  0.416667  0.166667     12.000000
  0.416667  0.083333  0.166667     12.000000
 -0.083333  0.500000  0.166667     12.000000
  0.166667  0.166667  0.166667     12.000000
  0.250000  0.166667  0.166667     12.000000
 -0.166667  0.416667  0.166667     12.000000
  0.333333  0.166667  0.166667     12.000000
 -0.166667  0.500000  0.166667     12.000000
  0.416667  0.166667  0.166667     12.000000
  0.250000  0.250000  0.166667     12.000000
  0.333333  0.250000  0.166667     12.000000
 -0.250000 -0.416667  0.166667     12.000000
  0.333333  0.333333  0.166667      4.000000
  0.000000  0.000000  0.250000      2.000000
  0.083333 -0.000000  0.250000      6.000000
  0.000000  0.083333  0.250000      6.000000
  0.166667 -0.000000  0.250000      6.000000
  0.000000  0.166667  0.250000      6.000000
  0.250000  0.000000  0.250000      6.000000
  0.000000  0.250000  0.250000      6.000000
  0.333333  0.000000  0.250000      6.000000
  0.000000  0.333333  0.250000      6.000000
  0.416667  0.000000  0.250000      6.000000
  0.000000  0.416667  0.250000      6.000000
  0.500000  0.000000  0.250000      6.000000
  0.083333  0.083333  0.250000     12.000000
  0.166667  0.083333  0.250000     12.000000
 -0.083333  0.250000  0.250000     12.000000
  0.250000  0.083333  0.250000     12.000000
 -0.083333  0.333333  0.250000     12.000000
  0.333333  0.083333  0.250000     12.000000
 -0.083333  0.416667  0.250000     12.000000
  0.416667  0.083333  0.250000     12.000000
 -0.083333  0.500000  0.250000     12.000000
  0.166667  0.166667  0.250000     12.000000
  0.250000  0.166667  0.250000     12.000000
 -0.166667  0.416667  0.250000     12.000000
  0.333333  0.166667  0.250000     12.000000
 -0.166667  0.500000  0.250000     12.000000
  0.416667  0.166667  0.250000     12.000000
  0.250000  0.250000  0.250000     12.000000
  0.333333  0.250000  0.250000     12.000000
 -0.250000 -0.416667  0.250000     12.000000
  0.333333  0.333333  0.250000      4.000000
  0.000000  0.000000  0.333333      2.000000
  0.083333  0.000000  0.333333      6.000000
  0.000000  0.083333  0.333333      6.000000
  0.166667 -0.000000  0.333333      6.000000
  0.000000  0.166667  0.333333      6.000000
  0.250000  0.000000  0.333333      6.000000
  0.000000  0.250000  0.333333      6.000000
  0.333333  0.000000  0.333333      6.000000
  0.000000  0.333333  0.333333      6.000000
  0.416667  0.000000  0.333333      6.000000
  0.000000  0.416667  0.333333      6.000000
  0.500000  0.000000  0.333333      6.000000
  0.083333  0.083333  0.333333     12.000000
  0.166667  0.083333  0.333333     12.000000
 -0.083333  0.250000  0.333333     12.000000
  0.250000  0.083333  0.333333     12.000000
 -0.083333  0.333333  0.333333     12.000000
  0.333333  0.083333  0.333333     12.000000
 -0.083333  0.416667  0.333333     12.000000
  0.416667  0.083333  0.333333     12.000000
 -0.083333  0.500000  0.333333     12.000000
  0.166667  0.166667  0.333333     12.000000
  0.250000  0.166667  0.333333     12.000000
 -0.166667  0.416667  0.333333     12.000000
  0.333333  0.166667  0.333333     12.000000
 -0.166667  0.500000  0.333333     12.000000
  0.416667  0.166667  0.333333     12.000000
  0.250000  0.250000  0.333333     12.000000
  0.333333  0.250000  0.333333     12.000000
 -0.250000 -0.416667  0.333333     12.000000
  0.333333  0.333333  0.333333      4.000000
  0.000000  0.000000  0.416667      2.000000
  0.083333  0.000000  0.416667      6.000000
  0.000000  0.083333  0.416667      6.000000
  0.166667  0.000000  0.416667      6.000000
  0.000000  0.166667  0.416667      6.000000
  0.250000 -0.000000  0.416667      6.000000
  0.000000  0.250000  0.416667      6.000000
  0.333333 -0.000000  0.416667      6.000000
  0.000000  0.333333  0.416667      6.000000
  0.416667 -0.000000  0.416667      6.000000
  0.000000  0.416667  0.416667      6.000000
  0.500000  0.000000  0.416667      6.000000
  0.083333  0.083333  0.416667     12.000000
  0.166667  0.083333  0.416667     12.000000
 -0.083333  0.250000  0.416667     12.000000
  0.250000  0.083333  0.416667     12.000000
 -0.083333  0.333333  0.416667     12.000000
  0.333333  0.083333  0.416667     12.000000
 -0.083333  0.416667  0.416667     12.000000
  0.416667  0.083333  0.416667     12.000000
 -0.083333  0.500000  0.416667     12.000000
  0.166667  0.166667  0.416667     12.000000
  0.250000  0.166667  0.416667     12.000000
 -0.166667  0.416667  0.416667     12.000000
  0.333333  0.166667  0.416667     12.000000
 -0.166667  0.500000  0.416667     12.000000
  0.416667  0.166667  0.416667     12.000000
  0.250000  0.250000  0.416667     12.000000
  0.333333  0.250000  0.416667     12.000000
 -0.250000 -0.416667  0.416667     12.000000
  0.333333  0.333333  0.416667      4.000000
  0.000000  0.000000  0.500000      1.000000
  0.083333  0.000000  0.500000      6.000000
  0.166667  0.000000  0.500000      6.000000
  0.250000 -0.000000  0.500000      6.000000
  0.333333 -0.000000  0.500000      6.000000
  0.416667  0.000000  0.500000      6.000000
  0.500000  0.000000  0.500000      3.000000
  0.083333  0.083333  0.500000      6.000000
  0.166667  0.083333  0.500000     12.000000
  0.250000  0.083333  0.500000     12.000000
  0.333333  0.083333  0.500000     12.000000
  0.416667  0.083333  0.500000     12.000000
  0.166667  0.166667  0.500000      6.000000
  0.250000  0.166667  0.500000     12.000000
  0.333333  0.166667  0.500000     12.000000
  0.416667  0.166667  0.500000      6.000000
  0.250000  0.250000  0.500000      6.000000
  0.333333  0.250000  0.500000     12.000000
  0.333333  0.333333  0.500000      2.000000
 
 Following cartesian coordinates:
            Coordinates               Weight
  0.000000  0.000000  0.000000      1.000000
  0.019024  0.010983  0.000000      6.000000
  0.038048  0.021967  0.000000      6.000000
  0.057072  0.032950  0.000000      6.000000
  0.076095  0.043934  0.000000      6.000000
  0.095119  0.054917  0.000000      6.000000
  0.114143  0.065900  0.000000      3.000000
  0.019024  0.032950  0.000000      6.000000
  0.038048  0.043934  0.000000     12.000000
  0.057072  0.054917  0.000000     12.000000
  0.076095  0.065900  0.000000     12.000000
  0.095119  0.076884  0.000000     12.000000
  0.038048  0.065900  0.000000      6.000000
  0.057072  0.076884  0.000000     12.000000
  0.076095  0.087867  0.000000     12.000000
  0.095119  0.098851  0.000000      6.000000
  0.057072  0.098851  0.000000      6.000000
  0.076095  0.109834  0.000000     12.000000
  0.076095  0.131801  0.000000      2.000000
 -0.000000 -0.000000  0.007260      2.000000
  0.019024  0.010983  0.007260      6.000000
 -0.000000  0.021967  0.007260      6.000000
  0.038048  0.021967  0.007260      6.000000
 -0.000000  0.043934  0.007260      6.000000
  0.057072  0.032950  0.007260      6.000000
 -0.000000  0.065900  0.007260      6.000000
  0.076095  0.043934  0.007260      6.000000
 -0.000000  0.087867  0.007260      6.000000
  0.095119  0.054917  0.007260      6.000000
 -0.000000  0.109834  0.007260      6.000000
  0.114143  0.065900  0.007260      6.000000
  0.019024  0.032950  0.007260     12.000000
  0.038048  0.043934  0.007260     12.000000
 -0.019024  0.054917  0.007260     12.000000
  0.057072  0.054917  0.007260     12.000000
 -0.019024  0.076884  0.007260     12.000000
  0.076095  0.065900  0.007260     12.000000
 -0.019024  0.098851  0.007260     12.000000
  0.095119  0.076884  0.007260     12.000000
 -0.019024  0.120818  0.007260     12.000000
  0.038048  0.065900  0.007260     12.000000
  0.057072  0.076884  0.007260     12.000000
 -0.038048  0.087867  0.007260     12.000000
  0.076095  0.087867  0.007260     12.000000
 -0.038048  0.109834  0.007260     12.000000
  0.095119  0.098851  0.007260     12.000000
  0.057072  0.098851  0.007260     12.000000
  0.076095  0.109834  0.007260     12.000000
 -0.057072 -0.142784  0.007260     12.000000
  0.076095  0.131801  0.007260      4.000000
 -0.000000 -0.000000  0.014520      2.000000
  0.019024  0.010983  0.014520      6.000000
 -0.000000  0.021967  0.014520      6.000000
  0.038048  0.021967  0.014520      6.000000
 -0.000000  0.043934  0.014520      6.000000
  0.057072  0.032950  0.014520      6.000000
 -0.000000  0.065900  0.014520      6.000000
  0.076095  0.043934  0.014520      6.000000
 -0.000000  0.087867  0.014520      6.000000
  0.095119  0.054917  0.014520      6.000000
 -0.000000  0.109834  0.014520      6.000000
  0.114143  0.065900  0.014520      6.000000
  0.019024  0.032950  0.014520     12.000000
  0.038048  0.043934  0.014520     12.000000
 -0.019024  0.054917  0.014520     12.000000
  0.057072  0.054917  0.014520     12.000000
 -0.019024  0.076884  0.014520     12.000000
  0.076095  0.065900  0.014520     12.000000
 -0.019024  0.098851  0.014520     12.000000
  0.095119  0.076884  0.014520     12.000000
 -0.019024  0.120818  0.014520     12.000000
  0.038048  0.065900  0.014520     12.000000
  0.057072  0.076884  0.014520     12.000000
 -0.038048  0.087867  0.014520     12.000000
  0.076095  0.087867  0.014520     12.000000
 -0.038048  0.109834  0.014520     12.000000
  0.095119  0.098851  0.014520     12.000000
  0.057072  0.098851  0.014520     12.000000
  0.076095  0.109834  0.014520     12.000000
 -0.057072 -0.142784  0.014520     12.000000
  0.076095  0.131801  0.014520      4.000000
 -0.000000 -0.000000  0.021781      2.000000
  0.019024  0.010983  0.021781      6.000000
 -0.000000  0.021967  0.021781      6.000000
  0.038048  0.021967  0.021781      6.000000
 -0.000000  0.043934  0.021781      6.000000
  0.057072  0.032950  0.021781      6.000000
 -0.000000  0.065900  0.021781      6.000000
  0.076095  0.043934  0.021781      6.000000
 -0.000000  0.087867  0.021781      6.000000
  0.095119  0.054917  0.021781      6.000000
 -0.000000  0.109834  0.021781      6.000000
  0.114143  0.065900  0.021781      6.000000
  0.019024  0.032950  0.021781     12.000000
  0.038048  0.043934  0.021781     12.000000
 -0.019024  0.054917  0.021781     12.000000
  0.057072  0.054917  0.021781     12.000000
 -0.019024  0.076884  0.021781     12.000000
  0.076095  0.065900  0.021781     12.000000
 -0.019024  0.098851  0.021781     12.000000
  0.095119  0.076884  0.021781     12.000000
 -0.019024  0.120818  0.021781     12.000000
  0.038048  0.065900  0.021781     12.000000
  0.057072  0.076884  0.021781     12.000000
 -0.038048  0.087867  0.021781     12.000000
  0.076095  0.087867  0.021781     12.000000
 -0.038048  0.109834  0.021781     12.000000
  0.095119  0.098851  0.021781     12.000000
  0.057072  0.098851  0.021781     12.000000
  0.076095  0.109834  0.021781     12.000000
 -0.057072 -0.142784  0.021781     12.000000
  0.076095  0.131801  0.021781      4.000000
 -0.000000 -0.000000  0.029041      2.000000
  0.019024  0.010983  0.029041      6.000000
 -0.000000  0.021967  0.029041      6.000000
  0.038048  0.021967  0.029041      6.000000
 -0.000000  0.043934  0.029041      6.000000
  0.057072  0.032950  0.029041      6.000000
 -0.000000  0.065900  0.029041      6.000000
  0.076095  0.043934  0.029041      6.000000
 -0.000000  0.087867  0.029041      6.000000
  0.095119  0.054917  0.029041      6.000000
 -0.000000  0.109834  0.029041      6.000000
  0.114143  0.065900  0.029041      6.000000
  0.019024  0.032950  0.029041     12.000000
  0.038048  0.043934  0.029041     12.000000
 -0.019024  0.054917  0.029041     12.000000
  0.057072  0.054917  0.029041     12.000000
 -0.019024  0.076884  0.029041     12.000000
  0.076095  0.065900  0.029041     12.000000
 -0.019024  0.098851  0.029041     12.000000
  0.095119  0.076884  0.029041     12.000000
 -0.019024  0.120818  0.029041     12.000000
  0.038048  0.065900  0.029041     12.000000
  0.057072  0.076884  0.029041     12.000000
 -0.038048  0.087867  0.029041     12.000000
  0.076095  0.087867  0.029041     12.000000
 -0.038048  0.109834  0.029041     12.000000
  0.095119  0.098851  0.029041     12.000000
  0.057072  0.098851  0.029041     12.000000
  0.076095  0.109834  0.029041     12.000000
 -0.057072 -0.142784  0.029041     12.000000
  0.076095  0.131801  0.029041      4.000000
 -0.000000 -0.000000  0.036301      2.000000
  0.019024  0.010983  0.036301      6.000000
 -0.000000  0.021967  0.036301      6.000000
  0.038048  0.021967  0.036301      6.000000
 -0.000000  0.043934  0.036301      6.000000
  0.057072  0.032950  0.036301      6.000000
 -0.000000  0.065900  0.036301      6.000000
  0.076095  0.043934  0.036301      6.000000
 -0.000000  0.087867  0.036301      6.000000
  0.095119  0.054917  0.036301      6.000000
 -0.000000  0.109834  0.036301      6.000000
  0.114143  0.065900  0.036301      6.000000
  0.019024  0.032950  0.036301     12.000000
  0.038048  0.043934  0.036301     12.000000
 -0.019024  0.054917  0.036301     12.000000
  0.057072  0.054917  0.036301     12.000000
 -0.019024  0.076884  0.036301     12.000000
  0.076095  0.065900  0.036301     12.000000
 -0.019024  0.098851  0.036301     12.000000
  0.095119  0.076884  0.036301     12.000000
 -0.019024  0.120818  0.036301     12.000000
  0.038048  0.065900  0.036301     12.000000
  0.057072  0.076884  0.036301     12.000000
 -0.038048  0.087867  0.036301     12.000000
  0.076095  0.087867  0.036301     12.000000
 -0.038048  0.109834  0.036301     12.000000
  0.095119  0.098851  0.036301     12.000000
  0.057072  0.098851  0.036301     12.000000
  0.076095  0.109834  0.036301     12.000000
 -0.057072 -0.142784  0.036301     12.000000
  0.076095  0.131801  0.036301      4.000000
 -0.000000 -0.000000  0.043561      1.000000
  0.019024  0.010983  0.043561      6.000000
  0.038048  0.021967  0.043561      6.000000
  0.057072  0.032950  0.043561      6.000000
  0.076095  0.043934  0.043561      6.000000
  0.095119  0.054917  0.043561      6.000000
  0.114143  0.065900  0.043561      3.000000
  0.019024  0.032950  0.043561      6.000000
  0.038048  0.043934  0.043561     12.000000
  0.057072  0.054917  0.043561     12.000000
  0.076095  0.065900  0.043561     12.000000
  0.095119  0.076884  0.043561     12.000000
  0.038048  0.065900  0.043561      6.000000
  0.057072  0.076884  0.043561     12.000000
  0.076095  0.087867  0.043561     12.000000
  0.095119  0.098851  0.043561      6.000000
  0.057072  0.098851  0.043561      6.000000
  0.076095  0.109834  0.043561     12.000000
  0.076095  0.131801  0.043561      2.000000
 
 
 Subroutine IBZKPT_HF returns following result:
 ==============================================
 
 Found   1728 k-points in 1st BZ
 the following   1728 k-points will be used (e.g. in the exchange kernel)
 Following reciprocal coordinates:   # in IRBZ
  0.000000  0.000000  0.000000    0.00057870   1 t-inv F
  0.083333  0.000000  0.000000    0.00057870   2 t-inv F
  0.166667  0.000000  0.000000    0.00057870   3 t-inv F
  0.250000  0.000000  0.000000    0.00057870   4 t-inv F
  0.333333  0.000000  0.000000    0.00057870   5 t-inv F
  0.416667  0.000000  0.000000    0.00057870   6 t-inv F
  0.500000  0.000000  0.000000    0.00057870   7 t-inv F
  0.083333  0.083333  0.000000    0.00057870   8 t-inv F
  0.166667  0.083333  0.000000    0.00057870   9 t-inv F
  0.250000  0.083333  0.000000    0.00057870  10 t-inv F
  0.333333  0.083333  0.000000    0.00057870  11 t-inv F
  0.416667  0.083333  0.000000    0.00057870  12 t-inv F
  0.166667  0.166667  0.000000    0.00057870  13 t-inv F
  0.250000  0.166667  0.000000    0.00057870  14 t-inv F
  0.333333  0.166667  0.000000    0.00057870  15 t-inv F
  0.416667  0.166667  0.000000    0.00057870  16 t-inv F
  0.250000  0.250000  0.000000    0.00057870  17 t-inv F
  0.333333  0.250000  0.000000    0.00057870  18 t-inv F
  0.333333  0.333333  0.000000    0.00057870  19 t-inv F
  0.000000  0.000000  0.083333    0.00057870  20 t-inv F
  0.083333  0.000000  0.083333    0.00057870  21 t-inv F
  0.000000  0.083333  0.083333    0.00057870  22 t-inv F
  0.166667  0.000000  0.083333    0.00057870  23 t-inv F
  0.000000  0.166667  0.083333    0.00057870  24 t-inv F
  0.250000  0.000000  0.083333    0.00057870  25 t-inv F
  0.000000  0.250000  0.083333    0.00057870  26 t-inv F
  0.333333  0.000000  0.083333    0.00057870  27 t-inv F
  0.000000  0.333333  0.083333    0.00057870  28 t-inv F
  0.416667  0.000000  0.083333    0.00057870  29 t-inv F
  0.000000  0.416667  0.083333    0.00057870  30 t-inv F
  0.500000  0.000000  0.083333    0.00057870  31 t-inv F
  0.083333  0.083333  0.083333    0.00057870  32 t-inv F
  0.166667  0.083333  0.083333    0.00057870  33 t-inv F
 -0.083333  0.250000  0.083333    0.00057870  34 t-inv F
  0.250000  0.083333  0.083333    0.00057870  35 t-inv F
 -0.083333  0.333333  0.083333    0.00057870  36 t-inv F
  0.333333  0.083333  0.083333    0.00057870  37 t-inv F
 -0.083333  0.416667  0.083333    0.00057870  38 t-inv F
  0.416667  0.083333  0.083333    0.00057870  39 t-inv F
 -0.083333  0.500000  0.083333    0.00057870  40 t-inv F
  0.166667  0.166667  0.083333    0.00057870  41 t-inv F
  0.250000  0.166667  0.083333    0.00057870  42 t-inv F
 -0.166667  0.416667  0.083333    0.00057870  43 t-inv F
  0.333333  0.166667  0.083333    0.00057870  44 t-inv F
 -0.166667  0.500000  0.083333    0.00057870  45 t-inv F
  0.416667  0.166667  0.083333    0.00057870  46 t-inv F
  0.250000  0.250000  0.083333    0.00057870  47 t-inv F
  0.333333  0.250000  0.083333    0.00057870  48 t-inv F
 -0.250000 -0.416667  0.083333    0.00057870  49 t-inv F
  0.333333  0.333333  0.083333    0.00057870  50 t-inv F
 -0.000000  0.000000  0.166667    0.00057870  51 t-inv F
  0.083333 -0.000000  0.166667    0.00057870  52 t-inv F
 -0.000000  0.083333  0.166667    0.00057870  53 t-inv F
  0.166667  0.000000  0.166667    0.00057870  54 t-inv F
 -0.000000  0.166667  0.166667    0.00057870  55 t-inv F
  0.250000  0.000000  0.166667    0.00057870  56 t-inv F
 -0.000000  0.250000  0.166667    0.00057870  57 t-inv F
  0.333333  0.000000  0.166667    0.00057870  58 t-inv F
 -0.000000  0.333333  0.166667    0.00057870  59 t-inv F
  0.416667  0.000000  0.166667    0.00057870  60 t-inv F
 -0.000000  0.416667  0.166667    0.00057870  61 t-inv F
  0.500000  0.000000  0.166667    0.00057870  62 t-inv F
  0.083333  0.083333  0.166667    0.00057870  63 t-inv F
  0.166667  0.083333  0.166667    0.00057870  64 t-inv F
 -0.083333  0.250000  0.166667    0.00057870  65 t-inv F
  0.250000  0.083333  0.166667    0.00057870  66 t-inv F
 -0.083333  0.333333  0.166667    0.00057870  67 t-inv F
  0.333333  0.083333  0.166667    0.00057870  68 t-inv F
 -0.083333  0.416667  0.166667    0.00057870  69 t-inv F
  0.416667  0.083333  0.166667    0.00057870  70 t-inv F
 -0.083333  0.500000  0.166667    0.00057870  71 t-inv F
  0.166667  0.166667  0.166667    0.00057870  72 t-inv F
  0.250000  0.166667  0.166667    0.00057870  73 t-inv F
 -0.166667  0.416667  0.166667    0.00057870  74 t-inv F
  0.333333  0.166667  0.166667    0.00057870  75 t-inv F
 -0.166667  0.500000  0.166667    0.00057870  76 t-inv F
  0.416667  0.166667  0.166667    0.00057870  77 t-inv F
  0.250000  0.250000  0.166667    0.00057870  78 t-inv F
  0.333333  0.250000  0.166667    0.00057870  79 t-inv F
 -0.250000 -0.416667  0.166667    0.00057870  80 t-inv F
  0.333333  0.333333  0.166667    0.00057870  81 t-inv F
  0.000000  0.000000  0.250000    0.00057870  82 t-inv F
  0.083333 -0.000000  0.250000    0.00057870  83 t-inv F
  0.000000  0.083333  0.250000    0.00057870  84 t-inv F
  0.166667 -0.000000  0.250000    0.00057870  85 t-inv F
  0.000000  0.166667  0.250000    0.00057870  86 t-inv F
  0.250000  0.000000  0.250000    0.00057870  87 t-inv F
  0.000000  0.250000  0.250000    0.00057870  88 t-inv F
  0.333333  0.000000  0.250000    0.00057870  89 t-inv F
  0.000000  0.333333  0.250000    0.00057870  90 t-inv F
  0.416667  0.000000  0.250000    0.00057870  91 t-inv F
  0.000000  0.416667  0.250000    0.00057870  92 t-inv F
  0.500000  0.000000  0.250000    0.00057870  93 t-inv F
  0.083333  0.083333  0.250000    0.00057870  94 t-inv F
  0.166667  0.083333  0.250000    0.00057870  95 t-inv F
 -0.083333  0.250000  0.250000    0.00057870  96 t-inv F
  0.250000  0.083333  0.250000    0.00057870  97 t-inv F
 -0.083333  0.333333  0.250000    0.00057870  98 t-inv F
  0.333333  0.083333  0.250000    0.00057870  99 t-inv F
 -0.083333  0.416667  0.250000    0.00057870 100 t-inv F
  0.416667  0.083333  0.250000    0.00057870 101 t-inv F
 -0.083333  0.500000  0.250000    0.00057870 102 t-inv F
  0.166667  0.166667  0.250000    0.00057870 103 t-inv F
  0.250000  0.166667  0.250000    0.00057870 104 t-inv F
 -0.166667  0.416667  0.250000    0.00057870 105 t-inv F
  0.333333  0.166667  0.250000    0.00057870 106 t-inv F
 -0.166667  0.500000  0.250000    0.00057870 107 t-inv F
  0.416667  0.166667  0.250000    0.00057870 108 t-inv F
  0.250000  0.250000  0.250000    0.00057870 109 t-inv F
  0.333333  0.250000  0.250000    0.00057870 110 t-inv F
 -0.250000 -0.416667  0.250000    0.00057870 111 t-inv F
  0.333333  0.333333  0.250000    0.00057870 112 t-inv F
  0.000000  0.000000  0.333333    0.00057870 113 t-inv F
  0.083333  0.000000  0.333333    0.00057870 114 t-inv F
  0.000000  0.083333  0.333333    0.00057870 115 t-inv F
  0.166667 -0.000000  0.333333    0.00057870 116 t-inv F
  0.000000  0.166667  0.333333    0.00057870 117 t-inv F
  0.250000  0.000000  0.333333    0.00057870 118 t-inv F
  0.000000  0.250000  0.333333    0.00057870 119 t-inv F
  0.333333  0.000000  0.333333    0.00057870 120 t-inv F
  0.000000  0.333333  0.333333    0.00057870 121 t-inv F
  0.416667  0.000000  0.333333    0.00057870 122 t-inv F
  0.000000  0.416667  0.333333    0.00057870 123 t-inv F
  0.500000  0.000000  0.333333    0.00057870 124 t-inv F
  0.083333  0.083333  0.333333    0.00057870 125 t-inv F
  0.166667  0.083333  0.333333    0.00057870 126 t-inv F
 -0.083333  0.250000  0.333333    0.00057870 127 t-inv F
  0.250000  0.083333  0.333333    0.00057870 128 t-inv F
 -0.083333  0.333333  0.333333    0.00057870 129 t-inv F
  0.333333  0.083333  0.333333    0.00057870 130 t-inv F
 -0.083333  0.416667  0.333333    0.00057870 131 t-inv F
  0.416667  0.083333  0.333333    0.00057870 132 t-inv F
 -0.083333  0.500000  0.333333    0.00057870 133 t-inv F
  0.166667  0.166667  0.333333    0.00057870 134 t-inv F
  0.250000  0.166667  0.333333    0.00057870 135 t-inv F
 -0.166667  0.416667  0.333333    0.00057870 136 t-inv F
  0.333333  0.166667  0.333333    0.00057870 137 t-inv F
 -0.166667  0.500000  0.333333    0.00057870 138 t-inv F
  0.416667  0.166667  0.333333    0.00057870 139 t-inv F
  0.250000  0.250000  0.333333    0.00057870 140 t-inv F
  0.333333  0.250000  0.333333    0.00057870 141 t-inv F
 -0.250000 -0.416667  0.333333    0.00057870 142 t-inv F
  0.333333  0.333333  0.333333    0.00057870 143 t-inv F
  0.000000  0.000000  0.416667    0.00057870 144 t-inv F
  0.083333  0.000000  0.416667    0.00057870 145 t-inv F
  0.000000  0.083333  0.416667    0.00057870 146 t-inv F
  0.166667  0.000000  0.416667    0.00057870 147 t-inv F
  0.000000  0.166667  0.416667    0.00057870 148 t-inv F
  0.250000 -0.000000  0.416667    0.00057870 149 t-inv F
  0.000000  0.250000  0.416667    0.00057870 150 t-inv F
  0.333333 -0.000000  0.416667    0.00057870 151 t-inv F
  0.000000  0.333333  0.416667    0.00057870 152 t-inv F
  0.416667 -0.000000  0.416667    0.00057870 153 t-inv F
  0.000000  0.416667  0.416667    0.00057870 154 t-inv F
  0.500000  0.000000  0.416667    0.00057870 155 t-inv F
  0.083333  0.083333  0.416667    0.00057870 156 t-inv F
  0.166667  0.083333  0.416667    0.00057870 157 t-inv F
 -0.083333  0.250000  0.416667    0.00057870 158 t-inv F
  0.250000  0.083333  0.416667    0.00057870 159 t-inv F
 -0.083333  0.333333  0.416667    0.00057870 160 t-inv F
  0.333333  0.083333  0.416667    0.00057870 161 t-inv F
 -0.083333  0.416667  0.416667    0.00057870 162 t-inv F
  0.416667  0.083333  0.416667    0.00057870 163 t-inv F
 -0.083333  0.500000  0.416667    0.00057870 164 t-inv F
  0.166667  0.166667  0.416667    0.00057870 165 t-inv F
  0.250000  0.166667  0.416667    0.00057870 166 t-inv F
 -0.166667  0.416667  0.416667    0.00057870 167 t-inv F
  0.333333  0.166667  0.416667    0.00057870 168 t-inv F
 -0.166667  0.500000  0.416667    0.00057870 169 t-inv F
  0.416667  0.166667  0.416667    0.00057870 170 t-inv F
  0.250000  0.250000  0.416667    0.00057870 171 t-inv F
  0.333333  0.250000  0.416667    0.00057870 172 t-inv F
 -0.250000 -0.416667  0.416667    0.00057870 173 t-inv F
  0.333333  0.333333  0.416667    0.00057870 174 t-inv F
  0.000000  0.000000  0.500000    0.00057870 175 t-inv F
  0.083333  0.000000  0.500000    0.00057870 176 t-inv F
  0.166667  0.000000  0.500000    0.00057870 177 t-inv F
  0.250000 -0.000000  0.500000    0.00057870 178 t-inv F
  0.333333 -0.000000  0.500000    0.00057870 179 t-inv F
  0.416667  0.000000  0.500000    0.00057870 180 t-inv F
  0.500000  0.000000  0.500000    0.00057870 181 t-inv F
  0.083333  0.083333  0.500000    0.00057870 182 t-inv F
  0.166667  0.083333  0.500000    0.00057870 183 t-inv F
  0.250000  0.083333  0.500000    0.00057870 184 t-inv F
  0.333333  0.083333  0.500000    0.00057870 185 t-inv F
  0.416667  0.083333  0.500000    0.00057870 186 t-inv F
  0.166667  0.166667  0.500000    0.00057870 187 t-inv F
  0.250000  0.166667  0.500000    0.00057870 188 t-inv F
  0.333333  0.166667  0.500000    0.00057870 189 t-inv F
  0.416667  0.166667  0.500000    0.00057870 190 t-inv F
  0.250000  0.250000  0.500000    0.00057870 191 t-inv F
  0.333333  0.250000  0.500000    0.00057870 192 t-inv F
  0.333333  0.333333  0.500000    0.00057870 193 t-inv F
 -0.083333 -0.000000  0.000000    0.00057870   2 t-inv F
 -0.083333  0.083333  0.000000    0.00057870   2 t-inv F
  0.083333 -0.083333  0.000000    0.00057870   2 t-inv F
  0.000000 -0.083333  0.000000    0.00057870   2 t-inv F
 -0.000000  0.083333  0.000000    0.00057870   2 t-inv F
 -0.166667 -0.000000  0.000000    0.00057870   3 t-inv F
 -0.166667  0.166667  0.000000    0.00057870   3 t-inv F
  0.166667 -0.166667  0.000000    0.00057870   3 t-inv F
  0.000000 -0.166667  0.000000    0.00057870   3 t-inv F
 -0.000000  0.166667  0.000000    0.00057870   3 t-inv F
 -0.250000 -0.000000  0.000000    0.00057870   4 t-inv F
 -0.250000  0.250000  0.000000    0.00057870   4 t-inv F
  0.250000 -0.250000  0.000000    0.00057870   4 t-inv F
  0.000000 -0.250000  0.000000    0.00057870   4 t-inv F
 -0.000000  0.250000  0.000000    0.00057870   4 t-inv F
 -0.333333 -0.000000  0.000000    0.00057870   5 t-inv F
 -0.333333  0.333333  0.000000    0.00057870   5 t-inv F
  0.333333 -0.333333  0.000000    0.00057870   5 t-inv F
  0.000000 -0.333333  0.000000    0.00057870   5 t-inv F
 -0.000000  0.333333  0.000000    0.00057870   5 t-inv F
 -0.416667 -0.000000  0.000000    0.00057870   6 t-inv F
 -0.416667  0.416667  0.000000    0.00057870   6 t-inv F
  0.416667 -0.416667  0.000000    0.00057870   6 t-inv F
  0.000000 -0.416667  0.000000    0.00057870   6 t-inv F
 -0.000000  0.416667  0.000000    0.00057870   6 t-inv F
 -0.500000  0.500000  0.000000    0.00057870   7 t-inv F
  0.000000 -0.500000  0.000000    0.00057870   7 t-inv F
 -0.083333 -0.083333  0.000000    0.00057870   8 t-inv F
 -0.166667  0.083333  0.000000    0.00057870   8 t-inv F
  0.166667 -0.083333  0.000000    0.00057870   8 t-inv F
  0.083333 -0.166667  0.000000    0.00057870   8 t-inv F
 -0.083333  0.166667  0.000000    0.00057870   8 t-inv F
 -0.166667 -0.083333  0.000000    0.00057870   9 t-inv F
 -0.250000  0.166667  0.000000    0.00057870   9 t-inv F
  0.250000 -0.166667  0.000000    0.00057870   9 t-inv F
  0.083333 -0.250000  0.000000    0.00057870   9 t-inv F
 -0.083333  0.250000  0.000000    0.00057870   9 t-inv F
  0.166667 -0.250000  0.000000    0.00057870   9 t-inv F
 -0.166667  0.250000  0.000000    0.00057870   9 t-inv F
 -0.250000  0.083333  0.000000    0.00057870   9 t-inv F
  0.250000 -0.083333  0.000000    0.00057870   9 t-inv F
  0.083333  0.166667  0.000000    0.00057870   9 t-inv F
 -0.083333 -0.166667  0.000000    0.00057870   9 t-inv F
 -0.250000 -0.083333  0.000000    0.00057870  10 t-inv F
 -0.333333  0.250000  0.000000    0.00057870  10 t-inv F
  0.333333 -0.250000  0.000000    0.00057870  10 t-inv F
  0.083333 -0.333333  0.000000    0.00057870  10 t-inv F
 -0.083333  0.333333  0.000000    0.00057870  10 t-inv F
  0.250000 -0.333333  0.000000    0.00057870  10 t-inv F
 -0.250000  0.333333  0.000000    0.00057870  10 t-inv F
 -0.333333  0.083333  0.000000    0.00057870  10 t-inv F
  0.333333 -0.083333  0.000000    0.00057870  10 t-inv F
  0.083333  0.250000  0.000000    0.00057870  10 t-inv F
 -0.083333 -0.250000  0.000000    0.00057870  10 t-inv F
 -0.333333 -0.083333  0.000000    0.00057870  11 t-inv F
 -0.416667  0.333333  0.000000    0.00057870  11 t-inv F
  0.416667 -0.333333  0.000000    0.00057870  11 t-inv F
  0.083333 -0.416667  0.000000    0.00057870  11 t-inv F
 -0.083333  0.416667  0.000000    0.00057870  11 t-inv F
  0.333333 -0.416667  0.000000    0.00057870  11 t-inv F
 -0.333333  0.416667  0.000000    0.00057870  11 t-inv F
 -0.416667  0.083333  0.000000    0.00057870  11 t-inv F
  0.416667 -0.083333  0.000000    0.00057870  11 t-inv F
  0.083333  0.333333  0.000000    0.00057870  11 t-inv F
 -0.083333 -0.333333  0.000000    0.00057870  11 t-inv F
 -0.416667 -0.083333  0.000000    0.00057870  12 t-inv F
 -0.500000  0.416667  0.000000    0.00057870  12 t-inv F
  0.500000 -0.416667  0.000000    0.00057870  12 t-inv F
  0.083333 -0.500000  0.000000    0.00057870  12 t-inv F
 -0.083333  0.500000  0.000000    0.00057870  12 t-inv F
  0.416667 -0.500000  0.000000    0.00057870  12 t-inv F
 -0.416667  0.500000  0.000000    0.00057870  12 t-inv F
 -0.500000  0.083333  0.000000    0.00057870  12 t-inv F
  0.500000 -0.083333  0.000000    0.00057870  12 t-inv F
  0.083333  0.416667  0.000000    0.00057870  12 t-inv F
 -0.083333 -0.416667  0.000000    0.00057870  12 t-inv F
 -0.166667 -0.166667  0.000000    0.00057870  13 t-inv F
 -0.333333  0.166667  0.000000    0.00057870  13 t-inv F
  0.333333 -0.166667  0.000000    0.00057870  13 t-inv F
  0.166667 -0.333333  0.000000    0.00057870  13 t-inv F
 -0.166667  0.333333  0.000000    0.00057870  13 t-inv F
 -0.250000 -0.166667  0.000000    0.00057870  14 t-inv F
 -0.416667  0.250000  0.000000    0.00057870  14 t-inv F
  0.416667 -0.250000  0.000000    0.00057870  14 t-inv F
  0.166667 -0.416667  0.000000    0.00057870  14 t-inv F
 -0.166667  0.416667  0.000000    0.00057870  14 t-inv F
  0.250000 -0.416667  0.000000    0.00057870  14 t-inv F
 -0.250000  0.416667  0.000000    0.00057870  14 t-inv F
 -0.416667  0.166667  0.000000    0.00057870  14 t-inv F
  0.416667 -0.166667  0.000000    0.00057870  14 t-inv F
  0.166667  0.250000  0.000000    0.00057870  14 t-inv F
 -0.166667 -0.250000  0.000000    0.00057870  14 t-inv F
 -0.333333 -0.166667  0.000000    0.00057870  15 t-inv F
 -0.500000  0.333333  0.000000    0.00057870  15 t-inv F
  0.500000 -0.333333  0.000000    0.00057870  15 t-inv F
  0.166667 -0.500000  0.000000    0.00057870  15 t-inv F
 -0.166667  0.500000  0.000000    0.00057870  15 t-inv F
  0.333333 -0.500000  0.000000    0.00057870  15 t-inv F
 -0.333333  0.500000  0.000000    0.00057870  15 t-inv F
 -0.500000  0.166667  0.000000    0.00057870  15 t-inv F
  0.500000 -0.166667  0.000000    0.00057870  15 t-inv F
  0.166667  0.333333  0.000000    0.00057870  15 t-inv F
 -0.166667 -0.333333  0.000000    0.00057870  15 t-inv F
 -0.416667 -0.166667  0.000000    0.00057870  16 t-inv F
 -0.583333  0.416667  0.000000    0.00057870  16 t-inv F
  0.583333 -0.416667  0.000000    0.00057870  16 t-inv F
  0.166667 -0.583333  0.000000    0.00057870  16 t-inv F
 -0.166667  0.583333  0.000000    0.00057870  16 t-inv F
 -0.250000 -0.250000  0.000000    0.00057870  17 t-inv F
 -0.500000  0.250000  0.000000    0.00057870  17 t-inv F
  0.500000 -0.250000  0.000000    0.00057870  17 t-inv F
  0.250000 -0.500000  0.000000    0.00057870  17 t-inv F
 -0.250000  0.500000  0.000000    0.00057870  17 t-inv F
 -0.333333 -0.250000  0.000000    0.00057870  18 t-inv F
 -0.583333  0.333333  0.000000    0.00057870  18 t-inv F
  0.583333 -0.333333  0.000000    0.00057870  18 t-inv F
  0.250000 -0.583333  0.000000    0.00057870  18 t-inv F
 -0.250000  0.583333  0.000000    0.00057870  18 t-inv F
  0.333333 -0.583333  0.000000    0.00057870  18 t-inv F
 -0.333333  0.583333  0.000000    0.00057870  18 t-inv F
 -0.583333  0.250000  0.000000    0.00057870  18 t-inv F
  0.583333 -0.250000  0.000000    0.00057870  18 t-inv F
  0.250000  0.333333  0.000000    0.00057870  18 t-inv F
 -0.250000 -0.333333  0.000000    0.00057870  18 t-inv F
 -0.333333 -0.333333  0.000000    0.00057870  19 t-inv F
 -0.000000 -0.000000 -0.083333    0.00057870  20 t-inv F
 -0.083333 -0.000000 -0.083333    0.00057870  21 t-inv F
 -0.083333  0.083333  0.083333    0.00057870  21 t-inv F
  0.083333 -0.083333 -0.083333    0.00057870  21 t-inv F
  0.000000 -0.083333  0.083333    0.00057870  21 t-inv F
 -0.000000  0.083333 -0.083333    0.00057870  21 t-inv F
 -0.000000 -0.083333 -0.083333    0.00057870  22 t-inv F
 -0.083333  0.000000  0.083333    0.00057870  22 t-inv F
  0.083333 -0.000000 -0.083333    0.00057870  22 t-inv F
  0.083333 -0.083333  0.083333    0.00057870  22 t-inv F
 -0.083333  0.083333 -0.083333    0.00057870  22 t-inv F
 -0.166667 -0.000000 -0.083333    0.00057870  23 t-inv F
 -0.166667  0.166667  0.083333    0.00057870  23 t-inv F
  0.166667 -0.166667 -0.083333    0.00057870  23 t-inv F
  0.000000 -0.166667  0.083333    0.00057870  23 t-inv F
 -0.000000  0.166667 -0.083333    0.00057870  23 t-inv F
 -0.000000 -0.166667 -0.083333    0.00057870  24 t-inv F
 -0.166667  0.000000  0.083333    0.00057870  24 t-inv F
  0.166667 -0.000000 -0.083333    0.00057870  24 t-inv F
  0.166667 -0.166667  0.083333    0.00057870  24 t-inv F
 -0.166667  0.166667 -0.083333    0.00057870  24 t-inv F
 -0.250000 -0.000000 -0.083333    0.00057870  25 t-inv F
 -0.250000  0.250000  0.083333    0.00057870  25 t-inv F
  0.250000 -0.250000 -0.083333    0.00057870  25 t-inv F
  0.000000 -0.250000  0.083333    0.00057870  25 t-inv F
 -0.000000  0.250000 -0.083333    0.00057870  25 t-inv F
 -0.000000 -0.250000 -0.083333    0.00057870  26 t-inv F
 -0.250000  0.000000  0.083333    0.00057870  26 t-inv F
  0.250000 -0.000000 -0.083333    0.00057870  26 t-inv F
  0.250000 -0.250000  0.083333    0.00057870  26 t-inv F
 -0.250000  0.250000 -0.083333    0.00057870  26 t-inv F
 -0.333333 -0.000000 -0.083333    0.00057870  27 t-inv F
 -0.333333  0.333333  0.083333    0.00057870  27 t-inv F
  0.333333 -0.333333 -0.083333    0.00057870  27 t-inv F
  0.000000 -0.333333  0.083333    0.00057870  27 t-inv F
 -0.000000  0.333333 -0.083333    0.00057870  27 t-inv F
 -0.000000 -0.333333 -0.083333    0.00057870  28 t-inv F
 -0.333333  0.000000  0.083333    0.00057870  28 t-inv F
  0.333333 -0.000000 -0.083333    0.00057870  28 t-inv F
  0.333333 -0.333333  0.083333    0.00057870  28 t-inv F
 -0.333333  0.333333 -0.083333    0.00057870  28 t-inv F
 -0.416667 -0.000000 -0.083333    0.00057870  29 t-inv F
 -0.416667  0.416667  0.083333    0.00057870  29 t-inv F
  0.416667 -0.416667 -0.083333    0.00057870  29 t-inv F
  0.000000 -0.416667  0.083333    0.00057870  29 t-inv F
 -0.000000  0.416667 -0.083333    0.00057870  29 t-inv F
 -0.000000 -0.416667 -0.083333    0.00057870  30 t-inv F
 -0.416667  0.000000  0.083333    0.00057870  30 t-inv F
  0.416667 -0.000000 -0.083333    0.00057870  30 t-inv F
  0.416667 -0.416667  0.083333    0.00057870  30 t-inv F
 -0.416667  0.416667 -0.083333    0.00057870  30 t-inv F
 -0.500000 -0.000000 -0.083333    0.00057870  31 t-inv F
 -0.500000  0.500000  0.083333    0.00057870  31 t-inv F
  0.500000 -0.500000 -0.083333    0.00057870  31 t-inv F
  0.000000 -0.500000  0.083333    0.00057870  31 t-inv F
 -0.000000  0.500000 -0.083333    0.00057870  31 t-inv F
 -0.083333 -0.083333 -0.083333    0.00057870  32 t-inv F
 -0.166667  0.083333  0.083333    0.00057870  32 t-inv F
  0.166667 -0.083333 -0.083333    0.00057870  32 t-inv F
  0.083333 -0.166667  0.083333    0.00057870  32 t-inv F
 -0.083333  0.166667 -0.083333    0.00057870  32 t-inv F
  0.083333 -0.166667 -0.083333    0.00057870  32 t-inv F
 -0.083333  0.166667  0.083333    0.00057870  32 t-inv F
 -0.166667  0.083333 -0.083333    0.00057870  32 t-inv F
  0.166667 -0.083333  0.083333    0.00057870  32 t-inv F
  0.083333  0.083333 -0.083333    0.00057870  32 t-inv F
 -0.083333 -0.083333  0.083333    0.00057870  32 t-inv F
 -0.166667 -0.083333 -0.083333    0.00057870  33 t-inv F
 -0.250000  0.166667  0.083333    0.00057870  33 t-inv F
  0.250000 -0.166667 -0.083333    0.00057870  33 t-inv F
  0.083333 -0.250000  0.083333    0.00057870  33 t-inv F
 -0.083333  0.250000 -0.083333    0.00057870  33 t-inv F
  0.166667 -0.250000 -0.083333    0.00057870  33 t-inv F
 -0.166667  0.250000  0.083333    0.00057870  33 t-inv F
 -0.250000  0.083333 -0.083333    0.00057870  33 t-inv F
  0.250000 -0.083333  0.083333    0.00057870  33 t-inv F
  0.083333  0.166667 -0.083333    0.00057870  33 t-inv F
 -0.083333 -0.166667  0.083333    0.00057870  33 t-inv F
  0.083333 -0.250000 -0.083333    0.00057870  34 t-inv F
 -0.166667 -0.083333  0.083333    0.00057870  34 t-inv F
  0.166667  0.083333 -0.083333    0.00057870  34 t-inv F
  0.250000 -0.166667  0.083333    0.00057870  34 t-inv F
 -0.250000  0.166667 -0.083333    0.00057870  34 t-inv F
 -0.083333 -0.166667 -0.083333    0.00057870  34 t-inv F
  0.083333  0.166667  0.083333    0.00057870  34 t-inv F
 -0.166667  0.250000 -0.083333    0.00057870  34 t-inv F
  0.166667 -0.250000  0.083333    0.00057870  34 t-inv F
  0.250000 -0.083333 -0.083333    0.00057870  34 t-inv F
 -0.250000  0.083333  0.083333    0.00057870  34 t-inv F
 -0.250000 -0.083333 -0.083333    0.00057870  35 t-inv F
 -0.333333  0.250000  0.083333    0.00057870  35 t-inv F
  0.333333 -0.250000 -0.083333    0.00057870  35 t-inv F
  0.083333 -0.333333  0.083333    0.00057870  35 t-inv F
 -0.083333  0.333333 -0.083333    0.00057870  35 t-inv F
  0.250000 -0.333333 -0.083333    0.00057870  35 t-inv F
 -0.250000  0.333333  0.083333    0.00057870  35 t-inv F
 -0.333333  0.083333 -0.083333    0.00057870  35 t-inv F
  0.333333 -0.083333  0.083333    0.00057870  35 t-inv F
  0.083333  0.250000 -0.083333    0.00057870  35 t-inv F
 -0.083333 -0.250000  0.083333    0.00057870  35 t-inv F
  0.083333 -0.333333 -0.083333    0.00057870  36 t-inv F
 -0.250000 -0.083333  0.083333    0.00057870  36 t-inv F
  0.250000  0.083333 -0.083333    0.00057870  36 t-inv F
  0.333333 -0.250000  0.083333    0.00057870  36 t-inv F
 -0.333333  0.250000 -0.083333    0.00057870  36 t-inv F
 -0.083333 -0.250000 -0.083333    0.00057870  36 t-inv F
  0.083333  0.250000  0.083333    0.00057870  36 t-inv F
 -0.250000  0.333333 -0.083333    0.00057870  36 t-inv F
  0.250000 -0.333333  0.083333    0.00057870  36 t-inv F
  0.333333 -0.083333 -0.083333    0.00057870  36 t-inv F
 -0.333333  0.083333  0.083333    0.00057870  36 t-inv F
 -0.333333 -0.083333 -0.083333    0.00057870  37 t-inv F
 -0.416667  0.333333  0.083333    0.00057870  37 t-inv F
  0.416667 -0.333333 -0.083333    0.00057870  37 t-inv F
  0.083333 -0.416667  0.083333    0.00057870  37 t-inv F
 -0.083333  0.416667 -0.083333    0.00057870  37 t-inv F
  0.333333 -0.416667 -0.083333    0.00057870  37 t-inv F
 -0.333333  0.416667  0.083333    0.00057870  37 t-inv F
 -0.416667  0.083333 -0.083333    0.00057870  37 t-inv F
  0.416667 -0.083333  0.083333    0.00057870  37 t-inv F
  0.083333  0.333333 -0.083333    0.00057870  37 t-inv F
 -0.083333 -0.333333  0.083333    0.00057870  37 t-inv F
  0.083333 -0.416667 -0.083333    0.00057870  38 t-inv F
 -0.333333 -0.083333  0.083333    0.00057870  38 t-inv F
  0.333333  0.083333 -0.083333    0.00057870  38 t-inv F
  0.416667 -0.333333  0.083333    0.00057870  38 t-inv F
 -0.416667  0.333333 -0.083333    0.00057870  38 t-inv F
 -0.083333 -0.333333 -0.083333    0.00057870  38 t-inv F
  0.083333  0.333333  0.083333    0.00057870  38 t-inv F
 -0.333333  0.416667 -0.083333    0.00057870  38 t-inv F
  0.333333 -0.416667  0.083333    0.00057870  38 t-inv F
  0.416667 -0.083333 -0.083333    0.00057870  38 t-inv F
 -0.416667  0.083333  0.083333    0.00057870  38 t-inv F
 -0.416667 -0.083333 -0.083333    0.00057870  39 t-inv F
 -0.500000  0.416667  0.083333    0.00057870  39 t-inv F
  0.500000 -0.416667 -0.083333    0.00057870  39 t-inv F
  0.083333 -0.500000  0.083333    0.00057870  39 t-inv F
 -0.083333  0.500000 -0.083333    0.00057870  39 t-inv F
  0.416667 -0.500000 -0.083333    0.00057870  39 t-inv F
 -0.416667  0.500000  0.083333    0.00057870  39 t-inv F
 -0.500000  0.083333 -0.083333    0.00057870  39 t-inv F
  0.500000 -0.083333  0.083333    0.00057870  39 t-inv F
  0.083333  0.416667 -0.083333    0.00057870  39 t-inv F
 -0.083333 -0.416667  0.083333    0.00057870  39 t-inv F
  0.083333 -0.500000 -0.083333    0.00057870  40 t-inv F
 -0.416667 -0.083333  0.083333    0.00057870  40 t-inv F
  0.416667  0.083333 -0.083333    0.00057870  40 t-inv F
  0.500000 -0.416667  0.083333    0.00057870  40 t-inv F
 -0.500000  0.416667 -0.083333    0.00057870  40 t-inv F
 -0.083333 -0.416667 -0.083333    0.00057870  40 t-inv F
  0.083333  0.416667  0.083333    0.00057870  40 t-inv F
 -0.416667  0.500000 -0.083333    0.00057870  40 t-inv F
  0.416667 -0.500000  0.083333    0.00057870  40 t-inv F
  0.500000 -0.083333 -0.083333    0.00057870  40 t-inv F
 -0.500000  0.083333  0.083333    0.00057870  40 t-inv F
 -0.166667 -0.166667 -0.083333    0.00057870  41 t-inv F
 -0.333333  0.166667  0.083333    0.00057870  41 t-inv F
  0.333333 -0.166667 -0.083333    0.00057870  41 t-inv F
  0.166667 -0.333333  0.083333    0.00057870  41 t-inv F
 -0.166667  0.333333 -0.083333    0.00057870  41 t-inv F
  0.166667 -0.333333 -0.083333    0.00057870  41 t-inv F
 -0.166667  0.333333  0.083333    0.00057870  41 t-inv F
 -0.333333  0.166667 -0.083333    0.00057870  41 t-inv F
  0.333333 -0.166667  0.083333    0.00057870  41 t-inv F
  0.166667  0.166667 -0.083333    0.00057870  41 t-inv F
 -0.166667 -0.166667  0.083333    0.00057870  41 t-inv F
 -0.250000 -0.166667 -0.083333    0.00057870  42 t-inv F
 -0.416667  0.250000  0.083333    0.00057870  42 t-inv F
  0.416667 -0.250000 -0.083333    0.00057870  42 t-inv F
  0.166667 -0.416667  0.083333    0.00057870  42 t-inv F
 -0.166667  0.416667 -0.083333    0.00057870  42 t-inv F
  0.250000 -0.416667 -0.083333    0.00057870  42 t-inv F
 -0.250000  0.416667  0.083333    0.00057870  42 t-inv F
 -0.416667  0.166667 -0.083333    0.00057870  42 t-inv F
  0.416667 -0.166667  0.083333    0.00057870  42 t-inv F
  0.166667  0.250000 -0.083333    0.00057870  42 t-inv F
 -0.166667 -0.250000  0.083333    0.00057870  42 t-inv F
  0.166667 -0.416667 -0.083333    0.00057870  43 t-inv F
 -0.250000 -0.166667  0.083333    0.00057870  43 t-inv F
  0.250000  0.166667 -0.083333    0.00057870  43 t-inv F
  0.416667 -0.250000  0.083333    0.00057870  43 t-inv F
 -0.416667  0.250000 -0.083333    0.00057870  43 t-inv F
 -0.166667 -0.250000 -0.083333    0.00057870  43 t-inv F
  0.166667  0.250000  0.083333    0.00057870  43 t-inv F
 -0.250000  0.416667 -0.083333    0.00057870  43 t-inv F
  0.250000 -0.416667  0.083333    0.00057870  43 t-inv F
  0.416667 -0.166667 -0.083333    0.00057870  43 t-inv F
 -0.416667  0.166667  0.083333    0.00057870  43 t-inv F
 -0.333333 -0.166667 -0.083333    0.00057870  44 t-inv F
 -0.500000  0.333333  0.083333    0.00057870  44 t-inv F
  0.500000 -0.333333 -0.083333    0.00057870  44 t-inv F
  0.166667 -0.500000  0.083333    0.00057870  44 t-inv F
 -0.166667  0.500000 -0.083333    0.00057870  44 t-inv F
  0.333333 -0.500000 -0.083333    0.00057870  44 t-inv F
 -0.333333  0.500000  0.083333    0.00057870  44 t-inv F
 -0.500000  0.166667 -0.083333    0.00057870  44 t-inv F
  0.500000 -0.166667  0.083333    0.00057870  44 t-inv F
  0.166667  0.333333 -0.083333    0.00057870  44 t-inv F
 -0.166667 -0.333333  0.083333    0.00057870  44 t-inv F
  0.166667 -0.500000 -0.083333    0.00057870  45 t-inv F
 -0.333333 -0.166667  0.083333    0.00057870  45 t-inv F
  0.333333  0.166667 -0.083333    0.00057870  45 t-inv F
  0.500000 -0.333333  0.083333    0.00057870  45 t-inv F
 -0.500000  0.333333 -0.083333    0.00057870  45 t-inv F
 -0.166667 -0.333333 -0.083333    0.00057870  45 t-inv F
  0.166667  0.333333  0.083333    0.00057870  45 t-inv F
 -0.333333  0.500000 -0.083333    0.00057870  45 t-inv F
  0.333333 -0.500000  0.083333    0.00057870  45 t-inv F
  0.500000 -0.166667 -0.083333    0.00057870  45 t-inv F
 -0.500000  0.166667  0.083333    0.00057870  45 t-inv F
 -0.416667 -0.166667 -0.083333    0.00057870  46 t-inv F
 -0.583333  0.416667  0.083333    0.00057870  46 t-inv F
  0.583333 -0.416667 -0.083333    0.00057870  46 t-inv F
  0.166667 -0.583333  0.083333    0.00057870  46 t-inv F
 -0.166667  0.583333 -0.083333    0.00057870  46 t-inv F
  0.416667 -0.583333 -0.083333    0.00057870  46 t-inv F
 -0.416667  0.583333  0.083333    0.00057870  46 t-inv F
 -0.583333  0.166667 -0.083333    0.00057870  46 t-inv F
  0.583333 -0.166667  0.083333    0.00057870  46 t-inv F
  0.166667  0.416667 -0.083333    0.00057870  46 t-inv F
 -0.166667 -0.416667  0.083333    0.00057870  46 t-inv F
 -0.250000 -0.250000 -0.083333    0.00057870  47 t-inv F
 -0.500000  0.250000  0.083333    0.00057870  47 t-inv F
  0.500000 -0.250000 -0.083333    0.00057870  47 t-inv F
  0.250000 -0.500000  0.083333    0.00057870  47 t-inv F
 -0.250000  0.500000 -0.083333    0.00057870  47 t-inv F
  0.250000 -0.500000 -0.083333    0.00057870  47 t-inv F
 -0.250000  0.500000  0.083333    0.00057870  47 t-inv F
 -0.500000  0.250000 -0.083333    0.00057870  47 t-inv F
  0.500000 -0.250000  0.083333    0.00057870  47 t-inv F
  0.250000  0.250000 -0.083333    0.00057870  47 t-inv F
 -0.250000 -0.250000  0.083333    0.00057870  47 t-inv F
 -0.333333 -0.250000 -0.083333    0.00057870  48 t-inv F
 -0.583333  0.333333  0.083333    0.00057870  48 t-inv F
  0.583333 -0.333333 -0.083333    0.00057870  48 t-inv F
  0.250000 -0.583333  0.083333    0.00057870  48 t-inv F
 -0.250000  0.583333 -0.083333    0.00057870  48 t-inv F
  0.333333 -0.583333 -0.083333    0.00057870  48 t-inv F
 -0.333333  0.583333  0.083333    0.00057870  48 t-inv F
 -0.583333  0.250000 -0.083333    0.00057870  48 t-inv F
  0.583333 -0.250000  0.083333    0.00057870  48 t-inv F
  0.250000  0.333333 -0.083333    0.00057870  48 t-inv F
 -0.250000 -0.333333  0.083333    0.00057870  48 t-inv F
  0.250000  0.416667 -0.083333    0.00057870  49 t-inv F
  0.666667 -0.250000  0.083333    0.00057870  49 t-inv F
 -0.666667  0.250000 -0.083333    0.00057870  49 t-inv F
 -0.416667  0.666667  0.083333    0.00057870  49 t-inv F
  0.416667 -0.666667 -0.083333    0.00057870  49 t-inv F
 -0.250000  0.666667 -0.083333    0.00057870  49 t-inv F
  0.250000 -0.666667  0.083333    0.00057870  49 t-inv F
  0.666667 -0.416667 -0.083333    0.00057870  49 t-inv F
 -0.666667  0.416667  0.083333    0.00057870  49 t-inv F
 -0.416667 -0.250000 -0.083333    0.00057870  49 t-inv F
  0.416667  0.250000  0.083333    0.00057870  49 t-inv F
 -0.333333 -0.333333 -0.083333    0.00057870  50 t-inv F
  0.333333 -0.666667 -0.083333    0.00057870  50 t-inv F
 -0.333333  0.666667  0.083333    0.00057870  50 t-inv F
  0.000000 -0.000000 -0.166667    0.00057870  51 t-inv F
 -0.083333  0.000000 -0.166667    0.00057870  52 t-inv F
 -0.083333  0.083333  0.166667    0.00057870  52 t-inv F
  0.083333 -0.083333 -0.166667    0.00057870  52 t-inv F
 -0.000000 -0.083333  0.166667    0.00057870  52 t-inv F
  0.000000  0.083333 -0.166667    0.00057870  52 t-inv F
  0.000000 -0.083333 -0.166667    0.00057870  53 t-inv F
 -0.083333 -0.000000  0.166667    0.00057870  53 t-inv F
  0.083333  0.000000 -0.166667    0.00057870  53 t-inv F
  0.083333 -0.083333  0.166667    0.00057870  53 t-inv F
 -0.083333  0.083333 -0.166667    0.00057870  53 t-inv F
 -0.166667 -0.000000 -0.166667    0.00057870  54 t-inv F
 -0.166667  0.166667  0.166667    0.00057870  54 t-inv F
  0.166667 -0.166667 -0.166667    0.00057870  54 t-inv F
  0.000000 -0.166667  0.166667    0.00057870  54 t-inv F
 -0.000000  0.166667 -0.166667    0.00057870  54 t-inv F
  0.000000 -0.166667 -0.166667    0.00057870  55 t-inv F
 -0.166667 -0.000000  0.166667    0.00057870  55 t-inv F
  0.166667  0.000000 -0.166667    0.00057870  55 t-inv F
  0.166667 -0.166667  0.166667    0.00057870  55 t-inv F
 -0.166667  0.166667 -0.166667    0.00057870  55 t-inv F
 -0.250000 -0.000000 -0.166667    0.00057870  56 t-inv F
 -0.250000  0.250000  0.166667    0.00057870  56 t-inv F
  0.250000 -0.250000 -0.166667    0.00057870  56 t-inv F
  0.000000 -0.250000  0.166667    0.00057870  56 t-inv F
 -0.000000  0.250000 -0.166667    0.00057870  56 t-inv F
  0.000000 -0.250000 -0.166667    0.00057870  57 t-inv F
 -0.250000 -0.000000  0.166667    0.00057870  57 t-inv F
  0.250000  0.000000 -0.166667    0.00057870  57 t-inv F
  0.250000 -0.250000  0.166667    0.00057870  57 t-inv F
 -0.250000  0.250000 -0.166667    0.00057870  57 t-inv F
 -0.333333 -0.000000 -0.166667    0.00057870  58 t-inv F
 -0.333333  0.333333  0.166667    0.00057870  58 t-inv F
  0.333333 -0.333333 -0.166667    0.00057870  58 t-inv F
  0.000000 -0.333333  0.166667    0.00057870  58 t-inv F
 -0.000000  0.333333 -0.166667    0.00057870  58 t-inv F
  0.000000 -0.333333 -0.166667    0.00057870  59 t-inv F
 -0.333333 -0.000000  0.166667    0.00057870  59 t-inv F
  0.333333  0.000000 -0.166667    0.00057870  59 t-inv F
  0.333333 -0.333333  0.166667    0.00057870  59 t-inv F
 -0.333333  0.333333 -0.166667    0.00057870  59 t-inv F
 -0.416667 -0.000000 -0.166667    0.00057870  60 t-inv F
 -0.416667  0.416667  0.166667    0.00057870  60 t-inv F
  0.416667 -0.416667 -0.166667    0.00057870  60 t-inv F
  0.000000 -0.416667  0.166667    0.00057870  60 t-inv F
 -0.000000  0.416667 -0.166667    0.00057870  60 t-inv F
  0.000000 -0.416667 -0.166667    0.00057870  61 t-inv F
 -0.416667 -0.000000  0.166667    0.00057870  61 t-inv F
  0.416667  0.000000 -0.166667    0.00057870  61 t-inv F
  0.416667 -0.416667  0.166667    0.00057870  61 t-inv F
 -0.416667  0.416667 -0.166667    0.00057870  61 t-inv F
 -0.500000 -0.000000 -0.166667    0.00057870  62 t-inv F
 -0.500000  0.500000  0.166667    0.00057870  62 t-inv F
  0.500000 -0.500000 -0.166667    0.00057870  62 t-inv F
  0.000000 -0.500000  0.166667    0.00057870  62 t-inv F
 -0.000000  0.500000 -0.166667    0.00057870  62 t-inv F
 -0.083333 -0.083333 -0.166667    0.00057870  63 t-inv F
 -0.166667  0.083333  0.166667    0.00057870  63 t-inv F
  0.166667 -0.083333 -0.166667    0.00057870  63 t-inv F
  0.083333 -0.166667  0.166667    0.00057870  63 t-inv F
 -0.083333  0.166667 -0.166667    0.00057870  63 t-inv F
  0.083333 -0.166667 -0.166667    0.00057870  63 t-inv F
 -0.083333  0.166667  0.166667    0.00057870  63 t-inv F
 -0.166667  0.083333 -0.166667    0.00057870  63 t-inv F
  0.166667 -0.083333  0.166667    0.00057870  63 t-inv F
  0.083333  0.083333 -0.166667    0.00057870  63 t-inv F
 -0.083333 -0.083333  0.166667    0.00057870  63 t-inv F
 -0.166667 -0.083333 -0.166667    0.00057870  64 t-inv F
 -0.250000  0.166667  0.166667    0.00057870  64 t-inv F
  0.250000 -0.166667 -0.166667    0.00057870  64 t-inv F
  0.083333 -0.250000  0.166667    0.00057870  64 t-inv F
 -0.083333  0.250000 -0.166667    0.00057870  64 t-inv F
  0.166667 -0.250000 -0.166667    0.00057870  64 t-inv F
 -0.166667  0.250000  0.166667    0.00057870  64 t-inv F
 -0.250000  0.083333 -0.166667    0.00057870  64 t-inv F
  0.250000 -0.083333  0.166667    0.00057870  64 t-inv F
  0.083333  0.166667 -0.166667    0.00057870  64 t-inv F
 -0.083333 -0.166667  0.166667    0.00057870  64 t-inv F
  0.083333 -0.250000 -0.166667    0.00057870  65 t-inv F
 -0.166667 -0.083333  0.166667    0.00057870  65 t-inv F
  0.166667  0.083333 -0.166667    0.00057870  65 t-inv F
  0.250000 -0.166667  0.166667    0.00057870  65 t-inv F
 -0.250000  0.166667 -0.166667    0.00057870  65 t-inv F
 -0.083333 -0.166667 -0.166667    0.00057870  65 t-inv F
  0.083333  0.166667  0.166667    0.00057870  65 t-inv F
 -0.166667  0.250000 -0.166667    0.00057870  65 t-inv F
  0.166667 -0.250000  0.166667    0.00057870  65 t-inv F
  0.250000 -0.083333 -0.166667    0.00057870  65 t-inv F
 -0.250000  0.083333  0.166667    0.00057870  65 t-inv F
 -0.250000 -0.083333 -0.166667    0.00057870  66 t-inv F
 -0.333333  0.250000  0.166667    0.00057870  66 t-inv F
  0.333333 -0.250000 -0.166667    0.00057870  66 t-inv F
  0.083333 -0.333333  0.166667    0.00057870  66 t-inv F
 -0.083333  0.333333 -0.166667    0.00057870  66 t-inv F
  0.250000 -0.333333 -0.166667    0.00057870  66 t-inv F
 -0.250000  0.333333  0.166667    0.00057870  66 t-inv F
 -0.333333  0.083333 -0.166667    0.00057870  66 t-inv F
  0.333333 -0.083333  0.166667    0.00057870  66 t-inv F
  0.083333  0.250000 -0.166667    0.00057870  66 t-inv F
 -0.083333 -0.250000  0.166667    0.00057870  66 t-inv F
  0.083333 -0.333333 -0.166667    0.00057870  67 t-inv F
 -0.250000 -0.083333  0.166667    0.00057870  67 t-inv F
  0.250000  0.083333 -0.166667    0.00057870  67 t-inv F
  0.333333 -0.250000  0.166667    0.00057870  67 t-inv F
 -0.333333  0.250000 -0.166667    0.00057870  67 t-inv F
 -0.083333 -0.250000 -0.166667    0.00057870  67 t-inv F
  0.083333  0.250000  0.166667    0.00057870  67 t-inv F
 -0.250000  0.333333 -0.166667    0.00057870  67 t-inv F
  0.250000 -0.333333  0.166667    0.00057870  67 t-inv F
  0.333333 -0.083333 -0.166667    0.00057870  67 t-inv F
 -0.333333  0.083333  0.166667    0.00057870  67 t-inv F
 -0.333333 -0.083333 -0.166667    0.00057870  68 t-inv F
 -0.416667  0.333333  0.166667    0.00057870  68 t-inv F
  0.416667 -0.333333 -0.166667    0.00057870  68 t-inv F
  0.083333 -0.416667  0.166667    0.00057870  68 t-inv F
 -0.083333  0.416667 -0.166667    0.00057870  68 t-inv F
  0.333333 -0.416667 -0.166667    0.00057870  68 t-inv F
 -0.333333  0.416667  0.166667    0.00057870  68 t-inv F
 -0.416667  0.083333 -0.166667    0.00057870  68 t-inv F
  0.416667 -0.083333  0.166667    0.00057870  68 t-inv F
  0.083333  0.333333 -0.166667    0.00057870  68 t-inv F
 -0.083333 -0.333333  0.166667    0.00057870  68 t-inv F
  0.083333 -0.416667 -0.166667    0.00057870  69 t-inv F
 -0.333333 -0.083333  0.166667    0.00057870  69 t-inv F
  0.333333  0.083333 -0.166667    0.00057870  69 t-inv F
  0.416667 -0.333333  0.166667    0.00057870  69 t-inv F
 -0.416667  0.333333 -0.166667    0.00057870  69 t-inv F
 -0.083333 -0.333333 -0.166667    0.00057870  69 t-inv F
  0.083333  0.333333  0.166667    0.00057870  69 t-inv F
 -0.333333  0.416667 -0.166667    0.00057870  69 t-inv F
  0.333333 -0.416667  0.166667    0.00057870  69 t-inv F
  0.416667 -0.083333 -0.166667    0.00057870  69 t-inv F
 -0.416667  0.083333  0.166667    0.00057870  69 t-inv F
 -0.416667 -0.083333 -0.166667    0.00057870  70 t-inv F
 -0.500000  0.416667  0.166667    0.00057870  70 t-inv F
  0.500000 -0.416667 -0.166667    0.00057870  70 t-inv F
  0.083333 -0.500000  0.166667    0.00057870  70 t-inv F
 -0.083333  0.500000 -0.166667    0.00057870  70 t-inv F
  0.416667 -0.500000 -0.166667    0.00057870  70 t-inv F
 -0.416667  0.500000  0.166667    0.00057870  70 t-inv F
 -0.500000  0.083333 -0.166667    0.00057870  70 t-inv F
  0.500000 -0.083333  0.166667    0.00057870  70 t-inv F
  0.083333  0.416667 -0.166667    0.00057870  70 t-inv F
 -0.083333 -0.416667  0.166667    0.00057870  70 t-inv F
  0.083333 -0.500000 -0.166667    0.00057870  71 t-inv F
 -0.416667 -0.083333  0.166667    0.00057870  71 t-inv F
  0.416667  0.083333 -0.166667    0.00057870  71 t-inv F
  0.500000 -0.416667  0.166667    0.00057870  71 t-inv F
 -0.500000  0.416667 -0.166667    0.00057870  71 t-inv F
 -0.083333 -0.416667 -0.166667    0.00057870  71 t-inv F
  0.083333  0.416667  0.166667    0.00057870  71 t-inv F
 -0.416667  0.500000 -0.166667    0.00057870  71 t-inv F
  0.416667 -0.500000  0.166667    0.00057870  71 t-inv F
  0.500000 -0.083333 -0.166667    0.00057870  71 t-inv F
 -0.500000  0.083333  0.166667    0.00057870  71 t-inv F
 -0.166667 -0.166667 -0.166667    0.00057870  72 t-inv F
 -0.333333  0.166667  0.166667    0.00057870  72 t-inv F
  0.333333 -0.166667 -0.166667    0.00057870  72 t-inv F
  0.166667 -0.333333  0.166667    0.00057870  72 t-inv F
 -0.166667  0.333333 -0.166667    0.00057870  72 t-inv F
  0.166667 -0.333333 -0.166667    0.00057870  72 t-inv F
 -0.166667  0.333333  0.166667    0.00057870  72 t-inv F
 -0.333333  0.166667 -0.166667    0.00057870  72 t-inv F
  0.333333 -0.166667  0.166667    0.00057870  72 t-inv F
  0.166667  0.166667 -0.166667    0.00057870  72 t-inv F
 -0.166667 -0.166667  0.166667    0.00057870  72 t-inv F
 -0.250000 -0.166667 -0.166667    0.00057870  73 t-inv F
 -0.416667  0.250000  0.166667    0.00057870  73 t-inv F
  0.416667 -0.250000 -0.166667    0.00057870  73 t-inv F
  0.166667 -0.416667  0.166667    0.00057870  73 t-inv F
 -0.166667  0.416667 -0.166667    0.00057870  73 t-inv F
  0.250000 -0.416667 -0.166667    0.00057870  73 t-inv F
 -0.250000  0.416667  0.166667    0.00057870  73 t-inv F
 -0.416667  0.166667 -0.166667    0.00057870  73 t-inv F
  0.416667 -0.166667  0.166667    0.00057870  73 t-inv F
  0.166667  0.250000 -0.166667    0.00057870  73 t-inv F
 -0.166667 -0.250000  0.166667    0.00057870  73 t-inv F
  0.166667 -0.416667 -0.166667    0.00057870  74 t-inv F
 -0.250000 -0.166667  0.166667    0.00057870  74 t-inv F
  0.250000  0.166667 -0.166667    0.00057870  74 t-inv F
  0.416667 -0.250000  0.166667    0.00057870  74 t-inv F
 -0.416667  0.250000 -0.166667    0.00057870  74 t-inv F
 -0.166667 -0.250000 -0.166667    0.00057870  74 t-inv F
  0.166667  0.250000  0.166667    0.00057870  74 t-inv F
 -0.250000  0.416667 -0.166667    0.00057870  74 t-inv F
  0.250000 -0.416667  0.166667    0.00057870  74 t-inv F
  0.416667 -0.166667 -0.166667    0.00057870  74 t-inv F
 -0.416667  0.166667  0.166667    0.00057870  74 t-inv F
 -0.333333 -0.166667 -0.166667    0.00057870  75 t-inv F
 -0.500000  0.333333  0.166667    0.00057870  75 t-inv F
  0.500000 -0.333333 -0.166667    0.00057870  75 t-inv F
  0.166667 -0.500000  0.166667    0.00057870  75 t-inv F
 -0.166667  0.500000 -0.166667    0.00057870  75 t-inv F
  0.333333 -0.500000 -0.166667    0.00057870  75 t-inv F
 -0.333333  0.500000  0.166667    0.00057870  75 t-inv F
 -0.500000  0.166667 -0.166667    0.00057870  75 t-inv F
  0.500000 -0.166667  0.166667    0.00057870  75 t-inv F
  0.166667  0.333333 -0.166667    0.00057870  75 t-inv F
 -0.166667 -0.333333  0.166667    0.00057870  75 t-inv F
  0.166667 -0.500000 -0.166667    0.00057870  76 t-inv F
 -0.333333 -0.166667  0.166667    0.00057870  76 t-inv F
  0.333333  0.166667 -0.166667    0.00057870  76 t-inv F
  0.500000 -0.333333  0.166667    0.00057870  76 t-inv F
 -0.500000  0.333333 -0.166667    0.00057870  76 t-inv F
 -0.166667 -0.333333 -0.166667    0.00057870  76 t-inv F
  0.166667  0.333333  0.166667    0.00057870  76 t-inv F
 -0.333333  0.500000 -0.166667    0.00057870  76 t-inv F
  0.333333 -0.500000  0.166667    0.00057870  76 t-inv F
  0.500000 -0.166667 -0.166667    0.00057870  76 t-inv F
 -0.500000  0.166667  0.166667    0.00057870  76 t-inv F
 -0.416667 -0.166667 -0.166667    0.00057870  77 t-inv F
 -0.583333  0.416667  0.166667    0.00057870  77 t-inv F
  0.583333 -0.416667 -0.166667    0.00057870  77 t-inv F
  0.166667 -0.583333  0.166667    0.00057870  77 t-inv F
 -0.166667  0.583333 -0.166667    0.00057870  77 t-inv F
  0.416667 -0.583333 -0.166667    0.00057870  77 t-inv F
 -0.416667  0.583333  0.166667    0.00057870  77 t-inv F
 -0.583333  0.166667 -0.166667    0.00057870  77 t-inv F
  0.583333 -0.166667  0.166667    0.00057870  77 t-inv F
  0.166667  0.416667 -0.166667    0.00057870  77 t-inv F
 -0.166667 -0.416667  0.166667    0.00057870  77 t-inv F
 -0.250000 -0.250000 -0.166667    0.00057870  78 t-inv F
 -0.500000  0.250000  0.166667    0.00057870  78 t-inv F
  0.500000 -0.250000 -0.166667    0.00057870  78 t-inv F
  0.250000 -0.500000  0.166667    0.00057870  78 t-inv F
 -0.250000  0.500000 -0.166667    0.00057870  78 t-inv F
  0.250000 -0.500000 -0.166667    0.00057870  78 t-inv F
 -0.250000  0.500000  0.166667    0.00057870  78 t-inv F
 -0.500000  0.250000 -0.166667    0.00057870  78 t-inv F
  0.500000 -0.250000  0.166667    0.00057870  78 t-inv F
  0.250000  0.250000 -0.166667    0.00057870  78 t-inv F
 -0.250000 -0.250000  0.166667    0.00057870  78 t-inv F
 -0.333333 -0.250000 -0.166667    0.00057870  79 t-inv F
 -0.583333  0.333333  0.166667    0.00057870  79 t-inv F
  0.583333 -0.333333 -0.166667    0.00057870  79 t-inv F
  0.250000 -0.583333  0.166667    0.00057870  79 t-inv F
 -0.250000  0.583333 -0.166667    0.00057870  79 t-inv F
  0.333333 -0.583333 -0.166667    0.00057870  79 t-inv F
 -0.333333  0.583333  0.166667    0.00057870  79 t-inv F
 -0.583333  0.250000 -0.166667    0.00057870  79 t-inv F
  0.583333 -0.250000  0.166667    0.00057870  79 t-inv F
  0.250000  0.333333 -0.166667    0.00057870  79 t-inv F
 -0.250000 -0.333333  0.166667    0.00057870  79 t-inv F
  0.250000  0.416667 -0.166667    0.00057870  80 t-inv F
  0.666667 -0.250000  0.166667    0.00057870  80 t-inv F
 -0.666667  0.250000 -0.166667    0.00057870  80 t-inv F
 -0.416667  0.666667  0.166667    0.00057870  80 t-inv F
  0.416667 -0.666667 -0.166667    0.00057870  80 t-inv F
 -0.250000  0.666667 -0.166667    0.00057870  80 t-inv F
  0.250000 -0.666667  0.166667    0.00057870  80 t-inv F
  0.666667 -0.416667 -0.166667    0.00057870  80 t-inv F
 -0.666667  0.416667  0.166667    0.00057870  80 t-inv F
 -0.416667 -0.250000 -0.166667    0.00057870  80 t-inv F
  0.416667  0.250000  0.166667    0.00057870  80 t-inv F
 -0.333333 -0.333333 -0.166667    0.00057870  81 t-inv F
  0.333333 -0.666667 -0.166667    0.00057870  81 t-inv F
 -0.333333  0.666667  0.166667    0.00057870  81 t-inv F
 -0.000000 -0.000000 -0.250000    0.00057870  82 t-inv F
 -0.083333  0.000000 -0.250000    0.00057870  83 t-inv F
 -0.083333  0.083333  0.250000    0.00057870  83 t-inv F
  0.083333 -0.083333 -0.250000    0.00057870  83 t-inv F
 -0.000000 -0.083333  0.250000    0.00057870  83 t-inv F
  0.000000  0.083333 -0.250000    0.00057870  83 t-inv F
 -0.000000 -0.083333 -0.250000    0.00057870  84 t-inv F
 -0.083333  0.000000  0.250000    0.00057870  84 t-inv F
  0.083333 -0.000000 -0.250000    0.00057870  84 t-inv F
  0.083333 -0.083333  0.250000    0.00057870  84 t-inv F
 -0.083333  0.083333 -0.250000    0.00057870  84 t-inv F
 -0.166667  0.000000 -0.250000    0.00057870  85 t-inv F
 -0.166667  0.166667  0.250000    0.00057870  85 t-inv F
  0.166667 -0.166667 -0.250000    0.00057870  85 t-inv F
 -0.000000 -0.166667  0.250000    0.00057870  85 t-inv F
  0.000000  0.166667 -0.250000    0.00057870  85 t-inv F
 -0.000000 -0.166667 -0.250000    0.00057870  86 t-inv F
 -0.166667  0.000000  0.250000    0.00057870  86 t-inv F
  0.166667 -0.000000 -0.250000    0.00057870  86 t-inv F
  0.166667 -0.166667  0.250000    0.00057870  86 t-inv F
 -0.166667  0.166667 -0.250000    0.00057870  86 t-inv F
 -0.250000 -0.000000 -0.250000    0.00057870  87 t-inv F
 -0.250000  0.250000  0.250000    0.00057870  87 t-inv F
  0.250000 -0.250000 -0.250000    0.00057870  87 t-inv F
  0.000000 -0.250000  0.250000    0.00057870  87 t-inv F
 -0.000000  0.250000 -0.250000    0.00057870  87 t-inv F
 -0.000000 -0.250000 -0.250000    0.00057870  88 t-inv F
 -0.250000  0.000000  0.250000    0.00057870  88 t-inv F
  0.250000 -0.000000 -0.250000    0.00057870  88 t-inv F
  0.250000 -0.250000  0.250000    0.00057870  88 t-inv F
 -0.250000  0.250000 -0.250000    0.00057870  88 t-inv F
 -0.333333 -0.000000 -0.250000    0.00057870  89 t-inv F
 -0.333333  0.333333  0.250000    0.00057870  89 t-inv F
  0.333333 -0.333333 -0.250000    0.00057870  89 t-inv F
  0.000000 -0.333333  0.250000    0.00057870  89 t-inv F
 -0.000000  0.333333 -0.250000    0.00057870  89 t-inv F
 -0.000000 -0.333333 -0.250000    0.00057870  90 t-inv F
 -0.333333  0.000000  0.250000    0.00057870  90 t-inv F
  0.333333 -0.000000 -0.250000    0.00057870  90 t-inv F
  0.333333 -0.333333  0.250000    0.00057870  90 t-inv F
 -0.333333  0.333333 -0.250000    0.00057870  90 t-inv F
 -0.416667 -0.000000 -0.250000    0.00057870  91 t-inv F
[...]
     27      12.3223      0.00000
     28      12.6061      0.00000
     29      13.6813      0.00000
     30      13.6813      0.00000
     31      14.1506      0.00000
     32      14.1508      0.00000
     33      15.4990      0.00000
     34      15.4991      0.00000
     35      16.0207      0.00000
     36      16.0208      0.00000
     37      16.0458      0.00000
     38      16.6424      0.00000
     39      17.1447      0.00000
     40      17.2861      0.00000
     41      17.8103      0.00000
     42      17.8103      0.00000
     43      18.0678      0.00000
     44      18.0679      0.00000
     45      19.0149      0.00000
     46      19.0150      0.00000
     47      19.3589      0.00000
     48      19.9031      0.00000

 k-point   188 :       0.2500    0.1667    0.5000
  band No.  band energies     occupation 
      1      -4.2715      2.00000
      2      -4.2489      2.00000
      3      -3.3440      2.00000
      4      -1.9607      2.00000
      5      -1.4294      2.00000
      6      -1.1044      2.00000
      7       1.8867      2.00000
      8       2.4981      2.00000
      9       3.0576      2.00000
     10       3.5778      2.00000
     11       4.1025      2.00000
     12       4.1753      2.00000
     13       4.3366      2.00000
     14       4.8814      2.00000
     15       5.8782      2.00000
     16       7.5239      0.00000
     17       8.2225      0.00000
     18       8.3301      0.00000
     19       8.7791      0.00000
     20       9.1741      0.00000
     21       9.3797      0.00000
     22       9.7103      0.00000
     23      10.6173      0.00000
     24      10.8042      0.00000
     25      11.2360      0.00000
     26      11.5306      0.00000
     27      12.2769      0.00000
     28      12.8809      0.00000
     29      13.9759      0.00000
     30      14.4270      0.00000
     31      15.2509      0.00000
     32      15.2975      0.00000
     33      15.5712      0.00000
     34      15.9706      0.00000
     35      16.2436      0.00000
     36      16.5569      0.00000
     37      16.7847      0.00000
     38      16.8876      0.00000
     39      17.0562      0.00000
     40      17.1265      0.00000
     41      17.5528      0.00000
     42      18.0348      0.00000
     43      18.2474      0.00000
     44      18.5264      0.00000
     45      18.7694      0.00000
     46      19.3647      0.00000
     47      19.7927      0.00000
     48      20.2281      0.00000

 k-point   189 :       0.3333    0.1667    0.5000
  band No.  band energies     occupation 
      1      -3.7926      2.00000
      2      -3.7163      2.00000
      3      -3.1486      2.00000
      4      -2.1916      2.00000
      5      -2.0827      2.00000
      6      -1.5453      2.00000
      7       1.8282      2.00000
      8       2.4255      2.00000
      9       2.4736      2.00000
     10       3.2761      2.00000
     11       3.4270      2.00000
     12       4.4667      2.00000
     13       4.7278      2.00000
     14       4.8151      2.00000
     15       5.3543      2.00000
     16       7.3874      0.00000
     17       7.9596      0.00000
     18       8.3159      0.00000
     19       8.5182      0.00000
     20       9.1085      0.00000
     21       9.8084      0.00000
     22      10.2506      0.00000
     23      10.4966      0.00000
     24      11.4046      0.00000
     25      11.9989      0.00000
     26      12.1904      0.00000
     27      12.3060      0.00000
     28      13.0571      0.00000
     29      14.3753      0.00000
     30      14.9683      0.00000
     31      15.0819      0.00000
     32      15.2025      0.00000
     33      15.7897      0.00000
     34      15.9477      0.00000
     35      16.3389      0.00000
     36      16.5683      0.00000
     37      16.8932      0.00000
     38      17.1869      0.00000
     39      17.5441      0.00000
     40      17.5846      0.00000
     41      17.8858      0.00000
     42      17.9802      0.00000
     43      18.8301      0.00000
     44      19.1382      0.00000
     45      19.4332      0.00000
     46      19.5614      0.00000
     47      20.2888      0.00000
     48      20.3648      0.00000

 k-point   190 :       0.4167    0.1667    0.5000
  band No.  band energies     occupation 
      1      -3.3380      2.00000
      2      -3.3378      2.00000
      3      -3.2863      2.00000
      4      -2.7036      2.00000
      5      -1.9332      2.00000
      6      -1.9331      2.00000
      7       2.0553      2.00000
      8       2.0555      2.00000
      9       2.6885      2.00000
     10       2.6886      2.00000
     11       3.3702      2.00000
     12       4.6815      2.00000
     13       4.8725      2.00000
     14       4.8725      2.00000
     15       5.0950      2.00000
     16       6.9738      0.00000
     17       8.2643      0.00000
     18       8.2644      0.00000
     19       8.3107      0.00000
     20       9.0831      0.00000
     21       9.9588      0.00000
     22       9.9590      0.00000
     23      11.4837      0.00000
     24      11.4839      0.00000
     25      11.9266      0.00000
     26      11.9267      0.00000
     27      13.4348      0.00000
     28      13.8475      0.00000
     29      13.8869      0.00000
     30      13.8870      0.00000
     31      14.9887      0.00000
     32      15.0178      0.00000
     33      15.7448      0.00000
     34      15.7448      0.00000
     35      16.5520      0.00000
     36      16.5521      0.00000
     37      17.7361      0.00000
     38      17.8975      0.00000
     39      17.8976      0.00000
     40      18.0627      0.00000
     41      18.3099      0.00000
     42      18.3100      0.00000
     43      18.5590      0.00000
     44      18.5591      0.00000
     45      19.3433      0.00000
     46      19.5883      0.00000
     47      19.5884      0.00000
     48      19.6849      0.00000

 k-point   191 :       0.2500    0.2500    0.5000
  band No.  band energies     occupation 
      1      -3.7987      2.00000
      2      -3.7986      2.00000
      3      -3.0618      2.00000
      4      -2.1720      2.00000
      5      -1.8055      2.00000
      6      -1.8055      2.00000
      7       2.0182      2.00000
      8       2.0402      2.00000
      9       2.7996      2.00000
     10       2.7998      2.00000
     11       3.9091      2.00000
     12       3.9092      2.00000
     13       4.6760      2.00000
     14       4.6760      2.00000
     15       5.9780      2.00000
     16       7.3271      0.00000
     17       7.9352      0.00000
     18       7.9352      0.00000
     19       9.5262      0.00000
     20       9.5262      0.00000
     21      10.0178      0.00000
     22      10.0178      0.00000
     23      11.1793      0.00000
     24      11.1794      0.00000
     25      11.1860      0.00000
     26      11.1883      0.00000
     27      12.5012      0.00000
     28      12.6679      0.00000
     29      14.6831      0.00000
     30      14.6831      0.00000
     31      15.0633      0.00000
     32      15.0635      0.00000
     33      16.3062      0.00000
     34      16.3063      0.00000
     35      16.6454      0.00000
     36      16.6670      0.00000
     37      16.8001      0.00000
     38      16.8003      0.00000
     39      17.0736      0.00000
     40      17.0737      0.00000
     41      17.4472      0.00000
     42      18.0148      0.00000
     43      19.0041      0.00000
     44      19.0150      0.00000
     45      19.3980      0.00000
     46      19.3981      0.00000
     47      20.5801      0.00000
     48      20.5802      0.00000

 k-point   192 :       0.3333    0.2500    0.5000
  band No.  band energies     occupation 
      1      -3.3092      2.00000
      2      -3.2511      2.00000
      3      -2.9479      2.00000
      4      -2.4840      2.00000
      5      -2.3575      2.00000
      6      -2.1488      2.00000
      7       1.9409      2.00000
      8       2.2247      2.00000
      9       2.4473      2.00000
     10       2.6568      2.00000
     11       3.0842      2.00000
     12       3.8003      2.00000
     13       5.1141      2.00000
     14       5.1771      2.00000
     15       5.5963      2.00000
     16       7.2168      0.00000
     17       7.4761      0.00000
     18       7.6886      0.00000
     19       9.5944      0.00000
     20      10.0917      0.00000
     21      10.5369      0.00000
     22      10.7171      0.00000
     23      10.8403      0.00000
     24      11.5375      0.00000
     25      11.5692      0.00000
     26      12.1224      0.00000
     27      12.2060      0.00000
     28      12.5890      0.00000
     29      13.5978      0.00000
     30      13.6516      0.00000
     31      15.1367      0.00000
     32      15.5430      0.00000
     33      15.7543      0.00000
     34      16.3275      0.00000
     35      16.5051      0.00000
     36      16.7158      0.00000
     37      16.8946      0.00000
     38      17.3558      0.00000
     39      17.7578      0.00000
     40      17.8604      0.00000
     41      18.1664      0.00000
     42      18.2988      0.00000
     43      19.1488      0.00000
     44      19.5218      0.00000
     45      19.5314      0.00000
     46      20.0325      0.00000
     47      20.1742      0.00000
     48      20.3999      0.00000

 k-point   193 :       0.3333    0.3333    0.5000
  band No.  band energies     occupation 
      1      -2.7876      2.00000
      2      -2.7875      2.00000
      3      -2.7875      2.00000
      4      -2.7145      2.00000
      5      -2.7144      2.00000
      6      -2.7144      2.00000
      7       2.1380      2.00000
      8       2.1380      2.00000
      9       2.1382      2.00000
     10       3.0165      2.00000
     11       3.0165      2.00000
     12       3.0165      2.00000
     13       5.4962      2.00000
     14       5.4962      2.00000
     15       5.4963      2.00000
     16       7.2235      0.00000
     17       7.2235      0.00000
     18       7.2235      0.00000
     19      10.8037      0.00000
     20      10.8037      0.00000
     21      10.8037      0.00000
     22      10.9062      0.00000
     23      10.9064      0.00000
     24      10.9064      0.00000
     25      12.2182      0.00000
     26      12.2183      0.00000
     27      12.2183      0.00000
     28      12.3827      0.00000
     29      12.3827      0.00000
     30      12.3829      0.00000
     31      15.7565      0.00000
     32      15.7565      0.00000
     33      15.7565      0.00000
     34      16.4175      0.00000
     35      16.4175      0.00000
     36      16.4175      0.00000
     37      17.4299      0.00000
     38      17.4300      0.00000
     39      17.4300      0.00000
     40      17.9131      0.00000
     41      17.9131      0.00000
     42      17.9131      0.00000
     43      20.1937      0.00000
     44      20.1937      0.00000
     45      20.1939      0.00000
     46      20.6386      0.00000
     47      20.6395      0.00000
     48      20.6500      0.00000


--------------------------------------------------------------------------------------------------------


 soft charge-density along one line, spin component           1
         0         1         2         3         4         5         6         7         8         9
 total charge-density along one line
 
 pseudopotential strength for first ion, spin component:           1
 39.828 -67.405  -0.000  -0.033   0.000  -0.000  -0.054   0.000
-67.405 116.505   0.000   0.055  -0.000   0.000   0.089  -0.000
 -0.000   0.000   9.197   0.000  -0.000  14.646   0.000  -0.000
 -0.033   0.055   0.000   9.195  -0.000   0.000  14.643  -0.000
  0.000  -0.000  -0.000  -0.000   9.197  -0.000  -0.000  14.646
 -0.000   0.000  14.646   0.000  -0.000  23.334   0.000  -0.000
 -0.054   0.089   0.000  14.643  -0.000   0.000  23.330  -0.000
  0.000  -0.000  -0.000  -0.000  14.646  -0.000  -0.000  23.334
 -0.000   0.000   0.000   0.000  -0.000   0.000   0.000  -0.001
  0.000  -0.000  -0.004   0.000   0.000  -0.007   0.000   0.000
 -0.002   0.003   0.000  -0.005  -0.000   0.000  -0.009  -0.000
 -0.000   0.000   0.000  -0.000  -0.004   0.000  -0.000  -0.007
  0.000  -0.000  -0.000  -0.000   0.000  -0.001  -0.000   0.000
 total augmentation occupancy for first ion, spin component:           1
  1.971   0.007   0.000   0.132   0.000  -0.000  -0.032  -0.000   0.000   0.000  -0.002   0.000  -0.000
  0.007   0.006   0.000  -0.049   0.000  -0.000   0.012  -0.000   0.000   0.000  -0.000   0.000  -0.000
  0.000   0.000   2.783   0.000   0.000  -0.735  -0.000  -0.000  -0.000  -0.093  -0.000  -0.000   0.063
  0.132  -0.049   0.000   2.745   0.000  -0.000  -0.694  -0.000   0.000  -0.000  -0.005  -0.000   0.000
  0.000  -0.000   0.000   0.000   2.783  -0.000  -0.000  -0.735   0.063  -0.000  -0.000  -0.093   0.000
 -0.000  -0.000  -0.735  -0.000  -0.000   0.220   0.000   0.000   0.000   0.024   0.000   0.000  -0.016
 -0.032   0.012  -0.000  -0.694  -0.000   0.000   0.202   0.000  -0.000   0.000   0.001   0.000  -0.000
 -0.000  -0.000  -0.000  -0.000  -0.735   0.000   0.000   0.220  -0.016   0.000   0.000   0.024  -0.000
  0.000   0.000  -0.000   0.000   0.063   0.000  -0.000  -0.016   0.010   0.000  -0.000  -0.007   0.000
  0.000   0.000  -0.093  -0.000  -0.000   0.024   0.000   0.000   0.000   0.014   0.000   0.000  -0.007
 -0.002  -0.000  -0.000  -0.005  -0.000   0.000   0.001   0.000  -0.000   0.000   0.005   0.000   0.000
 -0.000   0.000  -0.000  -0.000  -0.093   0.000   0.000   0.024  -0.007   0.000   0.000   0.014  -0.000
 -0.000  -0.000   0.063   0.000   0.000  -0.016  -0.000  -0.000   0.000  -0.007   0.000  -0.000   0.010


------------------------ aborting loop because EDIFF is reached ----------------------------------------


    CHARGE:  cpu time      0.0191: real time      0.0191
    FORLOC:  cpu time      0.0002: real time      0.0002
    FORNL :  cpu time      0.1501: real time      0.1502
    STRESS:  cpu time      0.8958: real time      0.8957
    FORCOR:  cpu time      0.0024: real time      0.0025
    FORHAR:  cpu time      0.0006: real time      0.0007
    MIXING:  cpu time      0.0005: real time      0.0005
    OFIELD:  cpu time      0.0000: real time      0.0001

  FORCE on cell =-STRESS in cart. coord.  units (eV):
  Direction    XX          YY          ZZ          XY          YZ          ZX
  --------------------------------------------------------------------------------------
  Alpha Z   -11.24884   -11.24884   -11.24884
  Ewald    -314.36600  -314.36600  -332.90953    -0.00000    -0.00000     0.00000
  Hartree    14.56121    14.56121     9.93816    -0.00000    -0.00000    -0.00000
  E(xc)    -119.96356  -119.96358  -120.05536    -0.00002     0.00000    -0.00000
  Local    -162.90047  -162.90107  -144.49997    -0.00053    -0.00000    -0.00000
  n-local   498.49970   495.69432   498.52381    -1.68108    -0.39848     0.17539
  augment  -102.66167  -102.66103  -103.57493     0.00056    -0.00000     0.00000
  Kinetic   200.49699   198.22202   203.76748    -6.86391     0.28026    -0.14233
  Fock        0.00000     0.00000     0.00000     0.00000     0.00000     0.00000
  -------------------------------------------------------------------------------------
  Total      -0.12281    -0.12281    -0.05917    -0.00000    -0.00000    -0.00000
  in kB      -1.03160    -1.03160    -0.49705    -0.00000    -0.00000    -0.00000
  external pressure =       -0.85 kB  Pullay stress =        0.00 kB


 VOLUME and BASIS-vectors are now :
 -----------------------------------------------------------------------------
  energy-cutoff  :      223.69
  volume of cell :      190.74
      direct lattice vectors                 reciprocal lattice vectors
     4.380470000  0.000000000  0.000000000     0.228286006  0.131800987  0.000000000
    -2.190235000  3.793598301  0.000000000     0.000000000  0.263601974  0.000000000
     0.000000000  0.000000000 11.478040000    -0.000000000 -0.000000000  0.087122889

  length of vectors
     4.380470000  4.380470000 11.478040000     0.263601974  0.263601974  0.087122889


 FORCES acting on ions
    electron-ion (+dipol)            ewald-force                    non-local-force                 convergence-correction
 -----------------------------------------------------------------------------------------------
   0.248E-06 0.240E-06 -.537E+01   -.710E-12 0.381E-12 0.101E+02   -.572E-16 0.108E-16 -.478E+01   0.450E-09 -.260E-09 0.286E-02
   -.248E-06 -.240E-06 0.537E+01   0.710E-12 -.385E-12 -.101E+02   0.546E-16 -.372E-16 0.478E+01   -.450E-09 0.260E-09 -.286E-02
   0.232E-05 -.111E-05 -.537E+01   0.270E-11 -.157E-11 0.101E+02   0.756E-16 -.173E-16 -.478E+01   0.448E-09 -.259E-09 0.287E-02
   0.278E-05 -.171E-05 0.537E+01   0.199E-11 -.112E-11 -.101E+02   -.338E-16 0.103E-16 0.478E+01   -.451E-09 0.261E-09 -.289E-02
   -.278E-05 0.171E-05 -.537E+01   -.200E-11 0.111E-11 0.101E+02   0.489E-16 -.117E-16 -.478E+01   0.451E-09 -.261E-09 0.289E-02
   -.232E-05 0.111E-05 0.537E+01   -.270E-11 0.156E-11 -.101E+02   -.612E-16 0.372E-16 0.478E+01   -.448E-09 0.259E-09 -.287E-02
 -----------------------------------------------------------------------------------------------
   -.238E-12 -.183E-13 -.950E-12   -.316E-14 -.623E-14 0.711E-14   0.269E-16 -.807E-17 0.000E+00   0.715E-15 0.909E-16 -.568E-16
 
 
 POSITION                                       TOTAL-FORCE (eV/Angst)
 -----------------------------------------------------------------------------------
      0.00000      0.00000      2.67806        -0.000000     -0.000000     -0.002095
      0.00000      0.00000      8.79998        -0.000000     -0.000000      0.002095
      2.19023      1.26453      6.50415        -0.000000      0.000000     -0.002527
      2.19023      1.26453      1.14792        -0.000000      0.000000      0.001910
      0.00000      2.52907     10.33012         0.000000      0.000000     -0.001910
      0.00000      2.52907      4.97389         0.000000     -0.000000      0.002527
 -----------------------------------------------------------------------------------
    total drift:                               -0.000000     -0.000000     -0.000000


--------------------------------------------------------------------------------------------------------



  FREE ENERGIE OF THE ION-ELECTRON SYSTEM (eV)
  ---------------------------------------------------
  free  energy   TOTEN  =       -24.81845770 eV

  energy  without entropy=      -24.81789693  energy(sigma->0) =      -24.81817732
 


--------------------------------------------------------------------------------------------------------


    POTLOK:  cpu time      0.0045: real time      0.0045


--------------------------------------------------------------------------------------------------------


 writing wavefunctions
     LOOP+:  cpu time     29.5589: real time     29.5805
    4ORBIT:  cpu time      0.0000: real time      0.0000

 total amount of memory used by VASP MPI-rank0    66772. kBytes
=======================================================================

   base      :      30000. kBytes
   nonl-proj :      30978. kBytes
   fftplans  :        142. kBytes
   grid      :        565. kBytes
   one-center:         48. kBytes
   wavefun   :       5039. kBytes
 
  
  
 General timing and accounting informations for this job:
 ========================================================
  
                  Total CPU time used (sec):       30.919
                            User time (sec):       30.187
                          System time (sec):        0.732
                         Elapsed time (sec):       31.340
  
                   Maximum memory used (kb):      287016.
                   Average memory used (kb):          N/A
  
                          Minor page faults:        26313
                          Major page faults:            0
                 Voluntary context switches:         4359
