Rb                                      
   1.00000000000000     
     5.671970    0.000000    0.000000
     0.000000    5.671970    0.000000
     0.000000    0.000000    5.671970
   Rb
     2
Direct
  0.000000  0.000000  0.000000
  0.500000  0.500000  0.500000
 
   48   48   48
  376.15      384.53      402.23      411.71      396.30      350.10      280.77      204.10      135.32      83.064    
  48.529      27.966      16.438      10.129      6.6415      4.6686      3.5605      2.9703      2.6628      2.4906    
  2.3964      2.3562      2.3335      2.3062      2.2913      2.3062      2.3335      2.3562      2.3964      2.4906    
  2.6628      2.9703      3.5605      4.6686      6.6415      10.129      16.438      27.966      48.529      83.064    
  135.32      204.10      280.77      350.10      396.30      411.71      402.23      384.53      384.53      391.61    
  405.94      411.24      392.24      344.05      274.48      198.81      131.54      80.708      47.218      27.284    
  16.095      9.9548      6.5512      4.6215      3.5366      2.9583      2.6568      2.4879      2.3953      2.3554    
  2.3327      2.3059      2.2914      2.3059      2.3327      2.3554      2.3953      2.4879      2.6568      2.9583    
  3.5366      4.6215      6.5512      9.9548      16.095      27.284      47.218      80.708      131.54      198.81    
  274.48      344.05      392.24      411.24      405.94      391.61      402.23      405.94      411.51      406.07    
  378.16      325.38      255.88      183.54      120.78      74.047      43.520      25.360      15.122      9.4589    
  6.2925      4.4863      3.4680      2.9239      2.6394      2.4800      2.3923      2.3531      2.3304      2.3051    
  2.2918      2.3051      2.3304      2.3531      2.3923      2.4800      2.6394      2.9239      3.4680      4.4863    
  6.2925      9.4589      15.122      25.360      43.520      74.047      120.78      183.54      255.88      325.38    
  378.16      406.07      411.51      405.94      411.71      411.24      406.07      387.87      350.13      293.51    
  226.28      160.12      104.64      64.209      38.079      22.518      13.671      8.7110      5.8985      4.2794    
  3.3630      2.8714      2.6130      2.4683      2.3879      2.3500      2.3273      2.3044      2.2928      2.3044    
  2.3273      2.3500      2.3879      2.4683      2.6130      2.8714      3.3630      4.2794      5.8985      8.7110    
  13.671      22.518      38.079      64.209      104.64      160.12      226.28      293.51      350.13      387.87    
  406.07      411.24      396.30      392.24      378.16      350.13      306.29      249.83      188.57      131.59    
  85.532      52.756      31.754      19.190      11.947      7.8068      5.4158      4.0243      3.2333      2.8067    
  2.5807      2.4540      2.3827      2.3464      2.3241      2.3042      2.2948      2.3042      2.3241      2.3464    
  2.3827      2.4540      2.5807      2.8067      3.2333      4.0243      5.4158      7.8068      11.947      19.190    
  31.754      52.756      85.532      131.59      188.57      249.83      306.29      350.13      378.16      392.24    
  350.10      344.05      325.38      293.51      249.83      198.86      147.33      101.71      66.087      41.267    
  25.396      15.799      10.153      6.8458      4.8950      3.7472      3.0922      2.7364      2.5460      2.4388    
  2.3770      2.3430      2.3215      2.3049      2.2978      2.3049      2.3215      2.3430      2.3770      2.4388    
  2.5460      2.7364      3.0922      3.7472      4.8950      6.8458      10.153      15.799      25.396      41.267    
  66.087      101.71      147.33      198.86      249.83      293.51      325.38      344.05      280.77      274.48    
  255.88      226.28      188.57      147.33      107.75      74.101      48.579      30.975      19.648      12.672    
  8.4550      5.9132      4.3819      3.4727      2.9522      2.6669      2.5118      2.4234      2.3710      2.3398    
  2.3199      2.3066      2.3015      2.3066      2.3199      2.3398      2.3710      2.4234      2.5118      2.6669    
  2.9522      3.4727      4.3819      5.9132      8.4550      12.672      19.648      30.975      48.579      74.101    
  107.75      147.33      188.57      226.28      255.88      274.48      204.10      198.81      183.54      160.12    
  131.59      101.71      74.101      51.340      34.326      22.559      14.865      9.9959      6.9567      5.0701    
  3.9124      3.2205      2.8232      2.6028      2.4802      2.4087      2.3647      2.3369      2.3193      2.3090    
  2.3056      2.3090      2.3193      2.3369      2.3647      2.4087      2.4802      2.6028      2.8232      3.2205    
  3.9124      5.0701      6.9567      9.9959      14.865      22.559      34.326      51.340      74.101      101.71    
  131.59      160.12      183.54      198.81      135.32      131.54      120.78      104.64      85.532      66.087    
  48.579      34.326      23.651      16.158      11.128      7.8342      5.7073      4.3522      3.5091      3.0035    
  2.7118      2.5470      2.4523      2.3949      2.3581      2.3341      2.3194      2.3117      2.3094      2.3117    
  2.3194      2.3341      2.3581      2.3949      2.4523      2.5470      2.7118      3.0035      3.5091      4.3522    
  5.7073      7.8342      11.128      16.158      23.651      34.326      48.579      66.087      85.532      104.64    
  120.78      131.54      83.064      80.708      74.047      64.209      52.756      41.267      30.975      22.559    
  16.158      11.546      8.3402      6.1638      4.7145      3.7730      3.1826      2.8275      2.6207      2.5007    
  2.4284      2.3821      2.3514      2.3313      2.3196      2.3141      2.3125      2.3141      2.3196      2.3313    
  2.3514      2.3821      2.4284      2.5007      2.6207      2.8275      3.1826      3.7730      4.7145      6.1638    
  8.3402      11.546      16.158      22.559      30.975      41.267      52.756      64.209      74.047      80.708    
  48.529      47.218      43.520      38.079      31.754      25.396      19.648      14.865      11.128      8.3402    
  6.3303      4.9204      3.9600      3.3292      2.9321      2.6919      2.5495      2.4632      2.4079      2.3705    
  2.3449      2.3287      2.3197      2.3158      2.3148      2.3158      2.3197      2.3287      2.3449      2.3705    
  2.4079      2.4632      2.5495      2.6919      2.9321      3.3292      3.9600      4.9204      6.3303      8.3402    
  11.128      14.865      19.648      25.396      31.754      38.079      43.520      47.218      27.966      27.284    
  25.360      22.518      19.190      15.799      12.672      9.9959      7.8342      6.1638      4.9204      4.0278    
  3.4122      3.0059      2.7491      2.5917      2.4951      2.4330      2.3904      2.3601      2.3391      2.3262    
  2.3195      2.3168      2.3162      2.3168      2.3195      2.3262      2.3391      2.3601      2.3904      2.4330    
  2.4951      2.5917      2.7491      3.0059      3.4122      4.0278      4.9204      6.1638      7.8342      9.9959    
  12.672      15.799      19.190      22.518      25.360      27.284      16.438      16.095      15.122      13.671    
  11.947      10.153      8.4550      6.9567      5.7073      4.7145      3.9600      3.4122      3.0326      2.7812    
  2.6206      2.5193      2.4536      2.4082      2.3752      2.3508      2.3340      2.3239      2.3189      2.3171    
  2.3167      2.3171      2.3189      2.3239      2.3340      2.3508      2.3752      2.4082      2.4536      2.5193    
  2.6206      2.7812      3.0326      3.4122      3.9600      4.7145      5.7073      6.9567      8.4550      10.153    
  11.947      13.671      15.122      16.095      10.129      9.9548      9.4589      8.7110      7.8068      6.8458    
  5.9132      5.0701      4.3522      3.7730      3.3292      3.0059      2.7812      2.6309      2.5323      2.4667    
  2.4210      2.3874      2.3618      2.3427      2.3296      2.3218      2.3179      2.3165      2.3162      2.3165    
  2.3179      2.3218      2.3296      2.3427      2.3618      2.3874      2.4210      2.4667      2.5323      2.6309    
  2.7812      3.0059      3.3292      3.7730      4.3522      5.0701      5.9132      6.8458      7.8068      8.7110    
  9.4589      9.9548      6.6415      6.5512      6.2925      5.8985      5.4158      4.8950      4.3819      3.9124    
  3.5091      3.1826      2.9321      2.7491      2.6206      2.5323      2.4711      2.4274      2.3947      2.3695    
  2.3500      2.3357      2.3258      2.3198      2.3166      2.3152      2.3148      2.3152      2.3166      2.3198    
  2.3258      2.3357      2.3500      2.3695      2.3947      2.4274      2.4711      2.5323      2.6206      2.7491    
  2.9321      3.1826      3.5091      3.9124      4.3819      4.8950      5.4158      5.8985      6.2925      6.5512    
  4.6686      4.6215      4.4863      4.2794      4.0243      3.7472      3.4727      3.2205      3.0035      2.8275    
  2.6919      2.5917      2.5193      2.4667      2.4274      2.3971      2.3731      2.3543      2.3401      2.3296    
  2.3224      2.3176      2.3146      2.3130      2.3125      2.3130      2.3146      2.3176      2.3224      2.3296    
  2.3401      2.3543      2.3731      2.3971      2.4274      2.4667      2.5193      2.5917      2.6919      2.8275    
  3.0035      3.2205      3.4727      3.7472      4.0243      4.2794      4.4863      4.6215      3.5605      3.5366    
  3.4680      3.3630      3.2333      3.0922      2.9522      2.8232      2.7118      2.6207      2.5495      2.4951    
  2.4536      2.4210      2.3947      2.3731      2.3556      2.3421      2.3320      2.3246      2.3192      2.3151    
  2.3120      2.3101      2.3094      2.3101      2.3120      2.3151      2.3192      2.3246      2.3320      2.3421    
  2.3556      2.3731      2.3947      2.4210      2.4536      2.4951      2.5495      2.6207      2.7118      2.8232    
  2.9522      3.0922      3.2333      3.3630      3.4680      3.5366      2.9703      2.9583      2.9239      2.8714    
  2.8067      2.7364      2.6669      2.6028      2.5470      2.5007      2.4632      2.4330      2.4082      2.3874    
  2.3695      2.3543      2.3421      2.3327      2.3257      2.3205      2.3161      2.3122      2.3088      2.3064    
  2.3056      2.3064      2.3088      2.3122      2.3161      2.3205      2.3257      2.3327      2.3421      2.3543    
  2.3695      2.3874      2.4082      2.4330      2.4632      2.5007      2.5470      2.6028      2.6669      2.7364    
  2.8067      2.8714      2.9239      2.9583      2.6628      2.6568      2.6394      2.6130      2.5807      2.5460    
  2.5118      2.4802      2.4523      2.4284      2.4079      2.3904      2.3752      2.3618      2.3500      2.3401    
  2.3320      2.3257      2.3209      2.3168      2.3129      2.3089      2.3052      2.3025      2.3015      2.3025    
  2.3052      2.3089      2.3129      2.3168      2.3209      2.3257      2.3320      2.3401      2.3500      2.3618    
  2.3752      2.3904      2.4079      2.4284      2.4523      2.4802      2.5118      2.5460      2.5807      2.6130    
  2.6394      2.6568      2.4906      2.4879      2.4800      2.4683      2.4540      2.4388      2.4234      2.4087    
  2.3949      2.3821      2.3705      2.3601      2.3508      2.3427      2.3357      2.3296      2.3246      2.3205    
  2.3168      2.3132      2.3094      2.3053      2.3015      2.2988      2.2978      2.2988      2.3015      2.3053    
  2.3094      2.3132      2.3168      2.3205      2.3246      2.3296      2.3357      2.3427      2.3508      2.3601    
  2.3705      2.3821      2.3949      2.4087      2.4234      2.4388      2.4540      2.4683      2.4800      2.4879    
  2.3964      2.3953      2.3923      2.3879      2.3827      2.3770      2.3710      2.3647      2.3581      2.3514    
  2.3449      2.3391      2.3340      2.3296      2.3258      2.3224      2.3192      2.3161      2.3129      2.3094    
  2.3055      2.3016      2.2981      2.2957      2.2948      2.2957      2.2981      2.3016      2.3055      2.3094    
  2.3129      2.3161      2.3192      2.3224      2.3258      2.3296      2.3340      2.3391      2.3449      2.3514    
  2.3581      2.3647      2.3710      2.3770      2.3827      2.3879      2.3923      2.3953      2.3562      2.3554    
  2.3531      2.3500      2.3464      2.3430      2.3398      2.3369      2.3341      2.3313      2.3287      2.3262    
  2.3239      2.3218      2.3198      2.3176      2.3151      2.3122      2.3089      2.3053      2.3016      2.2981    
  2.2953      2.2935      2.2928      2.2935      2.2953      2.2981      2.3016      2.3053      2.3089      2.3122    
  2.3151      2.3176      2.3198      2.3218      2.3239      2.3262      2.3287      2.3313      2.3341      2.3369    
  2.3398      2.3430      2.3464      2.3500      2.3531      2.3554      2.3335      2.3327      2.3304      2.3273    
  2.3241      2.3215      2.3199      2.3193      2.3194      2.3196      2.3197      2.3195      2.3189      2.3179    
  2.3166      2.3146      2.3120      2.3088      2.3052      2.3015      2.2981      2.2953      2.2933      2.2922    
  2.2918      2.2922      2.2933      2.2953      2.2981      2.3015      2.3052      2.3088      2.3120      2.3146    
  2.3166      2.3179      2.3189      2.3195      2.3197      2.3196      2.3194      2.3193      2.3199      2.3215    
  2.3241      2.3273      2.3304      2.3327      2.3062      2.3059      2.3051      2.3044      2.3042      2.3049    
  2.3066      2.3090      2.3117      2.3141      2.3158      2.3168      2.3171      2.3165      2.3152      2.3130    
  2.3101      2.3064      2.3025      2.2988      2.2957      2.2935      2.2922      2.2916      2.2914      2.2916    
  2.2922      2.2935      2.2957      2.2988      2.3025      2.3064      2.3101      2.3130      2.3152      2.3165    
  2.3171      2.3168      2.3158      2.3141      2.3117      2.3090      2.3066      2.3049      2.3042      2.3044    
  2.3051      2.3059      2.2913      2.2914      2.2918      2.2928      2.2948      2.2978      2.3015      2.3056    
  2.3094      2.3125      2.3148      2.3162      2.3167      2.3162      2.3148      2.3125      2.3094      2.3056    
  2.3015      2.2978      2.2948      2.2928      2.2918      2.2914      2.2913      2.2914      2.2918      2.2928    
  2.2948      2.2978      2.3015      2.3056      2.3094      2.3125      2.3148      2.3162      2.3167      2.3162    
  2.3148      2.3125      2.3094      2.3056      2.3015      2.2978      2.2948      2.2928      2.2918      2.2914    
  2.3062      2.3059      2.3051      2.3044      2.3042      2.3049      2.3066      2.3090      2.3117      2.3141    
  2.3158      2.3168      2.3171      2.3165      2.3152      2.3130      2.3101      2.3064      2.3025      2.2988    
  2.2957      2.2935      2.2922      2.2916      2.2914      2.2916      2.2922      2.2935      2.2957      2.2988    
  2.3025      2.3064      2.3101      2.3130      2.3152      2.3165      2.3171      2.3168      2.3158      2.3141    
  2.3117      2.3090      2.3066      2.3049      2.3042      2.3044      2.3051      2.3059      2.3335      2.3327    
  2.3304      2.3273      2.3241      2.3215      2.3199      2.3193      2.3194      2.3196      2.3197      2.3195    
  2.3189      2.3179      2.3166      2.3146      2.3120      2.3088      2.3052      2.3015      2.2981      2.2953    
  2.2933      2.2922      2.2918      2.2922      2.2933      2.2953      2.2981      2.3015      2.3052      2.3088    
  2.3120      2.3146      2.3166      2.3179      2.3189      2.3195      2.3197      2.3196      2.3194      2.3193    
  2.3199      2.3215      2.3241      2.3273      2.3304      2.3327      2.3562      2.3554      2.3531      2.3500    
  2.3464      2.3430      2.3398      2.3369      2.3341      2.3313      2.3287      2.3262      2.3239      2.3218    
  2.3198      2.3176      2.3151      2.3122      2.3089      2.3053      2.3016      2.2981      2.2953      2.2935    
  2.2928      2.2935      2.2953      2.2981      2.3016      2.3053      2.3089      2.3122      2.3151      2.3176    
  2.3198      2.3218      2.3239      2.3262      2.3287      2.3313      2.3341      2.3369      2.3398      2.3430    
  2.3464      2.3500      2.3531      2.3554      2.3964      2.3953      2.3923      2.3879      2.3827      2.3770    
  2.3710      2.3647      2.3581      2.3514      2.3449      2.3391      2.3340      2.3296      2.3258      2.3224    
  2.3192      2.3161      2.3129      2.3094      2.3055      2.3016      2.2981      2.2957      2.2948      2.2957    
  2.2981      2.3016      2.3055      2.3094      2.3129      2.3161      2.3192      2.3224      2.3258      2.3296    
  2.3340      2.3391      2.3449      2.3514      2.3581      2.3647      2.3710      2.3770      2.3827      2.3879    
  2.3923      2.3953      2.4906      2.4879      2.4800      2.4683      2.4540      2.4388      2.4234      2.4087    
  2.3949      2.3821      2.3705      2.3601      2.3508      2.3427      2.3357      2.3296      2.3246      2.3205    
  2.3168      2.3132      2.3094      2.3053      2.3015      2.2988      2.2978      2.2988      2.3015      2.3053    
  2.3094      2.3132      2.3168      2.3205      2.3246      2.3296      2.3357      2.3427      2.3508      2.3601    
  2.3705      2.3821      2.3949      2.4087      2.4234      2.4388      2.4540      2.4683      2.4800      2.4879    
  2.6628      2.6568      2.6394      2.6130      2.5807      2.5460      2.5118      2.4802      2.4523      2.4284    
  2.4079      2.3904      2.3752      2.3618      2.3500      2.3401      2.3320      2.3257      2.3209      2.3168    
  2.3129      2.3089      2.3052      2.3025      2.3015      2.3025      2.3052      2.3089      2.3129      2.3168    
  2.3209      2.3257      2.3320      2.3401      2.3500      2.3618      2.3752      2.3904      2.4079      2.4284    
  2.4523      2.4802      2.5118      2.5460      2.5807      2.6130      2.6394      2.6568      2.9703      2.9583    
  2.9239      2.8714      2.8067      2.7364      2.6669      2.6028      2.5470      2.5007      2.4632      2.4330    
  2.4082      2.3874      2.3695      2.3543      2.3421      2.3327      2.3257      2.3205      2.3161      2.3122    
  2.3088      2.3064      2.3056      2.3064      2.3088      2.3122      2.3161      2.3205      2.3257      2.3327    
  2.3421      2.3543      2.3695      2.3874      2.4082      2.4330      2.4632      2.5007      2.5470      2.6028    
  2.6669      2.7364      2.8067      2.8714      2.9239      2.9583      3.5605      3.5366      3.4680      3.3630    
  3.2333      3.0922      2.9522      2.8232      2.7118      2.6207      2.5495      2.4951      2.4536      2.4210    
  2.3947      2.3731      2.3556      2.3421      2.3320      2.3246      2.3192      2.3151      2.3120      2.3101    
  2.3094      2.3101      2.3120      2.3151      2.3192      2.3246      2.3320      2.3421      2.3556      2.3731    
  2.3947      2.4210      2.4536      2.4951      2.5495      2.6207      2.7118      2.8232      2.9522      3.0922    
  3.2333      3.3630      3.4680      3.5366      4.6686      4.6215      4.4863      4.2794      4.0243      3.7472    
  3.4727      3.2205      3.0035      2.8275      2.6919      2.5917      2.5193      2.4667      2.4274      2.3971    
  2.3731      2.3543      2.3401      2.3296      2.3224      2.3176      2.3146      2.3130      2.3125      2.3130    
  2.3146      2.3176      2.3224      2.3296      2.3401      2.3543      2.3731      2.3971      2.4274      2.4667    
  2.5193      2.5917      2.6919      2.8275      3.0035      3.2205      3.4727      3.7472      4.0243      4.2794    
  4.4863      4.6215      6.6415      6.5512      6.2925      5.8985      5.4158      4.8950      4.3819      3.9124    
  3.5091      3.1826      2.9321      2.7491      2.6206      2.5323      2.4711      2.4274      2.3947      2.3695    
  2.3500      2.3357      2.3258      2.3198      2.3166      2.3152      2.3148      2.3152      2.3166      2.3198    
  2.3258      2.3357      2.3500      2.3695      2.3947      2.4274      2.4711      2.5323      2.6206      2.7491    
  2.9321      3.1826      3.5091      3.9124      4.3819      4.8950      5.4158      5.8985      6.2925      6.5512    
  10.129      9.9548      9.4589      8.7110      7.8068      6.8458      5.9132      5.0701      4.3522      3.7730    
  3.3292      3.0059      2.7812      2.6309      2.5323      2.4667      2.4210      2.3874      2.3618      2.3427    
  2.3296      2.3218      2.3179      2.3165      2.3162      2.3165      2.3179      2.3218      2.3296      2.3427    
  2.3618      2.3874      2.4210      2.4667      2.5323      2.6309      2.7812      3.0059      3.3292      3.7730    
  4.3522      5.0701      5.9132      6.8458      7.8068      8.7110      9.4589      9.9548      16.438      16.095    
  15.122      13.671      11.947      10.153      8.4550      6.9567      5.7073      4.7145      3.9600      3.4122    
  3.0326      2.7812      2.6206      2.5193      2.4536      2.4082      2.3752      2.3508      2.3340      2.3239    
  2.3189      2.3171      2.3167      2.3171      2.3189      2.3239      2.3340      2.3508      2.3752      2.4082    
  2.4536      2.5193      2.6206      2.7812      3.0326      3.4122      3.9600      4.7145      5.7073      6.9567    
  8.4550      10.153      11.947      13.671      15.122      16.095      27.966      27.284      25.360      22.518    
  19.190      15.799      12.672      9.9959      7.8342      6.1638      4.9204      4.0278      3.4122      3.0059    
  2.7491      2.5917      2.4951      2.4330      2.3904      2.3601      2.3391      2.3262      2.3195      2.3168    
  2.3162      2.3168      2.3195      2.3262      2.3391      2.3601      2.3904      2.4330      2.4951      2.5917    
  2.7491      3.0059      3.4122      4.0278      4.9204      6.1638      7.8342      9.9959      12.672      15.799    
  19.190      22.518      25.360      27.284      48.529      47.218      43.520      38.079      31.754      25.396    
  19.648      14.865      11.128      8.3402      6.3303      4.9204      3.9600      3.3292      2.9321      2.6919    
  2.5495      2.4632      2.4079      2.3705      2.3449      2.3287      2.3197      2.3158      2.3148      2.3158    
  2.3197      2.3287      2.3449      2.3705      2.4079      2.4632      2.5495      2.6919      2.9321      3.3292    
  3.9600      4.9204      6.3303      8.3402      11.128      14.865      19.648      25.396      31.754      38.079    
  43.520      47.218      83.064      80.708      74.047      64.209      52.756      41.267      30.975      22.559    
  16.158      11.546      8.3402      6.1638      4.7145      3.7730      3.1826      2.8275      2.6207      2.5007    
  2.4284      2.3821      2.3514      2.3313      2.3196      2.3141      2.3125      2.3141      2.3196      2.3313    
  2.3514      2.3821      2.4284      2.5007      2.6207      2.8275      3.1826      3.7730      4.7145      6.1638    
  8.3402      11.546      16.158      22.559      30.975      41.267      52.756      64.209      74.047      80.708    
  135.32      131.54      120.78      104.64      85.532      66.087      48.579      34.326      23.651      16.158    
  11.128      7.8342      5.7073      4.3522      3.5091      3.0035      2.7118      2.5470      2.4523      2.3949    
  2.3581      2.3341      2.3194      2.3117      2.3094      2.3117      2.3194      2.3341      2.3581      2.3949    
  2.4523      2.5470      2.7118      3.0035      3.5091      4.3522      5.7073      7.8342      11.128      16.158    
  23.651      34.326      48.579      66.087      85.532      104.64      120.78      131.54      204.10      198.81    
  183.54      160.12      131.59      101.71      74.101      51.340      34.326      22.559      14.865      9.9959    
  6.9567      5.0701      3.9124      3.2205      2.8232      2.6028      2.4802      2.4087      2.3647      2.3369    
  2.3193      2.3090      2.3056      2.3090      2.3193      2.3369      2.3647      2.4087      2.4802      2.6028    
  2.8232      3.2205      3.9124      5.0701      6.9567      9.9959      14.865      22.559      34.326      51.340    
  74.101      101.71      131.59      160.12      183.54      198.81      280.77      274.48      255.88      226.28    
  188.57      147.33      107.75      74.101      48.579      30.975      19.648      12.672      8.4550      5.9132    
  4.3819      3.4727      2.9522      2.6669      2.5118      2.4234      2.3710      2.3398      2.3199      2.3066    
  2.3015      2.3066      2.3199      2.3398      2.3710      2.4234      2.5118      2.6669      2.9522      3.4727    
  4.3819      5.9132      8.4550      12.672      19.648      30.975      48.579      74.101      107.75      147.33    
  188.57      226.28      255.88      274.48      350.10      344.05      325.38      293.51      249.83      198.86    
  147.33      101.71      66.087      41.267      25.396      15.799      10.153      6.8458      4.8950      3.7472    
  3.0922      2.7364      2.5460      2.4388      2.3770      2.3430      2.3215      2.3049      2.2978      2.3049    
  2.3215      2.3430      2.3770      2.4388      2.5460      2.7364      3.0922      3.7472      4.8950      6.8458    
  10.153      15.799      25.396      41.267      66.087      101.71      147.33      198.86      249.83      293.51    
  325.38      344.05      396.30      392.24      378.16      350.13      306.29      249.83      188.57      131.59    
  85.532      52.756      31.754      19.190      11.947      7.8068      5.4158      4.0243      3.2333      2.8067    
  2.5807      2.4540      2.3827      2.3464      2.3241      2.3042      2.2948      2.3042      2.3241      2.3464    
  2.3827      2.4540      2.5807      2.8067      3.2333      4.0243      5.4158      7.8068      11.947      19.190    
  31.754      52.756      85.532      131.59      188.57      249.83      306.29      350.13      378.16      392.24    
  411.71      411.24      406.07      387.87      350.13      293.51      226.28      160.12      104.64      64.209    
  38.079      22.518      13.671      8.7110      5.8985      4.2794      3.3630      2.8714      2.6130      2.4683    
  2.3879      2.3500      2.3273      2.3044      2.2928      2.3044      2.3273      2.3500      2.3879      2.4683    
  2.6130      2.8714      3.3630      4.2794      5.8985      8.7110      13.671      22.518      38.079      64.209    
  104.64      160.12      226.28      293.51      350.13      387.87      406.07      411.24      402.23      405.94    
  411.51      406.07      378.16      325.38      255.88      183.54      120.78      74.047      43.520      25.360    
  15.122      9.4589      6.2925      4.4863      3.4680      2.9239      2.6394      2.4800      2.3923      2.3531    
  2.3304      2.3051      2.2918      2.3051      2.3304      2.3531      2.3923      2.4800      2.6394      2.9239    
  3.4680      4.4863      6.2925      9.4589      15.122      25.360      43.520      74.047      120.78      183.54    
  255.88      325.38      378.16      406.07      411.51      405.94      384.53      391.61      405.94      411.24    
  392.24      344.05      274.48      198.81      131.54      80.708      47.218      27.284      16.095      9.9548    
  6.5512      4.6215      3.5366      2.9583      2.6568      2.4879      2.3953      2.3554      2.3327      2.3059    
  2.2914      2.3059      2.3327      2.3554      2.3953      2.4879      2.6568      2.9583      3.5366      4.6215    
  6.5512      9.9548      16.095      27.284      47.218      80.708      131.54      198.81      274.48      344.05    
  392.24      411.24      405.94      391.61      384.53      391.61      405.94      411.24      392.24      344.05    
  274.48      198.81      131.54      80.708      47.218      27.284      16.095      9.9548      6.5512      4.6215    
  3.5366      2.9583      2.6568      2.4879      2.3953      2.3554      2.3327      2.3059      2.2914      2.3059    
  2.3327      2.3554      2.3953      2.4879      2.6568      2.9583      3.5366      4.6215      6.5512      9.9548    
  16.095      27.284      47.218      80.708      131.54      198.81      274.48      344.05      392.24      411.24    
  405.94      391.61      391.61      397.49      408.68      410.10      387.85      337.91      268.22      193.62    
  127.86      78.421      45.946      26.623      15.761      9.7853      6.4630      4.5755      3.5133      2.9466    
  2.6509      2.4852      2.3943      2.3546      2.3319      2.3056      2.2916      2.3056      2.3319      2.3546    
  2.3943      2.4852      2.6509      2.9466      3.5133      4.5755      6.4630      9.7853      15.761      26.623    
  45.946      78.421      127.86      193.62      268.22      337.91      387.85      410.10      408.68      397.49    
  405.94      408.68      411.75      403.27      372.94      319.05      249.81      178.65      117.37      71.958    
  42.363      24.757      14.815      9.3017      6.2101      4.4431      3.4461      2.9130      2.6340      2.4777    
  2.3915      2.3526      2.3299      2.3051      2.2922      2.3051      2.3299      2.3526      2.3915      2.4777    
  2.6340      2.9130      3.4461      4.4431      6.2101      9.3017      14.815      24.757      42.363      71.958    
  117.37      178.65      249.81      319.05      372.94      403.27      411.75      408.68      411.24      410.10    