Rb                                      
   1.00000000000000     
     5.671970    0.000000    0.000000
     0.000000    5.671970    0.000000
     0.000000    0.000000    5.671970
   Rb
     2
Direct
  0.000000  0.000000  0.000000
  0.500000  0.500000  0.500000
 
   48   48   48
 0.37615149301E+03 0.38452533043E+03 0.40222631755E+03 0.41171155384E+03 0.39629597302E+03
 0.35010436279E+03 0.28077275221E+03 0.20409620528E+03 0.13531913144E+03 0.83063867728E+02
 0.48529268822E+02 0.27965878224E+02 0.16438320087E+02 0.10128664230E+02 0.66414841482E+01
 0.46685726849E+01 0.35604975037E+01 0.29702566369E+01 0.26628273130E+01 0.24906334652E+01
 0.23964234661E+01 0.23561534142E+01 0.23334708670E+01 0.23061875802E+01 0.22913476551E+01
 0.23061875802E+01 0.23334708670E+01 0.23561534142E+01 0.23964234661E+01 0.24906334652E+01
 0.26628273130E+01 0.29702566369E+01 0.35604975037E+01 0.46685726849E+01 0.66414841482E+01
 0.10128664230E+02 0.16438320087E+02 0.27965878224E+02 0.48529268822E+02 0.83063867728E+02
 0.13531913144E+03 0.20409620528E+03 0.28077275221E+03 0.35010436279E+03 0.39629597302E+03
 0.41171155384E+03 0.40222631755E+03 0.38452533043E+03 0.38452533043E+03 0.39160823561E+03
 0.40593798822E+03 0.41123527270E+03 0.39224444190E+03 0.34405478078E+03 0.27447583598E+03
 0.19880615153E+03 0.13154160518E+03 0.80707868437E+02 0.47217549282E+02 0.27284364091E+02
 0.16095057022E+02 0.99547935381E+01 0.65512426053E+01 0.46215225926E+01 0.35366362870E+01
 0.29582999989E+01 0.26567738048E+01 0.24878773702E+01 0.23953423791E+01 0.23553544300E+01
 0.23326530746E+01 0.23058735172E+01 0.22914238480E+01 0.23058735172E+01 0.23326530746E+01
 0.23553544300E+01 0.23953423791E+01 0.24878773702E+01 0.26567738048E+01 0.29582999989E+01
 0.35366362870E+01 0.46215225926E+01 0.65512426053E+01 0.99547935381E+01 0.16095057022E+02
 0.27284364091E+02 0.47217549282E+02 0.80707868437E+02 0.13154160518E+03 0.19880615153E+03
 0.27447583598E+03 0.34405478078E+03 0.39224444190E+03 0.41123527270E+03 0.40593798822E+03
 0.39160823561E+03 0.40222631755E+03 0.40593798822E+03 0.41151093190E+03 0.40606851210E+03
 0.37816233602E+03 0.32538256907E+03 0.25588480879E+03 0.18353509391E+03 0.12077699498E+03
 0.74047412679E+02 0.43519946309E+02 0.25360387789E+02 0.15121768832E+02 0.94588980297E+01
 0.62925455451E+01 0.44862959646E+01 0.34680281513E+01 0.29239405135E+01 0.26394235557E+01
 0.24800406384E+01 0.23923205828E+01 0.23531370072E+01 0.23304041480E+01 0.23051097270E+01
 0.22917990008E+01 0.23051097270E+01 0.23304041480E+01 0.23531370072E+01 0.23923205828E+01
 0.24800406384E+01 0.26394235557E+01 0.29239405135E+01 0.34680281513E+01 0.44862959646E+01
 0.62925455451E+01 0.94588980297E+01 0.15121768832E+02 0.25360387789E+02 0.43519946309E+02
 0.74047412679E+02 0.12077699498E+03 0.18353509391E+03 0.25588480879E+03 0.32538256907E+03
 0.37816233602E+03 0.40606851210E+03 0.41151093190E+03 0.40593798822E+03 0.41171155384E+03
 0.41123527270E+03 0.40606851210E+03 0.38786517810E+03 0.35012846691E+03 0.29350766380E+03
 0.22627695197E+03 0.16012234875E+03 0.10464497553E+03 0.64209415755E+02 0.38078517310E+02
 0.22518254712E+02 0.13670808767E+02 0.87109512837E+01 0.58985400204E+01 0.42793584949E+01
 0.33629530220E+01 0.28713857273E+01 0.26130227225E+01 0.24682674954E+01 0.23879018401E+01
 0.23499696613E+01 0.23272879728E+01 0.23043557543E+01 0.22928161022E+01 0.23043557543E+01
 0.23272879728E+01 0.23499696613E+01 0.23879018401E+01 0.24682674954E+01 0.26130227225E+01
 0.28713857273E+01 0.33629530220E+01 0.42793584949E+01 0.58985400204E+01 0.87109512837E+01
 0.13670808767E+02 0.22518254712E+02 0.38078517310E+02 0.64209415755E+02 0.10464497553E+03
 0.16012234875E+03 0.22627695197E+03 0.29350766380E+03 0.35012846691E+03 0.38786517810E+03
 0.40606851210E+03 0.41123527270E+03 0.39629597302E+03 0.39224444190E+03 0.37816233602E+03
 0.35012846691E+03 0.30628789997E+03 0.24982850406E+03 0.18856719766E+03 0.13159440313E+03
 0.85531966007E+02 0.52755756060E+02 0.31754184486E+02 0.19189773419E+02 0.11946533178E+02
 0.78067578106E+01 0.54158451433E+01 0.40242689236E+01 0.32332795929E+01 0.28066636386E+01
 0.25807467585E+01 0.24540392098E+01 0.23826725463E+01 0.23464254819E+01 0.23240698158E+01
 0.23041533029E+01 0.22947866126E+01 0.23041533029E+01 0.23240698158E+01 0.23464254819E+01
 0.23826725463E+01 0.24540392098E+01 0.25807467585E+01 0.28066636386E+01 0.32332795929E+01
 0.40242689236E+01 0.54158451433E+01 0.78067578106E+01 0.11946533178E+02 0.19189773419E+02
 0.31754184486E+02 0.52755756060E+02 0.85531966007E+02 0.13159440313E+03 0.18856719766E+03
 0.24982850406E+03 0.30628789997E+03 0.35012846691E+03 0.37816233602E+03 0.39224444190E+03
 0.35010436279E+03 0.34405478078E+03 0.32538256907E+03 0.29350766380E+03 0.24982850406E+03
 0.19886363798E+03 0.14732637894E+03 0.10171157930E+03 0.66086985197E+02 0.41267123065E+02
 0.25395637324E+02 0.15798985640E+02 0.10153328136E+02 0.68458069654E+01 0.48949989430E+01
 0.37472148259E+01 0.30922306614E+01 0.27364464197E+01 0.25460108111E+01 0.24387544476E+01
 0.23770110570E+01 0.23429637292E+01 0.23214633930E+01 0.23048857712E+01 0.22977754001E+01
 0.23048857712E+01 0.23214633930E+01 0.23429637292E+01 0.23770110570E+01 0.24387544476E+01
 0.25460108111E+01 0.27364464197E+01 0.30922306614E+01 0.37472148259E+01 0.48949989430E+01
 0.68458069654E+01 0.10153328136E+02 0.15798985640E+02 0.25395637324E+02 0.41267123065E+02
 0.66086985197E+02 0.10171157930E+03 0.14732637894E+03 0.19886363798E+03 0.24982850406E+03
 0.29350766380E+03 0.32538256907E+03 0.34405478078E+03 0.28077275221E+03 0.27447583598E+03
 0.25588480879E+03 0.22627695197E+03 0.18856719766E+03 0.14732637894E+03 0.10774887381E+03
 0.74100817785E+02 0.48579168098E+02 0.30975215228E+02 0.19648207316E+02 0.12671615197E+02
 0.84550381580E+01 0.59132232790E+01 0.43819434318E+01 0.34727417828E+01 0.29522296002E+01
 0.26668947435E+01 0.25118000022E+01 0.24234469297E+01 0.23710245131E+01 0.23397908281E+01
 0.23198768371E+01 0.23066088662E+01 0.23015266284E+01 0.23066088662E+01 0.23198768371E+01
 0.23397908281E+01 0.23710245131E+01 0.24234469297E+01 0.25118000022E+01 0.26668947435E+01
 0.29522296002E+01 0.34727417828E+01 0.43819434318E+01 0.59132232790E+01 0.84550381580E+01
 0.12671615197E+02 0.19648207316E+02 0.30975215228E+02 0.48579168098E+02 0.74100817785E+02
 0.10774887381E+03 0.14732637894E+03 0.18856719766E+03 0.22627695197E+03 0.25588480879E+03
 0.27447583598E+03 0.20409620528E+03 0.19880615153E+03 0.18353509391E+03 0.16012234875E+03
 0.13159440313E+03 0.10171157930E+03 0.74100817785E+02 0.51339816782E+02 0.34326391189E+02
 0.22559077745E+02 0.14864725568E+02 0.99958948758E+01 0.69566923124E+01 0.50701367368E+01
 0.39123531345E+01 0.32205157922E+01 0.28232449738E+01 0.26027854883E+01 0.24802154133E+01
 0.24087253201E+01 0.23646879123E+01 0.23368752289E+01 0.23192947908E+01 0.23090367877E+01
 0.23055596288E+01 0.23090367877E+01 0.23192947908E+01 0.23368752289E+01 0.23646879123E+01
 0.24087253201E+01 0.24802154133E+01 0.26027854883E+01 0.28232449738E+01 0.32205157922E+01
 0.39123531345E+01 0.50701367368E+01 0.69566923124E+01 0.99958948758E+01 0.14864725568E+02
 0.22559077745E+02 0.34326391189E+02 0.51339816782E+02 0.74100817785E+02 0.10171157930E+03
 0.13159440313E+03 0.16012234875E+03 0.18353509391E+03 0.19880615153E+03 0.13531913144E+03
 0.13154160518E+03 0.12077699498E+03 0.10464497553E+03 0.85531966007E+02 0.66086985197E+02
 0.48579168098E+02 0.34326391189E+02 0.23651336487E+02 0.16158394959E+02 0.11127518828E+02
 0.78342069880E+01 0.57073236760E+01 0.43521808110E+01 0.35091484404E+01 0.30034862458E+01
 0.27118086769E+01 0.25470483228E+01 0.24523369012E+01 0.23948906257E+01 0.23580520246E+01
 0.23340858480E+01 0.23193648678E+01 0.23116815474E+01 0.23093560292E+01 0.23116815474E+01
 0.23193648678E+01 0.23340858480E+01 0.23580520246E+01 0.23948906257E+01 0.24523369012E+01
 0.25470483228E+01 0.27118086769E+01 0.30034862458E+01 0.35091484404E+01 0.43521808110E+01
 0.57073236760E+01 0.78342069880E+01 0.11127518828E+02 0.16158394959E+02 0.23651336487E+02
 0.34326391189E+02 0.48579168098E+02 0.66086985197E+02 0.85531966007E+02 0.10464497553E+03
 0.12077699498E+03 0.13154160518E+03 0.83063867728E+02 0.80707868437E+02 0.74047412679E+02
 0.64209415755E+02 0.52755756060E+02 0.41267123065E+02 0.30975215228E+02 0.22559077745E+02
 0.16158394959E+02 0.11545878991E+02 0.83402459890E+01 0.61638262924E+01 0.47144568337E+01
 0.37729543833E+01 0.31825869806E+01 0.28274653372E+01 0.26207295954E+01 0.25007152524E+01
 0.24283683717E+01 0.23821014633E+01 0.23513503528E+01 0.23313407233E+01 0.23196230539E+01
 0.23140550185E+01 0.23125191887E+01 0.23140550185E+01 0.23196230539E+01 0.23313407233E+01
 0.23513503528E+01 0.23821014633E+01 0.24283683717E+01 0.25007152524E+01 0.26207295954E+01
 0.28274653372E+01 0.31825869806E+01 0.37729543833E+01 0.47144568337E+01 0.61638262924E+01
 0.83402459890E+01 0.11545878991E+02 0.16158394959E+02 0.22559077745E+02 0.30975215228E+02
 0.41267123065E+02 0.52755756060E+02 0.64209415755E+02 0.74047412679E+02 0.80707868437E+02
 0.48529268822E+02 0.47217549282E+02 0.43519946309E+02 0.38078517310E+02 0.31754184486E+02
 0.25395637324E+02 0.19648207316E+02 0.14864725568E+02 0.11127518828E+02 0.83402459890E+01
 0.63302978734E+01 0.49204083056E+01 0.39600354886E+01 0.33291868522E+01 0.29320936697E+01
 0.26919309637E+01 0.25494689492E+01 0.24632298648E+01 0.24079368080E+01 0.23704682075E+01
 0.23449347581E+01 0.23286663074E+01 0.23197110456E+01 0.23158200684E+01 0.23148322033E+01
 0.23158200684E+01 0.23197110456E+01 0.23286663074E+01 0.23449347581E+01 0.23704682075E+01
 0.24079368080E+01 0.24632298648E+01 0.25494689492E+01 0.26919309637E+01 0.29320936697E+01
 0.33291868522E+01 0.39600354886E+01 0.49204083056E+01 0.63302978734E+01 0.83402459890E+01
 0.11127518828E+02 0.14864725568E+02 0.19648207316E+02 0.25395637324E+02 0.31754184486E+02
 0.38078517310E+02 0.43519946309E+02 0.47217549282E+02 0.27965878224E+02 0.27284364091E+02
 0.25360387789E+02 0.22518254712E+02 0.19189773419E+02 0.15798985640E+02 0.12671615197E+02
 0.99958948758E+01 0.78342069880E+01 0.61638262924E+01 0.49204083056E+01 0.40278480539E+01
 0.34122008156E+01 0.30058979994E+01 0.27491425573E+01 0.25917314731E+01 0.24950881208E+01
 0.24330290710E+01 0.23904109390E+01 0.23600503704E+01 0.23391128783E+01 0.23261534863E+01
 0.23194672943E+01 0.23168280975E+01 0.23162214972E+01 0.23168280975E+01 0.23194672943E+01
 0.23261534863E+01 0.23391128783E+01 0.23600503704E+01 0.23904109390E+01 0.24330290710E+01
 0.24950881208E+01 0.25917314731E+01 0.27491425573E+01 0.30058979994E+01 0.34122008156E+01
 0.40278480539E+01 0.49204083056E+01 0.61638262924E+01 0.78342069880E+01 0.99958948758E+01
 0.12671615197E+02 0.15798985640E+02 0.19189773419E+02 0.22518254712E+02 0.25360387789E+02
 0.27284364091E+02 0.16438320087E+02 0.16095057022E+02 0.15121768832E+02 0.13670808767E+02
 0.11946533178E+02 0.10153328136E+02 0.84550381580E+01 0.69566923124E+01 0.57073236760E+01
 0.47144568337E+01 0.39600354886E+01 0.34122008156E+01 0.30325871608E+01 0.27812257283E+01
 0.26206419928E+01 0.25192712399E+01 0.24535515620E+01 0.24082495217E+01 0.23751636826E+01
 0.23508268933E+01 0.23340241171E+01 0.23238675520E+01 0.23188729470E+01 0.23170573793E+01
 0.23166827263E+01 0.23170573793E+01 0.23188729470E+01 0.23238675520E+01 0.23340241171E+01
 0.23508268933E+01 0.23751636826E+01 0.24082495217E+01 0.24535515620E+01 0.25192712399E+01
 0.26206419928E+01 0.27812257283E+01 0.30325871608E+01 0.34122008156E+01 0.39600354886E+01
 0.47144568337E+01 0.57073236760E+01 0.69566923124E+01 0.84550381580E+01 0.10153328136E+02
 0.11946533178E+02 0.13670808767E+02 0.15121768832E+02 0.16095057022E+02 0.10128664230E+02
 0.99547935381E+01 0.94588980297E+01 0.87109512837E+01 0.78067578106E+01 0.68458069654E+01
 0.59132232790E+01 0.50701367368E+01 0.43521808110E+01 0.37729543833E+01 0.33291868522E+01
 0.30058979994E+01 0.27812257283E+01 0.26309306331E+01 0.25322643156E+01 0.24666743057E+01
 0.24210156742E+01 0.23873502535E+01 0.23617561095E+01 0.23427185063E+01 0.23296326125E+01
 0.23217793806E+01 0.23179269143E+01 0.23165170149E+01 0.23162214972E+01 0.23165170149E+01
 0.23179269143E+01 0.23217793806E+01 0.23296326125E+01 0.23427185063E+01 0.23617561095E+01
 0.23873502535E+01 0.24210156742E+01 0.24666743057E+01 0.25322643156E+01 0.26309306331E+01
 0.27812257283E+01 0.30058979994E+01 0.33291868522E+01 0.37729543833E+01 0.43521808110E+01
 0.50701367368E+01 0.59132232790E+01 0.68458069654E+01 0.78067578106E+01 0.87109512837E+01
 0.94588980297E+01 0.99547935381E+01 0.66414841482E+01 0.65512426053E+01 0.62925455451E+01
 0.58985400204E+01 0.54158451433E+01 0.48949989430E+01 0.43819434318E+01 0.39123531345E+01
 0.35091484404E+01 0.31825869806E+01 0.29320936697E+01 0.27491425573E+01 0.26206419928E+01
 0.25322643156E+01 0.24711326513E+01 0.24274133072E+01 0.23946990911E+01 0.23694555995E+01
 0.23500266028E+01 0.23356594048E+01 0.23258057420E+01 0.23197542693E+01 0.23165566848E+01
 0.23151860334E+01 0.23148322033E+01 0.23151860334E+01 0.23165566848E+01 0.23197542693E+01
 0.23258057420E+01 0.23356594048E+01 0.23500266028E+01 0.23694555995E+01 0.23946990911E+01
 0.24274133072E+01 0.24711326513E+01 0.25322643156E+01 0.26206419928E+01 0.27491425573E+01
 0.29320936697E+01 0.31825869806E+01 0.35091484404E+01 0.39123531345E+01 0.43819434318E+01
 0.48949989430E+01 0.54158451433E+01 0.58985400204E+01 0.62925455451E+01 0.65512426053E+01
 0.46685726849E+01 0.46215225926E+01 0.44862959646E+01 0.42793584949E+01 0.40242689236E+01
 0.37472148259E+01 0.34727417828E+01 0.32205157922E+01 0.30034862458E+01 0.28274653372E+01
 0.26919309637E+01 0.25917314731E+01 0.25192712399E+01 0.24666743057E+01 0.24274133072E+01
 0.23970525038E+01 0.23731010992E+01 0.23543321571E+01 0.23400512076E+01 0.23296353782E+01
 0.23223896160E+01 0.23175975787E+01 0.23146298355E+01 0.23130256832E+01 0.23125191887E+01
 0.23130256832E+01 0.23146298355E+01 0.23175975787E+01 0.23223896160E+01 0.23296353782E+01
 0.23400512076E+01 0.23543321571E+01 0.23731010992E+01 0.23970525038E+01 0.24274133072E+01
 0.24666743057E+01 0.25192712399E+01 0.25917314731E+01 0.26919309637E+01 0.28274653372E+01
 0.30034862458E+01 0.32205157922E+01 0.34727417828E+01 0.37472148259E+01 0.40242689236E+01
 0.42793584949E+01 0.44862959646E+01 0.46215225926E+01 0.35604975037E+01 0.35366362870E+01
 0.34680281513E+01 0.33629530220E+01 0.32332795929E+01 0.30922306614E+01 0.29522296002E+01
 0.28232449738E+01 0.27118086769E+01 0.26207295954E+01 0.25494689492E+01 0.24950881208E+01
 0.24535515620E+01 0.24210156742E+01 0.23946990911E+01 0.23731010992E+01 0.23556438403E+01
 0.23420689217E+01 0.23319631490E+01 0.23246226358E+01 0.23192264058E+01 0.23151276648E+01
 0.23120479036E+01 0.23100550326E+01 0.23093560292E+01 0.23100550326E+01 0.23120479036E+01
 0.23151276648E+01 0.23192264058E+01 0.23246226358E+01 0.23319631490E+01 0.23420689217E+01
 0.23556438403E+01 0.23731010992E+01 0.23946990911E+01 0.24210156742E+01 0.24535515620E+01
 0.24950881208E+01 0.25494689492E+01 0.26207295954E+01 0.27118086769E+01 0.28232449738E+01
 0.29522296002E+01 0.30922306614E+01 0.32332795929E+01 0.33629530220E+01 0.34680281513E+01
 0.35366362870E+01 0.29702566369E+01 0.29582999989E+01 0.29239405135E+01 0.28713857273E+01
 0.28066636386E+01 0.27364464197E+01 0.26668947435E+01 0.26027854883E+01 0.25470483228E+01
 0.25007152524E+01 0.24632298648E+01 0.24330290710E+01 0.24082495217E+01 0.23873502535E+01
 0.23694555995E+01 0.23543321571E+01 0.23420689217E+01 0.23326566355E+01 0.23257054869E+01
 0.23204654409E+01 0.23161328578E+01 0.23122375055E+01 0.23088451872E+01 0.23064388408E+01
 0.23055596288E+01 0.23064388408E+01 0.23088451872E+01 0.23122375055E+01 0.23161328578E+01
 0.23204654409E+01 0.23257054869E+01 0.23326566355E+01 0.23420689217E+01 0.23543321571E+01
 0.23694555995E+01 0.23873502535E+01 0.24082495217E+01 0.24330290710E+01 0.24632298648E+01
 0.25007152524E+01 0.25470483228E+01 0.26027854883E+01 0.26668947435E+01 0.27364464197E+01
 0.28066636386E+01 0.28713857273E+01 0.29239405135E+01 0.29582999989E+01 0.26628273130E+01
 0.26567738048E+01 0.26394235557E+01 0.26130227225E+01 0.25807467585E+01 0.25460108111E+01
 0.25118000022E+01 0.24802154133E+01 0.24523369012E+01 0.24283683717E+01 0.24079368080E+01
 0.23904109390E+01 0.23751636826E+01 0.23617561095E+01 0.23500266028E+01 0.23400512076E+01
 0.23319631490E+01 0.23257054869E+01 0.23208770192E+01 0.23168141432E+01 0.23129015846E+01
 0.23089254189E+01 0.23052250586E+01 0.23025236646E+01 0.23015266284E+01 0.23025236646E+01
 0.23052250586E+01 0.23089254189E+01 0.23129015846E+01 0.23168141432E+01 0.23208770192E+01
 0.23257054869E+01 0.23319631490E+01 0.23400512076E+01 0.23500266028E+01 0.23617561095E+01
 0.23751636826E+01 0.23904109390E+01 0.24079368080E+01 0.24283683717E+01 0.24523369012E+01
 0.24802154133E+01 0.25118000022E+01 0.25460108111E+01 0.25807467585E+01 0.26130227225E+01
 0.26394235557E+01 0.26567738048E+01 0.24906334652E+01 0.24878773702E+01 0.24800406384E+01
 0.24682674954E+01 0.24540392098E+01 0.24387544476E+01 0.24234469297E+01 0.24087253201E+01
 0.23948906257E+01 0.23821014633E+01 0.23704682075E+01 0.23600503704E+01 0.23508268933E+01
 0.23427185063E+01 0.23356594048E+01 0.23296353782E+01 0.23246226358E+01 0.23204654409E+01
 0.23168141432E+01 0.23132200684E+01 0.23093669170E+01 0.23053042166E+01 0.23015213908E+01
 0.22987813510E+01 0.22977754001E+01 0.22987813510E+01 0.23015213908E+01 0.23053042166E+01
 0.23093669170E+01 0.23132200684E+01 0.23168141432E+01 0.23204654409E+01 0.23246226358E+01
 0.23296353782E+01 0.23356594048E+01 0.23427185063E+01 0.23508268933E+01 0.23600503704E+01
 0.23704682075E+01 0.23821014633E+01 0.23948906257E+01 0.24087253201E+01 0.24234469297E+01
 0.24387544476E+01 0.24540392098E+01 0.24682674954E+01 0.24800406384E+01 0.24878773702E+01
 0.23964234661E+01 0.23953423791E+01 0.23923205828E+01 0.23879018401E+01 0.23826725463E+01
 0.23770110570E+01 0.23710245131E+01 0.23646879123E+01 0.23580520246E+01 0.23513503528E+01
 0.23449347581E+01 0.23391128783E+01 0.23340241171E+01 0.23296326125E+01 0.23258057420E+01
 0.23223896160E+01 0.23192264058E+01 0.23161328578E+01 0.23129015846E+01 0.23093669170E+01
 0.23055194375E+01 0.23016023647E+01 0.22981123901E+01 0.22956683538E+01 0.22947866126E+01
 0.22956683538E+01 0.22981123901E+01 0.23016023647E+01 0.23055194375E+01 0.23093669170E+01
 0.23129015846E+01 0.23161328578E+01 0.23192264058E+01 0.23223896160E+01 0.23258057420E+01
 0.23296326125E+01 0.23340241171E+01 0.23391128783E+01 0.23449347581E+01 0.23513503528E+01
 0.23580520246E+01 0.23646879123E+01 0.23710245131E+01 0.23770110570E+01 0.23826725463E+01
 0.23879018401E+01 0.23923205828E+01 0.23953423791E+01 0.23561534142E+01 0.23553544300E+01
 0.23531370072E+01 0.23499696613E+01 0.23464254819E+01 0.23429637292E+01 0.23397908281E+01
 0.23368752289E+01 0.23340858480E+01 0.23313407233E+01 0.23286663074E+01 0.23261534863E+01
 0.23238675520E+01 0.23217793806E+01 0.23197542693E+01 0.23175975787E+01 0.23151276648E+01
 0.23122375055E+01 0.23089254189E+01 0.23053042166E+01 0.23016023647E+01 0.22981483723E+01
 0.22953198388E+01 0.22934630265E+01 0.22928161022E+01 0.22934630265E+01 0.22953198388E+01
 0.22981483723E+01 0.23016023647E+01 0.23053042166E+01 0.23089254189E+01 0.23122375055E+01
 0.23151276648E+01 0.23175975787E+01 0.23197542693E+01 0.23217793806E+01 0.23238675520E+01
 0.23261534863E+01 0.23286663074E+01 0.23313407233E+01 0.23340858480E+01 0.23368752289E+01
 0.23397908281E+01 0.23429637292E+01 0.23464254819E+01 0.23499696613E+01 0.23531370072E+01
 0.23553544300E+01 0.23334708670E+01 0.23326530746E+01 0.23304041480E+01 0.23272879728E+01
 0.23240698158E+01 0.23214633930E+01 0.23198768371E+01 0.23192947908E+01 0.23193648678E+01
 0.23196230539E+01 0.23197110456E+01 0.23194672943E+01 0.23188729470E+01 0.23179269143E+01
 0.23165566848E+01 0.23146298355E+01 0.23120479036E+01 0.23088451872E+01 0.23052250586E+01
 0.23015213908E+01 0.22981123901E+01 0.22953198388E+01 0.22933290841E+01 0.22921729703E+01
 0.22917990008E+01 0.22921729703E+01 0.22933290841E+01 0.22953198388E+01 0.22981123901E+01
 0.23015213908E+01 0.23052250586E+01 0.23088451872E+01 0.23120479036E+01 0.23146298355E+01
 0.23165566848E+01 0.23179269143E+01 0.23188729470E+01 0.23194672943E+01 0.23197110456E+01
 0.23196230539E+01 0.23193648678E+01 0.23192947908E+01 0.23198768371E+01 0.23214633930E+01
 0.23240698158E+01 0.23272879728E+01 0.23304041480E+01 0.23326530746E+01 0.23061875802E+01
 0.23058735172E+01 0.23051097270E+01 0.23043557543E+01 0.23041533029E+01 0.23048857712E+01
 0.23066088662E+01 0.23090367877E+01 0.23116815474E+01 0.23140550185E+01 0.23158200684E+01
 0.23168280975E+01 0.23170573793E+01 0.23165170149E+01 0.23151860334E+01 0.23130256832E+01
 0.23100550326E+01 0.23064388408E+01 0.23025236646E+01 0.22987813510E+01 0.22956683538E+01
 0.22934630265E+01 0.22921729703E+01 0.22915817973E+01 0.22914238480E+01 0.22915817973E+01
 0.22921729703E+01 0.22934630265E+01 0.22956683538E+01 0.22987813510E+01 0.23025236646E+01
 0.23064388408E+01 0.23100550326E+01 0.23130256832E+01 0.23151860334E+01 0.23165170149E+01
 0.23170573793E+01 0.23168280975E+01 0.23158200684E+01 0.23140550185E+01 0.23116815474E+01
 0.23090367877E+01 0.23066088662E+01 0.23048857712E+01 0.23041533029E+01 0.23043557543E+01
 0.23051097270E+01 0.23058735172E+01 0.22913476551E+01 0.22914238480E+01 0.22917990008E+01
 0.22928161022E+01 0.22947866126E+01 0.22977754001E+01 0.23015266284E+01 0.23055596288E+01
 0.23093560292E+01 0.23125191887E+01 0.23148322033E+01 0.23162214972E+01 0.23166827263E+01
 0.23162214972E+01 0.23148322033E+01 0.23125191887E+01 0.23093560292E+01 0.23055596288E+01
 0.23015266284E+01 0.22977754001E+01 0.22947866126E+01 0.22928161022E+01 0.22917990008E+01
 0.22914238480E+01 0.22913476551E+01 0.22914238480E+01 0.22917990008E+01 0.22928161022E+01
 0.22947866126E+01 0.22977754001E+01 0.23015266284E+01 0.23055596288E+01 0.23093560292E+01
 0.23125191887E+01 0.23148322033E+01 0.23162214972E+01 0.23166827263E+01 0.23162214972E+01
 0.23148322033E+01 0.23125191887E+01 0.23093560292E+01 0.23055596288E+01 0.23015266284E+01
 0.22977754001E+01 0.22947866126E+01 0.22928161022E+01 0.22917990008E+01 0.22914238480E+01
 0.23061875802E+01 0.23058735172E+01 0.23051097270E+01 0.23043557543E+01 0.23041533029E+01
 0.23048857712E+01 0.23066088662E+01 0.23090367877E+01 0.23116815474E+01 0.23140550185E+01
 0.23158200684E+01 0.23168280975E+01 0.23170573793E+01 0.23165170149E+01 0.23151860334E+01
 0.23130256832E+01 0.23100550326E+01 0.23064388408E+01 0.23025236646E+01 0.22987813510E+01
 0.22956683538E+01 0.22934630265E+01 0.22921729703E+01 0.22915817973E+01 0.22914238480E+01
 0.22915817973E+01 0.22921729703E+01 0.22934630265E+01 0.22956683538E+01 0.22987813510E+01
 0.23025236646E+01 0.23064388408E+01 0.23100550326E+01 0.23130256832E+01 0.23151860334E+01
 0.23165170149E+01 0.23170573793E+01 0.23168280975E+01 0.23158200684E+01 0.23140550185E+01
 0.23116815474E+01 0.23090367877E+01 0.23066088662E+01 0.23048857712E+01 0.23041533029E+01
 0.23043557543E+01 0.23051097270E+01 0.23058735172E+01 0.23334708670E+01 0.23326530746E+01
 0.23304041480E+01 0.23272879728E+01 0.23240698158E+01 0.23214633930E+01 0.23198768371E+01
 0.23192947908E+01 0.23193648678E+01 0.23196230539E+01 0.23197110456E+01 0.23194672943E+01
 0.23188729470E+01 0.23179269143E+01 0.23165566848E+01 0.23146298355E+01 0.23120479036E+01
 0.23088451872E+01 0.23052250586E+01 0.23015213908E+01 0.22981123901E+01 0.22953198388E+01
 0.22933290841E+01 0.22921729703E+01 0.22917990008E+01 0.22921729703E+01 0.22933290841E+01
 0.22953198388E+01 0.22981123901E+01 0.23015213908E+01 0.23052250586E+01 0.23088451872E+01
 0.23120479036E+01 0.23146298355E+01 0.23165566848E+01 0.23179269143E+01 0.23188729470E+01
 0.23194672943E+01 0.23197110456E+01 0.23196230539E+01 0.23193648678E+01 0.23192947908E+01
 0.23198768371E+01 0.23214633930E+01 0.23240698158E+01 0.23272879728E+01 0.23304041480E+01
 0.23326530746E+01 0.23561534142E+01 0.23553544300E+01 0.23531370072E+01 0.23499696613E+01
 0.23464254819E+01 0.23429637292E+01 0.23397908281E+01 0.23368752289E+01 0.23340858480E+01
 0.23313407233E+01 0.23286663074E+01 0.23261534863E+01 0.23238675520E+01 0.23217793806E+01
 0.23197542693E+01 0.23175975787E+01 0.23151276648E+01 0.23122375055E+01 0.23089254189E+01
 0.23053042166E+01 0.23016023647E+01 0.22981483723E+01 0.22953198388E+01 0.22934630265E+01
 0.22928161022E+01 0.22934630265E+01 0.22953198388E+01 0.22981483723E+01 0.23016023647E+01
 0.23053042166E+01 0.23089254189E+01 0.23122375055E+01 0.23151276648E+01 0.23175975787E+01
 0.23197542693E+01 0.23217793806E+01 0.23238675520E+01 0.23261534863E+01 0.23286663074E+01
 0.23313407233E+01 0.23340858480E+01 0.23368752289E+01 0.23397908281E+01 0.23429637292E+01
 0.23464254819E+01 0.23499696613E+01 0.23531370072E+01 0.23553544300E+01 0.23964234661E+01
 0.23953423791E+01 0.23923205828E+01 0.23879018401E+01 0.23826725463E+01 0.23770110570E+01
 0.23710245131E+01 0.23646879123E+01 0.23580520246E+01 0.23513503528E+01 0.23449347581E+01
 0.23391128783E+01 0.23340241171E+01 0.23296326125E+01 0.23258057420E+01 0.23223896160E+01
 0.23192264058E+01 0.23161328578E+01 0.23129015846E+01 0.23093669170E+01 0.23055194375E+01
 0.23016023647E+01 0.22981123901E+01 0.22956683538E+01 0.22947866126E+01 0.22956683538E+01
 0.22981123901E+01 0.23016023647E+01 0.23055194375E+01 0.23093669170E+01 0.23129015846E+01
 0.23161328578E+01 0.23192264058E+01 0.23223896160E+01 0.23258057420E+01 0.23296326125E+01
 0.23340241171E+01 0.23391128783E+01 0.23449347581E+01 0.23513503528E+01 0.23580520246E+01
 0.23646879123E+01 0.23710245131E+01 0.23770110570E+01 0.23826725463E+01 0.23879018401E+01
 0.23923205828E+01 0.23953423791E+01 0.24906334652E+01 0.24878773702E+01 0.24800406384E+01
 0.24682674954E+01 0.24540392098E+01 0.24387544476E+01 0.24234469297E+01 0.24087253201E+01
 0.23948906257E+01 0.23821014633E+01 0.23704682075E+01 0.23600503704E+01 0.23508268933E+01
 0.23427185063E+01 0.23356594048E+01 0.23296353782E+01 0.23246226358E+01 0.23204654409E+01
 0.23168141432E+01 0.23132200684E+01 0.23093669170E+01 0.23053042166E+01 0.23015213908E+01
 0.22987813510E+01 0.22977754001E+01 0.22987813510E+01 0.23015213908E+01 0.23053042166E+01
 0.23093669170E+01 0.23132200684E+01 0.23168141432E+01 0.23204654409E+01 0.23246226358E+01
 0.23296353782E+01 0.23356594048E+01 0.23427185063E+01 0.23508268933E+01 0.23600503704E+01
 0.23704682075E+01 0.23821014633E+01 0.23948906257E+01 0.24087253201E+01 0.24234469297E+01
 0.24387544476E+01 0.24540392098E+01 0.24682674954E+01 0.24800406384E+01 0.24878773702E+01
 0.26628273130E+01 0.26567738048E+01 0.26394235557E+01 0.26130227225E+01 0.25807467585E+01
 0.25460108111E+01 0.25118000022E+01 0.24802154133E+01 0.24523369012E+01 0.24283683717E+01
 0.24079368080E+01 0.23904109390E+01 0.23751636826E+01 0.23617561095E+01 0.23500266028E+01
 0.23400512076E+01 0.23319631490E+01 0.23257054869E+01 0.23208770192E+01 0.23168141432E+01
 0.23129015846E+01 0.23089254189E+01 0.23052250586E+01 0.23025236646E+01 0.23015266284E+01
 0.23025236646E+01 0.23052250586E+01 0.23089254189E+01 0.23129015846E+01 0.23168141432E+01
 0.23208770192E+01 0.23257054869E+01 0.23319631490E+01 0.23400512076E+01 0.23500266028E+01
 0.23617561095E+01 0.23751636826E+01 0.23904109390E+01 0.24079368080E+01 0.24283683717E+01
 0.24523369012E+01 0.24802154133E+01 0.25118000022E+01 0.25460108111E+01 0.25807467585E+01
 0.26130227225E+01 0.26394235557E+01 0.26567738048E+01 0.29702566369E+01 0.29582999989E+01
 0.29239405135E+01 0.28713857273E+01 0.28066636386E+01 0.27364464197E+01 0.26668947435E+01
 0.26027854883E+01 0.25470483228E+01 0.25007152524E+01 0.24632298648E+01 0.24330290710E+01
 0.24082495217E+01 0.23873502535E+01 0.23694555995E+01 0.23543321571E+01 0.23420689217E+01
 0.23326566355E+01 0.23257054869E+01 0.23204654409E+01 0.23161328578E+01 0.23122375055E+01
 0.23088451872E+01 0.23064388408E+01 0.23055596288E+01 0.23064388408E+01 0.23088451872E+01
 0.23122375055E+01 0.23161328578E+01 0.23204654409E+01 0.23257054869E+01 0.23326566355E+01
 0.23420689217E+01 0.23543321571E+01 0.23694555995E+01 0.23873502535E+01 0.24082495217E+01
 0.24330290710E+01 0.24632298648E+01 0.25007152524E+01 0.25470483228E+01 0.26027854883E+01
 0.26668947435E+01 0.27364464197E+01 0.28066636386E+01 0.28713857273E+01 0.29239405135E+01
 0.29582999989E+01 0.35604975037E+01 0.35366362870E+01 0.34680281513E+01 0.33629530220E+01
 0.32332795929E+01 0.30922306614E+01 0.29522296002E+01 0.28232449738E+01 0.27118086769E+01
 0.26207295954E+01 0.25494689492E+01 0.24950881208E+01 0.24535515620E+01 0.24210156742E+01
 0.23946990911E+01 0.23731010992E+01 0.23556438403E+01 0.23420689217E+01 0.23319631490E+01
 0.23246226358E+01 0.23192264058E+01 0.23151276648E+01 0.23120479036E+01 0.23100550326E+01
 0.23093560292E+01 0.23100550326E+01 0.23120479036E+01 0.23151276648E+01 0.23192264058E+01
 0.23246226358E+01 0.23319631490E+01 0.23420689217E+01 0.23556438403E+01 0.23731010992E+01
 0.23946990911E+01 0.24210156742E+01 0.24535515620E+01 0.24950881208E+01 0.25494689492E+01
 0.26207295954E+01 0.27118086769E+01 0.28232449738E+01 0.29522296002E+01 0.30922306614E+01
 0.32332795929E+01 0.33629530220E+01 0.34680281513E+01 0.35366362870E+01 0.46685726849E+01
 0.46215225926E+01 0.44862959646E+01 0.42793584949E+01 0.40242689236E+01 0.37472148259E+01
 0.34727417828E+01 0.32205157922E+01 0.30034862458E+01 0.28274653372E+01 0.26919309637E+01
 0.25917314731E+01 0.25192712399E+01 0.24666743057E+01 0.24274133072E+01 0.23970525038E+01
 0.23731010992E+01 0.23543321571E+01 0.23400512076E+01 0.23296353782E+01 0.23223896160E+01
 0.23175975787E+01 0.23146298355E+01 0.23130256832E+01 0.23125191887E+01 0.23130256832E+01
 0.23146298355E+01 0.23175975787E+01 0.23223896160E+01 0.23296353782E+01 0.23400512076E+01
 0.23543321571E+01 0.23731010992E+01 0.23970525038E+01 0.24274133072E+01 0.24666743057E+01
 0.25192712399E+01 0.25917314731E+01 0.26919309637E+01 0.28274653372E+01 0.30034862458E+01
 0.32205157922E+01 0.34727417828E+01 0.37472148259E+01 0.40242689236E+01 0.42793584949E+01