   2   2   0   0
  0.9123716E+02  0.5671970E-09  0.5671970E-09  0.5671970E-09  0.5000000E-15
  1.000000000000000E-004
  CAR 
 Rb                                      
     20.13540085    -31.23343882  301      0.04391160      1.00000000
    -31.233  0.0000E+00  0.0000E+00
    -31.062  0.0000E+00  0.0000E+00
    -30.891  0.0000E+00  0.0000E+00
    -30.720  0.0000E+00  0.0000E+00
    -30.549  0.0000E+00  0.0000E+00
    -30.377  0.0000E+00  0.0000E+00
    -30.206  0.0000E+00  0.0000E+00
    -30.035  0.0000E+00  0.0000E+00
    -29.864  0.0000E+00  0.0000E+00
    -29.692  0.0000E+00  0.0000E+00
    -29.521  0.0000E+00  0.0000E+00
    -29.350  0.0000E+00  0.0000E+00
    -29.179  0.1109E-13  0.1899E-14
    -29.007  0.1642E-01  0.2812E-02
    -28.836  0.2218E+02  0.3801E+01
    -28.665  0.1165E+01  0.4000E+01
    -28.494  0.3594E-09  0.4000E+01
    -28.323  0.0000E+00  0.4000E+01
    -28.151  0.0000E+00  0.4000E+01
    -27.980  0.0000E+00  0.4000E+01
    -27.809  0.0000E+00  0.4000E+01
    -27.638  0.0000E+00  0.4000E+01
    -27.466  0.0000E+00  0.4000E+01
    -27.295  0.0000E+00  0.4000E+01
    -27.124  0.0000E+00  0.4000E+01
    -26.953  0.0000E+00  0.4000E+01
    -26.781  0.0000E+00  0.4000E+01
    -26.610  0.0000E+00  0.4000E+01
    -26.439  0.0000E+00  0.4000E+01
    -26.268  0.0000E+00  0.4000E+01
    -26.097  0.0000E+00  0.4000E+01
    -25.925  0.0000E+00  0.4000E+01
    -25.754  0.0000E+00  0.4000E+01
    -25.583  0.0000E+00  0.4000E+01
    -25.412  0.0000E+00  0.4000E+01
    -25.240  0.0000E+00  0.4000E+01
    -25.069  0.0000E+00  0.4000E+01
    -24.898  0.0000E+00  0.4000E+01
    -24.727  0.0000E+00  0.4000E+01
    -24.555  0.0000E+00  0.4000E+01
    -24.384  0.0000E+00  0.4000E+01
    -24.213  0.0000E+00  0.4000E+01
    -24.042  0.0000E+00  0.4000E+01
    -23.871  0.0000E+00  0.4000E+01
    -23.699  0.0000E+00  0.4000E+01
    -23.528  0.0000E+00  0.4000E+01
    -23.357  0.0000E+00  0.4000E+01
    -23.186  0.0000E+00  0.4000E+01
    -23.014  0.0000E+00  0.4000E+01
    -22.843  0.0000E+00  0.4000E+01
    -22.672  0.0000E+00  0.4000E+01
    -22.501  0.0000E+00  0.4000E+01
    -22.330  0.0000E+00  0.4000E+01
    -22.158  0.0000E+00  0.4000E+01
    -21.987  0.0000E+00  0.4000E+01
    -21.816  0.0000E+00  0.4000E+01
    -21.645  0.0000E+00  0.4000E+01
    -21.473  0.0000E+00  0.4000E+01
    -21.302  0.0000E+00  0.4000E+01
    -21.131  0.0000E+00  0.4000E+01
    -20.960  0.0000E+00  0.4000E+01
    -20.788  0.0000E+00  0.4000E+01
    -20.617  0.0000E+00  0.4000E+01
    -20.446  0.0000E+00  0.4000E+01
    -20.275  0.0000E+00  0.4000E+01
    -20.104  0.0000E+00  0.4000E+01
    -19.932  0.0000E+00  0.4000E+01
    -19.761  0.0000E+00  0.4000E+01
    -19.590  0.0000E+00  0.4000E+01
    -19.419  0.0000E+00  0.4000E+01
    -19.247  0.0000E+00  0.4000E+01
    -19.076  0.0000E+00  0.4000E+01
    -18.905  0.0000E+00  0.4000E+01
    -18.734  0.0000E+00  0.4000E+01
    -18.562  0.0000E+00  0.4000E+01
    -18.391  0.0000E+00  0.4000E+01
    -18.220  0.0000E+00  0.4000E+01
    -18.049  0.0000E+00  0.4000E+01
    -17.878  0.0000E+00  0.4000E+01
    -17.706  0.0000E+00  0.4000E+01
    -17.535  0.0000E+00  0.4000E+01
    -17.364  0.0000E+00  0.4000E+01
    -17.193  0.0000E+00  0.4000E+01
    -17.021  0.0000E+00  0.4000E+01
    -16.850  0.0000E+00  0.4000E+01
    -16.679  0.0000E+00  0.4000E+01
    -16.508  0.0000E+00  0.4000E+01
    -16.336  0.0000E+00  0.4000E+01
    -16.165  0.0000E+00  0.4000E+01
    -15.994  0.0000E+00  0.4000E+01
    -15.823  0.0000E+00  0.4000E+01
    -15.652  0.0000E+00  0.4000E+01
    -15.480  0.0000E+00  0.4000E+01
    -15.309  0.0000E+00  0.4000E+01
    -15.138  0.0000E+00  0.4000E+01
    -14.967  0.0000E+00  0.4000E+01
    -14.795  0.0000E+00  0.4000E+01
    -14.624  0.0000E+00  0.4000E+01
    -14.453  0.0000E+00  0.4000E+01
    -14.282  0.0000E+00  0.4000E+01
    -14.110  0.0000E+00  0.4000E+01
    -13.939  0.0000E+00  0.4000E+01
    -13.768  0.0000E+00  0.4000E+01
    -13.597  0.0000E+00  0.4000E+01
    -13.426  0.0000E+00  0.4000E+01
    -13.254  0.5882E-09  0.4000E+01
    -13.083  0.7871E+00  0.4135E+01
    -12.912  0.6542E+02  0.1534E+02
    -12.741  0.3872E+01  0.1600E+02
    -12.569  0.4176E-07  0.1600E+02
    -12.398  0.0000E+00  0.1600E+02
    -12.227  0.0000E+00  0.1600E+02
    -12.056  0.0000E+00  0.1600E+02
    -11.885  0.0000E+00  0.1600E+02
    -11.713  0.0000E+00  0.1600E+02
    -11.542  0.0000E+00  0.1600E+02
    -11.371  0.0000E+00  0.1600E+02
    -11.200  0.0000E+00  0.1600E+02
    -11.028  0.0000E+00  0.1600E+02
    -10.857  0.0000E+00  0.1600E+02
    -10.686  0.0000E+00  0.1600E+02
    -10.515  0.0000E+00  0.1600E+02
    -10.343  0.0000E+00  0.1600E+02
    -10.172  0.0000E+00  0.1600E+02
    -10.001  0.0000E+00  0.1600E+02
     -9.830  0.0000E+00  0.1600E+02
     -9.659  0.0000E+00  0.1600E+02
     -9.487  0.0000E+00  0.1600E+02
     -9.316  0.0000E+00  0.1600E+02
     -9.145  0.0000E+00  0.1600E+02
     -8.974  0.0000E+00  0.1600E+02
     -8.802  0.0000E+00  0.1600E+02
     -8.631  0.0000E+00  0.1600E+02
     -8.460  0.0000E+00  0.1600E+02
     -8.289  0.0000E+00  0.1600E+02
     -8.117  0.0000E+00  0.1600E+02
     -7.946  0.0000E+00  0.1600E+02
     -7.775  0.0000E+00  0.1600E+02
     -7.604  0.0000E+00  0.1600E+02
     -7.433  0.0000E+00  0.1600E+02
     -7.261  0.0000E+00  0.1600E+02
     -7.090  0.0000E+00  0.1600E+02
     -6.919  0.0000E+00  0.1600E+02
     -6.748  0.0000E+00  0.1600E+02
     -6.576  0.0000E+00  0.1600E+02
     -6.405  0.0000E+00  0.1600E+02
     -6.234  0.0000E+00  0.1600E+02
     -6.063  0.0000E+00  0.1600E+02
     -5.891  0.0000E+00  0.1600E+02
     -5.720  0.0000E+00  0.1600E+02
     -5.549  0.0000E+00  0.1600E+02
     -5.378  0.0000E+00  0.1600E+02
     -5.207  0.0000E+00  0.1600E+02
     -5.035  0.0000E+00  0.1600E+02
     -4.864  0.0000E+00  0.1600E+02
     -4.693  0.0000E+00  0.1600E+02
     -4.522  0.0000E+00  0.1600E+02
     -4.350  0.0000E+00  0.1600E+02
     -4.179  0.0000E+00  0.1600E+02
     -4.008  0.0000E+00  0.1600E+02
     -3.837  0.0000E+00  0.1600E+02
     -3.665  0.0000E+00  0.1600E+02
     -3.494  0.0000E+00  0.1600E+02
     -3.323  0.0000E+00  0.1600E+02
     -3.152  0.0000E+00  0.1600E+02
     -2.981  0.0000E+00  0.1600E+02
     -2.809  0.0000E+00  0.1600E+02
     -2.638  0.0000E+00  0.1600E+02
     -2.467  0.0000E+00  0.1600E+02
     -2.296  0.0000E+00  0.1600E+02
     -2.124  0.3150E-07  0.1600E+02
     -1.953  0.1379E-01  0.1600E+02
     -1.782  0.2628E+00  0.1605E+02
     -1.611  0.3836E+00  0.1611E+02
     -1.440  0.7942E+00  0.1625E+02
     -1.268  0.4838E+00  0.1633E+02
     -1.097  0.1036E+01  0.1651E+02
     -0.926  0.9983E+00  0.1668E+02
     -0.755  0.1293E+01  0.1690E+02
     -0.583  0.6011E+00  0.1700E+02
     -0.412  0.1949E+01  0.1734E+02
     -0.241  0.1498E+01  0.1759E+02
     -0.070  0.1232E+01  0.1781E+02
      0.102  0.2054E+01  0.1816E+02
      0.273  0.1784E+01  0.1846E+02
      0.444  0.2991E+01  0.1898E+02
      0.615  0.1277E+01  0.1919E+02
      0.786  0.1740E+01  0.1949E+02
      0.958  0.3035E+01  0.2001E+02
      1.129  0.3524E+01  0.2061E+02
      1.300  0.4714E+01  0.2142E+02
      1.471  0.2761E+01  0.2190E+02
      1.643  0.4348E+01  0.2264E+02
      1.814  0.2806E+01  0.2312E+02
      1.985  0.2178E+01  0.2349E+02
      2.156  0.4259E+01  0.2422E+02
      2.328  0.2743E+01  0.2469E+02
      2.499  0.5279E+01  0.2560E+02
      2.670  0.3538E+01  0.2620E+02
      2.841  0.3719E+01  0.2684E+02
      3.012  0.4321E+01  0.2758E+02
      3.184  0.3650E+01  0.2820E+02
      3.355  0.2509E+01  0.2863E+02
      3.526  0.2805E+01  0.2911E+02
      3.697  0.4311E+01  0.2985E+02
      3.869  0.3659E+01  0.3048E+02
      4.040  0.4907E+01  0.3132E+02
      4.211  0.4282E+01  0.3205E+02
      4.382  0.6095E+01  0.3310E+02
      4.554  0.5456E+01  0.3403E+02
      4.725  0.5456E+01  0.3496E+02
      4.896  0.4045E+01  0.3566E+02
      5.067  0.8386E+01  0.3709E+02
      5.238  0.8528E+01  0.3855E+02
      5.410  0.6063E+01  0.3959E+02
      5.581  0.1316E+01  0.3982E+02
      5.752  0.1448E+01  0.4006E+02
      5.923  0.3127E+01  0.4060E+02
      6.095  0.9425E+01  0.4221E+02
      6.266  0.6536E+01  0.4333E+02
      6.437  0.6549E+01  0.4445E+02
      6.608  0.7314E+01  0.4571E+02
      6.780  0.6843E+01  0.4688E+02
      6.951  0.9148E+01  0.4844E+02
      7.122  0.5645E+01  0.4941E+02
      7.293  0.4991E+01  0.5027E+02
      7.464  0.1564E+01  0.5053E+02
      7.636  0.3808E+01  0.5119E+02
      7.807  0.2949E+01  0.5169E+02
      7.978  0.1900E+01  0.5202E+02
      8.149  0.6822E+00  0.5213E+02
      8.321  0.2453E+01  0.5255E+02
      8.492  0.2652E+01  0.5301E+02
      8.663  0.2760E+01  0.5348E+02
      8.834  0.2464E+01  0.5390E+02
      9.005  0.3993E+01  0.5458E+02
      9.177  0.8809E+01  0.5609E+02
      9.348  0.7240E+01  0.5733E+02
      9.519  0.2434E+01  0.5775E+02
      9.690  0.5591E+01  0.5871E+02
      9.862  0.7536E+01  0.6000E+02
     10.033  0.3611E+01  0.6062E+02
     10.204  0.3477E+01  0.6121E+02
     10.375  0.6807E+01  0.6238E+02
     10.547  0.3944E+01  0.6305E+02
     10.718  0.6646E+01  0.6419E+02
     10.889  0.6425E+01  0.6529E+02
     11.060  0.3162E+01  0.6583E+02
     11.231  0.3973E+01  0.6651E+02
     11.403  0.3888E+01  0.6718E+02
     11.574  0.4725E+01  0.6799E+02
     11.745  0.6475E+01  0.6910E+02
     11.916  0.4858E+01  0.6993E+02
     12.088  0.6511E+01  0.7104E+02
     12.259  0.4919E+01  0.7188E+02
     12.430  0.4506E+01  0.7266E+02
     12.601  0.3411E+01  0.7324E+02
     12.773  0.3675E+01  0.7387E+02
     12.944  0.2548E+01  0.7431E+02
     13.115  0.5304E+01  0.7521E+02
     13.286  0.3549E+01  0.7582E+02
     13.457  0.5534E+01  0.7677E+02
     13.629  0.5483E+01  0.7771E+02
     13.800  0.6871E+01  0.7888E+02
     13.971  0.6812E+01  0.8005E+02
     14.142  0.4796E+01  0.8087E+02
     14.314  0.6031E+01  0.8191E+02
     14.485  0.5524E+01  0.8285E+02
     14.656  0.6563E+01  0.8397E+02
     14.827  0.9441E+01  0.8559E+02
     14.999  0.6047E+01  0.8663E+02
     15.170  0.3508E+01  0.8723E+02
     15.341  0.3689E+01  0.8786E+02
     15.512  0.4927E+01  0.8870E+02
     15.683  0.5402E+01  0.8963E+02
     15.855  0.6573E+01  0.9075E+02
     16.026  0.5898E+01  0.9176E+02
     16.197  0.6118E+01  0.9281E+02
     16.368  0.4751E+01  0.9362E+02
     16.540  0.4143E+01  0.9433E+02
     16.711  0.4215E+01  0.9506E+02
     16.882  0.2645E+01  0.9551E+02
     17.053  0.1345E+01  0.9574E+02
     17.224  0.8438E+00  0.9588E+02
     17.396  0.9554E-04  0.9588E+02
     17.567  0.1712E-01  0.9589E+02
     17.738  0.3773E+00  0.9595E+02
     17.909  0.2897E+00  0.9600E+02
     18.081  0.2815E-03  0.9600E+02
     18.252  0.0000E+00  0.9600E+02
     18.423  0.0000E+00  0.9600E+02
     18.594  0.0000E+00  0.9600E+02
     18.766  0.0000E+00  0.9600E+02
     18.937  0.0000E+00  0.9600E+02
     19.108  0.0000E+00  0.9600E+02
     19.279  0.0000E+00  0.9600E+02
     19.450  0.0000E+00  0.9600E+02
     19.622  0.0000E+00  0.9600E+02
     19.793  0.0000E+00  0.9600E+02
     19.964  0.0000E+00  0.9600E+02
     20.135  0.0000E+00  0.9600E+02
