Si                                      
   1.00000000000000     
     3.348998    0.000000    1.933545
     1.116333    3.157466    1.933545
     0.000000    0.000000    3.867090
   Si
     2
Direct
  0.000000  0.000000  0.000000
  0.250000  0.250000  0.250000
 
   36   36   36
 -7.5583     -6.1420     -2.2736      3.0442      8.5390      13.076      15.959      17.037      16.626      15.319    
  13.724      12.133      10.671      9.4125      8.3936      7.6198      7.0822      6.7671      6.6634      6.7671    
  7.0822      7.6198      8.3936      9.4125      10.671      12.133      13.724      15.319      16.626      17.037    
  15.959      13.076      8.5390      3.0442     -2.2736     -6.1420     -6.1420     -3.3205      1.5476      7.2086    
  12.373      16.103      18.007      18.223      17.255      15.742      14.134      12.592      11.210      10.044    
  9.1173      8.4328      7.9841      7.7625      7.7625      7.9841      8.4328      9.1173      10.044      11.210    
  12.592      14.134      15.742      17.255      18.223      18.007      16.103      12.373      7.2086      1.5475    
 -3.3206     -6.1420     -2.2736      1.5476      6.7213      11.948      16.129      18.653      19.456      18.903    
  17.583      16.037      14.491      13.049      11.782      10.729      9.9070      9.3216      8.9719      8.8556    
  8.9718      9.3216      9.9070      10.729      11.782      13.049      14.491      16.037      17.583      18.903    
  19.456      18.653      16.129      11.948      6.7213      1.5475     -2.2737     -3.6836      3.0442      7.2086    
  11.948      16.127      18.976      20.236      20.107      19.073      17.678      16.215      14.796      13.496    
  12.367      11.437      10.726      10.245      10.002      10.002      10.245      10.726      11.437      12.367    
  13.496      14.796      16.215      17.678      19.073      20.107      20.236      18.976      16.127      11.948    
  7.2086      3.0442     0.60037     0.60037      8.5390      12.373      16.129      18.976      20.504      20.743    
  20.045      18.892      17.603      16.296      15.050      13.914      12.929      12.122      11.520      11.147    
  11.020      11.147      11.520      12.122      12.929      13.914      15.050      16.296      17.603      18.892    
  20.045      20.743      20.504      18.976      16.129      12.373      8.5390      5.6561      4.5833      5.6560    
  13.076      16.103      18.653      20.236      20.743      20.383      19.538      18.506      17.401      16.296    
  15.241      14.270      13.419      12.724      12.227      11.967      11.967      12.227      12.724      13.419    
  14.270      15.241      16.296      17.401      18.506      19.538      20.383      20.743      20.236      18.653    
  16.103      13.076      10.348      8.7249      8.7249      10.348      15.959      18.007      19.456      20.107    
  20.045      19.538      18.819      17.988      17.106      16.215      15.342      14.517      13.780      13.183    
  12.791      12.653      12.791      13.183      13.780      14.517      15.342      16.215      17.106      17.988    
  18.819      19.538      20.045      20.107      19.456      18.007      15.959      13.791      12.129      11.505    
  12.129      13.791      17.037      18.223      18.903      19.073      18.892      18.506      17.988      17.387    
  16.732      16.037      15.319      14.607      13.957      13.444      13.157      13.157      13.444      13.957    
  14.607      15.319      16.037      16.732      17.387      17.988      18.506      18.892      19.073      18.903    
  18.223      17.037      15.565      14.205      13.386      13.386      14.205      15.565      16.626      17.255    
  17.583      17.678      17.603      17.401      17.106      16.732      16.278      15.742      15.137      14.497    
  13.898      13.461      13.300      13.461      13.898      14.497      15.137      15.742      16.278      16.732    
  17.106      17.401      17.603      17.678      17.582      17.255      16.626      15.743      14.797      14.063    
  13.787      14.063      14.797      15.743      15.319      15.742      16.037      16.215      16.296      16.296    
  16.215      16.037      15.742      15.319      14.772      14.157      13.605      13.275      13.275      13.605    
  14.157      14.772      15.319      15.742      16.037      16.215      16.296      16.296      16.215      16.037    
  15.742      15.319      14.772      14.157      13.605      13.275      13.275      13.605      14.157      14.772    
  13.724      14.134      14.491      14.796      15.050      15.241      15.342      15.319      15.137      14.772    
  14.240      13.653      13.190      13.014      13.190      13.653      14.240      14.772      15.137      15.319    
  15.342      15.241      15.050      14.796      14.491      14.134      13.724      13.269      12.799      12.375    
  12.071      11.960      12.071      12.375      12.800      13.269      12.133      12.592      13.049      13.496    
  13.914      14.270      14.517      14.607      14.497      14.157      13.653      13.148      12.832      12.832    
  13.148      13.653      14.157      14.497      14.607      14.517      14.270      13.914      13.496      13.049    
  12.592      12.133      11.680      11.247      10.861      10.565      10.403      10.403      10.566      10.861    
  11.247      11.680      10.671      11.210      11.782      12.367      12.929      13.419      13.780      13.957    
  13.898      13.605      13.190      12.832      12.691      12.832      13.190      13.605      13.898      13.957    
  13.780      13.419      12.929      12.367      11.782      11.210      10.671      10.174      9.7285      9.3463    
  9.0462      8.8523      8.7849      8.8523      9.0462      9.3462      9.7285      10.174      9.4125      10.044    
  10.729      11.437      12.122      12.724      13.183      13.444      13.461      13.275      13.014      12.832    
  12.832      13.014      13.275      13.461      13.444      13.183      12.724      12.122      11.437      10.729    
  10.044      9.4125      8.8492      8.3618      7.9548      7.6347      7.4115      7.2961      7.2961      7.4115    
  7.6347      7.9548      8.3618      8.8493      8.3936      9.1173      9.9070      10.726      11.520      12.227    
  12.791      13.157      13.300      13.275      13.190      13.148      13.190      13.275      13.300      13.157    
  12.791      12.227      11.520      10.726      9.9070      9.1174      8.3936      7.7560      7.2126      6.7645    
  6.4115      6.1549      5.9983      5.9455      5.9983      6.1549      6.4115      6.7645      7.2126      7.7560    
  7.6198      8.4328      9.3216      10.245      11.147      11.967      12.653      13.157      13.461      13.605    
  13.653      13.653      13.605      13.461      13.157      12.653      11.967      11.147      10.245      9.3216    
  8.4328      7.6198      6.9068      6.3025      5.8063      5.4136      5.1202      4.9243      4.8260      4.8260    
  4.9243      5.1202      5.4136      5.8063      6.3025      6.9067      7.0822      7.9841      8.9719      10.002    
  11.020      11.967      12.791      13.444      13.898      14.157      14.240      14.157      13.898      13.444    
  12.791      11.967      11.020      10.002      8.9718      7.9841      7.0822      6.2925      5.6248      5.0772    
  4.6418      4.3103      4.0764      3.9369      3.8905      3.9369      4.0764      4.3103      4.6418      5.0771    
  5.6248      6.2925      6.7671      7.7625      8.8556      10.002      11.147      12.227      13.183      13.957    
  14.497      14.772      14.772      14.497      13.957      13.183      12.227      11.147      10.002      8.8556    
  7.7625      6.7671      5.8965      5.1611      4.5580      4.0770      3.7060      3.4350      3.2572      3.1690    
  3.1690      3.2572      3.4350      3.7060      4.0769      4.5580      5.1611      5.8965      6.6634      7.7625    
  8.9718      10.245      11.520      12.724      13.780      14.607      15.137      15.319      15.137      14.607    
  13.780      12.724      11.520      10.245      8.9718      7.7625      6.6634      5.7031      4.8920      4.2266    
  3.6946      3.2809      2.9718      2.7572      2.6307      2.5888      2.6306      2.7572      2.9718      3.2809    
  3.6946      4.2266      4.8920      5.7030      6.7671      7.9841      9.3216      10.726      12.122      13.419    
  14.517      15.319      15.742      15.742      15.319      14.517      13.419      12.122      10.726      9.3216    
  7.9841      6.7671      5.7031      4.8040      4.0656      3.4740      3.0112      2.6605      2.4081      2.2446    
  2.1642      2.1642      2.2446      2.4081      2.6605      3.0113      3.4740      4.0656      4.8039      5.7030    
  7.0822      8.4328      9.9070      11.437      12.929      14.270      15.342      16.037      16.278      16.037    
  15.342      14.270      12.929      11.437      9.9070      8.4328      7.0822      5.8965      4.8920      4.0656    
  3.4020      2.8806      2.4814      2.1874      1.9859      1.8684      1.8297      1.8684      1.9859      2.1874    
  2.4814      2.8806      3.4019      4.0656      4.8920      5.8965      7.6198      9.1173      10.729      12.367    
  13.914      15.241      16.215      16.732      16.732      16.215      15.241      13.914      12.367      10.729    
  9.1174      7.6198      6.2925      5.1611      4.2266      3.4740      2.8806      2.4229      2.0805      1.8373    
  1.6816      1.6056      1.6056      1.6816      1.8373      2.0805      2.4229      2.8806      3.4740      4.2266    
  5.1611      6.2925      8.3936      10.044      11.782      13.496      15.050      16.296      17.106      17.387    
  17.106      16.296      15.050      13.496      11.782      10.044      8.3936      6.9068      5.6248      4.5580    
  3.6946      3.0112      2.4814      2.0805      1.7889      1.5912      1.4769      1.4395      1.4769      1.5912    
  1.7888      2.0805      2.4814      3.0113      3.6946      4.5580      5.6248      6.9067      9.4125      11.210    
  13.049      14.796      16.296      17.401      17.988      17.988      17.401      16.296      14.796      13.049    
  11.210      9.4125      7.7560      6.3025      5.0772      4.0770      3.2809      2.6605      2.1874      1.8373    
  1.5912      1.4350      1.3592      1.3592      1.4350      1.5912      1.8373      2.1874      2.6605      3.2809    
  4.0769      5.0771      6.3025      7.7560      10.671      12.592      14.491      16.215      17.603      18.506    
  18.819      18.506      17.603      16.215      14.491      12.592      10.671      8.8492      7.2126      5.8063    
  4.6418      3.7060      2.9718      2.4081      1.9859      1.6816      1.4769      1.3592      1.3209      1.3592    
  1.4769      1.6816      1.9859      2.4081      2.9718      3.7060      4.6418      5.8063      7.2126      8.8493    
  12.133      14.134      16.037      17.678      18.892      19.538      19.538      18.892      17.678      16.037    
  14.134      12.133      10.174      8.3618      6.7645      5.4136      4.3103      3.4350      2.7572      2.2446    
  1.8684      1.6056      1.4395      1.3592      1.3592      1.4395      1.6056      1.8684      2.2446      2.7572    
  3.4350      4.3103      5.4136      6.7645      8.3618      10.174      13.724      15.742      17.583      19.073    
  20.045      20.383      20.045      19.073      17.582      15.742      13.724      11.680      9.7285      7.9548    
  6.4115      5.1202      4.0764      3.2572      2.6307      2.1642      1.8297      1.6056      1.4769      1.4350    
  1.4769      1.6056      1.8297      2.1642      2.6306      3.2572      4.0764      5.1202      6.4115      7.9548    
  9.7285      11.680      15.319      17.255      18.903      20.107      20.743      20.743      20.107      18.903    
  17.255      15.319      13.269      11.247      9.3463      7.6347      6.1549      4.9243      3.9369      3.1690    
  2.5888      2.1642      1.8684      1.6816      1.5912      1.5912      1.6816      1.8684      2.1642      2.5888    
  3.1690      3.9369      4.9243      6.1549      7.6347      9.3462      11.247      13.269      16.626      18.223    
  19.456      20.236      20.504      20.236      19.456      18.223      16.626      14.772      12.799      10.861    
  9.0462      7.4115      5.9983      4.8260      3.8905      3.1690      2.6306      2.2446      1.9859      1.8373    
  1.7888      1.8373      1.9859      2.2446      2.6306      3.1690      3.8905      4.8260      5.9983      7.4115    
  9.0462      10.861      12.800      14.772      17.037      18.007      18.653      18.976      18.976      18.653    
  18.007      17.037      15.743      14.157      12.375      10.565      8.8523      7.2961      5.9455      4.8260    
  3.9369      3.2572      2.7572      2.4081      2.1874      2.0805      2.0805      2.1874      2.4081      2.7572    
  3.2572      3.9369      4.8260      5.9455      7.2961      8.8523      10.566      12.375      14.157      15.743    
  15.959      16.103      16.129      16.127      16.129      16.103      15.959      15.565      14.797      13.605    
  12.071      10.403      8.7849      7.2961      5.9983      4.9243      4.0764      3.4350      2.9718      2.6605    
  2.4814      2.4229      2.4814      2.6605      2.9718      3.4350      4.0764      4.9243      5.9983      7.2961    
  8.7849      10.403      12.071      13.605      14.797      15.565      13.076      12.373      11.948      11.948    
  12.373      13.076      13.791      14.205      14.063      13.275      11.960      10.403      8.8523      7.4115    
  6.1549      5.1202      4.3103      3.7060      3.2809      3.0113      2.8806      2.8806      3.0113      3.2809    
  3.7060      4.3103      5.1202      6.1549      7.4115      8.8523      10.403      11.960      13.275      14.063    
  14.205      13.791      8.5390      7.2086      6.7213      7.2086      8.5390      10.348      12.129      13.386    
  13.787      13.275      12.071      10.566      9.0462      7.6347      6.4115      5.4136      4.6418      4.0769    
  3.6946      3.4740      3.4019      3.4740      3.6946      4.0769      4.6418      5.4136      6.4115      7.6347    
  9.0462      10.566      12.071      13.275      13.787      13.386      12.129      10.348      3.0442      1.5475    
  1.5475      3.0442      5.6561      8.7249      11.505      13.386      14.063      13.605      12.375      10.861    
  9.3462      7.9548      6.7645      5.8063      5.0771      4.5580      4.2266      4.0656      4.0656      4.2266    
  4.5580      5.0771      5.8063      6.7645      7.9548      9.3462      10.861      12.375      13.605      14.063    
  13.386      11.505      8.7249      5.6561     -2.2736     -3.3206     -2.2737     0.60037      4.5833      8.7249    
  12.129      14.205      14.797      14.157      12.800      11.247      9.7285      8.3618      7.2126      6.3025    
  5.6248      5.1611      4.8920      4.8039      4.8920      5.1611      5.6248      6.3025      7.2126      8.3618    
  9.7285      11.247      12.800      14.157      14.797      14.205      12.129      8.7249      4.5833     0.60045    
 -6.1420     -6.1420     -3.6836     0.60037      5.6560      10.348      13.791      15.565      15.743      14.772    
  13.269      11.680      10.174      8.8493      7.7560      6.9067      6.2925      5.8965      5.7030      5.7030    
  5.8965      6.2925      6.9067      7.7560      8.8493      10.174      11.680      13.269      14.772      15.743    
  15.565      13.791      10.348      5.6561     0.60045     -3.6835     -6.1420     -3.3205      1.5476      7.2086    
  12.373      16.103      18.007      18.223      17.255      15.742      14.134      12.592      11.210      10.044    
  9.1173      8.4328      7.9841      7.7625      7.7625      7.9841      8.4328      9.1173      10.044      11.210    
  12.592      14.134      15.742      17.255      18.223      18.007      16.103      12.373      7.2086      1.5475    
 -3.3206     -6.1420     -3.3205     0.68643      6.1168      11.615      16.035      18.739      19.654      19.154    
  17.839      16.278      14.712      13.250      11.963      10.892      10.055      9.4587      9.1022      8.9837    
  9.1022      9.4587      10.055      10.892      11.963      13.250      14.712      16.278      17.839      19.154    
  19.654      18.739      16.035      11.615      6.1167     0.68630     -3.3206     -4.7985      1.5476      6.1168    
  11.332      15.962      19.171      20.670      20.663      19.657      18.235      16.732      15.270      13.927    
  12.757      11.791      11.052      10.551      10.298      10.298      10.551      11.052      11.791      12.757    
  13.927      15.270      16.732      18.235      19.657      20.664      20.670      19.171      15.962      11.332    
  6.1167      1.5475     -1.1305     -1.1305      7.2086      11.615      15.962      19.314      21.199      21.638    
  21.003      19.819      18.474      17.106      15.795      14.595      13.549      12.690      12.047      11.648    
  11.513      11.648      12.047      12.690      13.549      14.595      15.795      17.106      18.474      19.819    
  21.003      21.638      21.199      19.314      15.962      11.615      7.2086      3.9060      2.6785      3.9059    
  12.373      16.035      19.171      21.199      21.976      21.720      20.855      19.761      18.585      17.401    
  16.262      15.209      14.279      13.516      12.968      12.680      12.680      12.968      13.516      14.279    
  15.209      16.262      17.401      18.585      19.761      20.855      21.720      21.976      21.199      19.171    
  16.035      12.373      9.0960      7.1532      7.1532      9.0960      16.103      18.739      20.670      21.638    
  21.720      21.216      20.447      19.547      18.585      17.603      16.631      15.704      14.868      14.187    
  13.734      13.573      13.734      14.187      14.868      15.704      16.631      17.603      18.585      19.547    
  20.447      21.216      21.720      21.638      20.670      18.739      16.103      13.356      11.264      10.481    
  11.264      13.356      18.007      19.654      20.663      21.003      20.855      20.447      19.881      19.214    
  18.474      17.678      16.843      16.005      15.220      14.588      14.230      14.230      14.588      15.220    
  16.005      16.843      17.678      18.474      19.214      19.881      20.447      20.855      21.003      20.664    
  19.654      18.007      16.021      14.211      13.127      13.127      14.211      16.021      18.223      19.154    
  19.657      19.819      19.761      19.547      19.214      18.777      18.235      17.583      16.826      15.992    
  15.197      14.612      14.396      14.612      15.197      15.992      16.825      17.582      18.235      18.777    
  19.214      19.547      19.761      19.819      19.657      19.154      18.223      16.954      15.619      14.594    
  14.209      14.594      15.619      16.954      17.255      17.839      18.235      18.474      18.585      18.585    
  18.474      18.235      17.839      17.255      16.467      15.570      14.768      14.290      14.290      14.768    
  15.570      16.467      17.255      17.839      18.235      18.474      18.585      18.585      18.474      18.235    
  17.839      17.255      16.467      15.570      14.768      14.290      14.290      14.768      15.570      16.467    
  15.742      16.278      16.732      17.106      17.401      17.603      17.678      17.583      17.255      16.626    
  15.743      14.797      14.063      13.787      14.063      14.797      15.743      16.626      17.255      17.583    
  17.678      17.603      17.401      17.106      16.732      16.278      15.742      15.137      14.497      13.898    
  13.461      13.300      13.461      13.898      14.497      15.137      14.134      14.712      15.270      15.795    
  16.262      16.631      16.843      16.826      16.467      15.743      14.794      13.893      13.343      13.343    
  13.893      14.794      15.743      16.467      16.825      16.843      16.631      16.262      15.795      15.270    
  14.712      14.134      13.548      12.977      12.462      12.065      11.845      11.845      12.065      12.463    
  12.977      13.548      12.592      13.250      13.927      14.595      15.209      15.704      16.005      15.992    
  15.570      14.797      13.893      13.167      12.890      13.167      13.893      14.797      15.570      15.992    
  16.005      15.704      15.209      14.595      13.927      13.250      12.592      11.971      11.401      10.905    
  10.511      10.254      10.165      10.254      10.511      10.905      11.401      11.971      11.210      11.963    
  12.757      13.549      14.279      14.868      15.220      15.197      14.768      14.063      13.343      12.890    
  12.890      13.343      14.063      14.768      15.197      15.220      14.868      14.279      13.549      12.757    
  11.963      11.210      10.524      9.9188      9.4064      8.9992      8.7132      8.5649      8.5649      8.7132    
  8.9992      9.4064      9.9188      10.524      10.044      10.892      11.791      12.690      13.516      14.187    
  14.588      14.612      14.290      13.787      13.343      13.167      13.343      13.787      14.290      14.612    
  14.588      14.187      13.516      12.690      11.791      10.892      10.044      9.2819      8.6217      8.0712    
  7.6343      7.3154      7.1202      7.0544      7.1202      7.3153      7.6343      8.0712      8.6217      9.2819    
  9.1173      10.055      11.052      12.047      12.968      13.734      14.230      14.396      14.290      14.063    
  13.893      13.893      14.063      14.290      14.396      14.230      13.734      12.968      12.047      11.052    
  10.055      9.1174      8.2774      7.5548      6.9557      6.4793      6.1227      5.8845      5.7651      5.7651    
  5.8845      6.1227      6.4793      6.9558      7.5548      8.2774      8.4328      9.4587      10.551      11.648    
  12.680      13.573      14.230      14.612      14.768      14.797      14.794      14.797      14.768      14.612    
  14.230      13.573      12.680      11.648      10.551      9.4587      8.4328      7.5153      6.7279      6.0761    
  5.5557      5.1592      4.8798      4.7134      4.6581      4.7134      4.8798      5.1592      5.5557      6.0761    
  6.7279      7.5153      7.9841      9.1022      10.298      11.513      12.680      13.734      14.588      15.197    
  15.570      15.743      15.743      15.570      15.197      14.588      13.734      12.680      11.513      10.298    
  9.1022      7.9841      6.9860      6.1306      5.4228      4.8560      4.4185      4.0994      3.8905      3.7870    
  3.7870      3.8905      4.0994      4.4185      4.8559      5.4228      6.1306      6.9860      7.7625      8.9837    
  10.298      11.648      12.968      14.187      15.220      15.992      16.467      16.626      16.467      15.992    
  15.220      14.187      12.968      11.648      10.298      8.9837      7.7625      6.6758      5.7458      4.9763    
  4.3588      3.8782      3.5196      3.2710      3.1246      3.0762      3.1246      3.2710      3.5196      3.8782    
  4.3588      4.9764      5.7458      6.6758      7.7625      9.1022      10.551      12.047      13.516      14.868    
  16.005      16.825      17.255      17.255      16.825      16.005      14.868      13.516      12.047      10.551    
  9.1022      7.7625      6.5739      5.5579      4.7174      4.0417      3.5130      3.1126      2.8248      2.6385    
  2.5468      2.5468      2.6385      2.8248      3.1126      3.5130      4.0418      4.7174      5.5578      6.5738    
  7.9841      9.4587      11.052      12.690      14.279      15.704      16.843      17.582      17.839      17.583    
  16.843      15.704      14.279      12.690      11.052      9.4587      7.9841      6.6758      5.5579      4.6327    
  3.8878      3.3025      2.8547      2.5252      2.2994      2.1676      2.1242      2.1676      2.2994      2.5252    
  2.8547      3.3025      3.8878      4.6327      5.5578      6.6759      8.4328      10.055      11.791      13.549    
  15.209      16.631      17.678      18.235      18.235      17.678      16.631      15.209      13.549      11.791    
  10.055      8.4328      6.9860      5.7458      4.7174      3.8878      3.2337      2.7298      2.3530      2.0853    
  1.9136      1.8297      1.8297      1.9136      2.0853      2.3530      2.7298      3.2337      3.8878      4.7174    
  5.7458      6.9860      9.1173      10.892      12.757      14.595      16.262      17.603      18.474      18.777    
  18.474      17.603      16.262      14.595      12.757      10.892      9.1174      7.5153      6.1306      4.9763    
  4.0417      3.3025      2.7298      2.2968      1.9816      1.7677      1.6438      1.6032      1.6438      1.7677    
  1.9816      2.2968      2.7298      3.3025      4.0418      4.9764      6.1306      7.5153      10.044      11.963    
  13.927      15.795      17.401      18.585      19.214      19.214      18.585      17.401      15.795      13.927    
  11.963      10.044      8.2774      6.7279      5.4228      4.3588      3.5130      2.8547      2.3530      1.9816    
  1.7201      1.5538      1.4731      1.4731      1.5538      1.7201      1.9816      2.3530      2.8547      3.5130    
  4.3588      5.4228      6.7279      8.2774      11.210      13.250      15.270      17.106      18.585      19.547    
  19.881      19.547      18.585      17.106      15.270      13.250      11.210      9.2819      7.5548      6.0761    
  4.8560      3.8782      3.1126      2.5252      2.0853      1.7677      1.5538      1.4307      1.3906      1.4307    
  1.5538      1.7677      2.0853      2.5252      3.1126      3.8782      4.8559      6.0761      7.5548      9.2819    
  12.592      14.712      16.732      18.474      19.761      20.447      20.447      19.761      18.474      16.732    
  14.712      12.592      10.524      8.6217      6.9557      5.5557      4.4185      3.5196      2.8248      2.2994    
  1.9136      1.6438      1.4731      1.3906      1.3906      1.4731      1.6438      1.9136      2.2994      2.8248    
  3.5196      4.4185      5.5557      6.9558      8.6217      10.524      14.134      16.278      18.235      19.819    
  20.855      21.216      20.855      19.819      18.235      16.278      14.134      11.971      9.9188      8.0712    
  6.4793      5.1592      4.0994      3.2710      2.6385      2.1676      1.8297      1.6032      1.4731      1.4307    
  1.4731      1.6032      1.8297      2.1676      2.6385      3.2710      4.0994      5.1592      6.4793      8.0712    
  9.9188      11.971      15.742      17.839      19.657      21.003      21.720      21.720      21.003      19.657    
  17.839      15.742      13.548      11.401      9.4064      7.6343      6.1227      4.8798      3.8905      3.1246    
  2.5468      2.1242      1.8297      1.6438      1.5538      1.5538      1.6438      1.8297      2.1242      2.5468    
  3.1246      3.8905      4.8798      6.1227      7.6343      9.4064      11.401      13.548      17.255      19.154    
  20.664      21.638      21.976      21.638      20.664      19.154      17.255      15.137      12.977      10.905    
  8.9992      7.3154      5.8845      4.7134      3.7870      3.0762      2.5468      2.1676      1.9136      1.7677    
  1.7201      1.7677      1.9136      2.1676      2.5468      3.0762      3.7870      4.7134      5.8845      7.3153    
  8.9992      10.905      12.977      15.137      18.223      19.654      20.670      21.199      21.199      20.670    
  19.654      18.223      16.467      14.497      12.462      10.511      8.7132      7.1202      5.7651      4.6581    
  3.7870      3.1246      2.6385      2.2994      2.0853      1.9816      1.9816      2.0853      2.2994      2.6385    
  3.1246      3.7870      4.6581      5.7651      7.1202      8.7132      10.511      12.463      14.497      16.467    
  18.007      18.739      19.171      19.314      19.171      18.739      18.007      16.954      15.570      13.898    
  12.065      10.254      8.5649      7.0544      5.7651      4.7134      3.8905      3.2710      2.8248      2.5252    
  2.3530      2.2968      2.3530      2.5252      2.8248      3.2710      3.8905      4.7134      5.7651      7.0544    
  8.5649      10.254      12.065      13.898      15.570      16.954      16.103      16.035      15.962      15.962    
  16.035      16.103      16.021      15.619      14.768      13.461      11.845      10.165      8.5649      7.1202    
  5.8845      4.8798      4.0994      3.5196      3.1126      2.8547      2.7298      2.7298      2.8547      3.1126    
  3.5196      4.0994      4.8798      5.8845      7.1202      8.5649      10.165      11.845      13.461      14.768    
  15.619      16.021      12.373      11.615      11.332      11.615      12.373      13.356      14.211      14.594    
  14.290      13.300      11.845      10.254      8.7132      7.3153      6.1227      5.1592      4.4185      3.8782    
  3.5130      3.3025      3.2337      3.3025      3.5130      3.8782      4.4185      5.1592      6.1227      7.3153    
  8.7132      10.254      11.845      13.300      14.290      14.594      14.211      13.356      7.2086      6.1167    