Si                                      
   1.00000000000000     
     3.348998    0.000000    1.933545
     1.116333    3.157466    1.933545
     0.000000    0.000000    3.867090
   Si
     2
Direct
  0.000000  0.000000  0.000000
  0.250000  0.250000  0.250000
 
   36   36   36
 -.75582800221E+01 -.61419808960E+01 -.22736450186E+01 0.30441636351E+01 0.85389815848E+01
 0.13076015482E+02 0.15958895988E+02 0.17036595149E+02 0.16625981327E+02 0.15318877361E+02
 0.13724305125E+02 0.12133276355E+02 0.10670655476E+02 0.94125413424E+01 0.83935567911E+01
 0.76198192303E+01 0.70822321842E+01 0.67670874735E+01 0.66634040777E+01 0.67670869083E+01
 0.70822329756E+01 0.76198230452E+01 0.83935617706E+01 0.94125434703E+01 0.10670655817E+02
 0.12133282170E+02 0.13724316895E+02 0.15318878801E+02 0.16625954832E+02 0.17036550075E+02
 0.15958869486E+02 0.13076035208E+02 0.85390329044E+01 0.30442043526E+01 -.22736383683E+01
 -.61419917208E+01 -.61419808960E+01 -.33204874853E+01 0.15475751334E+01 0.72086061500E+01
 0.12373018202E+02 0.16102820061E+02 0.18006820033E+02 0.18223234041E+02 0.17254927854E+02
 0.15741991466E+02 0.14134290244E+02 0.12591957082E+02 0.11210402392E+02 0.10044357679E+02
 0.91173457413E+01 0.84327916169E+01 0.79840831245E+01 0.77625119529E+01 0.77625104508E+01
 0.79840796757E+01 0.84327898763E+01 0.91173488988E+01 0.10044362313E+02 0.11210402200E+02
 0.12591955812E+02 0.14134299992E+02 0.15742010347E+02 0.17254932449E+02 0.18223210881E+02
 0.18006796198E+02 0.16102836972E+02 0.12373069797E+02 0.72086282189E+01 0.15475174764E+01
 -.33205892932E+01 -.61420318443E+01 -.22736450186E+01 0.15475751334E+01 0.67213012813E+01
 0.11947970403E+02 0.16128983948E+02 0.18652721776E+02 0.19455576894E+02 0.18903185889E+02
 0.17582511798E+02 0.16037119360E+02 0.14490532521E+02 0.13049299550E+02 0.11782398429E+02
 0.10728967610E+02 0.99070207271E+01 0.93216317809E+01 0.89718515761E+01 0.88555589174E+01
 0.89718471227E+01 0.93216250853E+01 0.99070179049E+01 0.10728971958E+02 0.11782402945E+02
 0.13049296116E+02 0.14490527479E+02 0.16037126695E+02 0.17582529112E+02 0.18903193376E+02
 0.19455568037E+02 0.18652718605E+02 0.16129004742E+02 0.11947992082E+02 0.67212783769E+01
 0.15475013961E+01 -.22737135985E+01 -.36836174616E+01 0.30441636351E+01 0.72086061500E+01
 0.11947970403E+02 0.16127465071E+02 0.18976446707E+02 0.20236266013E+02 0.20106871112E+02
 0.19072655197E+02 0.17678317307E+02 0.16214934191E+02 0.14795643252E+02 0.13496410573E+02
 0.12366566726E+02 0.11436760669E+02 0.10725611284E+02 0.10244851460E+02 0.10002308190E+02
 0.10002304879E+02 0.10244842660E+02 0.10725602703E+02 0.11436760943E+02 0.12366576487E+02
 0.13496418616E+02 0.14795640979E+02 0.16214928679E+02 0.17678320984E+02 0.19072666094E+02
 0.20106873915E+02 0.20236252951E+02 0.18976428293E+02 0.16127457386E+02 0.11947978105E+02
 0.72086212485E+01 0.30441760145E+01 0.60037202841E+00 0.60036753667E+00 0.85389815848E+01
 0.12373018202E+02 0.16128983948E+02 0.18976446707E+02 0.20504089590E+02 0.20743218810E+02
 0.20045276103E+02 0.18891671943E+02 0.17602649036E+02 0.16296444005E+02 0.15049569742E+02
 0.13914444881E+02 0.12928591114E+02 0.12121651954E+02 0.11519805636E+02 0.11146662236E+02
 0.11020015976E+02 0.11146651481E+02 0.11519789303E+02 0.12121641074E+02 0.12928594749E+02
 0.13914459380E+02 0.15049582214E+02 0.16296448296E+02 0.17602651860E+02 0.18891680546E+02
 0.20045285596E+02 0.20743216127E+02 0.20504068218E+02 0.18976416139E+02 0.16128965555E+02
 0.12373028941E+02 0.85390163456E+01 0.56560595408E+01 0.45833013899E+01 0.56560285981E+01
 0.13076015482E+02 0.16102820061E+02 0.18652721776E+02 0.20236266013E+02 0.20743218810E+02
 0.20383475357E+02 0.19538279458E+02 0.18505675165E+02 0.17401072438E+02 0.16296443459E+02
 0.15240607224E+02 0.14270186940E+02 0.13419001000E+02 0.12724237256E+02 0.12227191916E+02
 0.11966576535E+02 0.11966568885E+02 0.12227171119E+02 0.12724212287E+02 0.13418986073E+02
 0.14270189170E+02 0.15240619252E+02 0.16296454407E+02 0.17401081925E+02 0.18505689747E+02
 0.19538299162E+02 0.20383491796E+02 0.20743224865E+02 0.20236260166E+02 0.18652703795E+02
 0.16102789862E+02 0.13075978371E+02 0.10347576923E+02 0.87248767765E+01 0.87248891551E+01
 0.10347608379E+02 0.15958895988E+02 0.18006820033E+02 0.19455576894E+02 0.20106871112E+02
 0.20045276103E+02 0.19538279458E+02 0.18819327196E+02 0.17987636662E+02 0.17106139995E+02
 0.16214933120E+02 0.15342398134E+02 0.14517409476E+02 0.13779593018E+02 0.13183365047E+02
 0.12790561439E+02 0.12652634386E+02 0.12790550747E+02 0.13183341304E+02 0.13779564367E+02
 0.14517392143E+02 0.15342397123E+02 0.16214937599E+02 0.17106142133E+02 0.17987642801E+02
 0.18819344259E+02 0.19538302084E+02 0.20045296068E+02 0.20106888983E+02 0.19455591763E+02
 0.18006814853E+02 0.15958850931E+02 0.13791257070E+02 0.12129074336E+02 0.11505149798E+02
 0.12129134165E+02 0.13791332337E+02 0.17036595149E+02 0.18223234041E+02 0.18903185889E+02
 0.19072655197E+02 0.18891671943E+02 0.18505675165E+02 0.17987636662E+02 0.17387037768E+02
 0.16731833023E+02 0.16037118545E+02 0.15318550770E+02 0.14607139936E+02 0.13957406750E+02
 0.13444435668E+02 0.13157104309E+02 0.13157108679E+02 0.13444436511E+02 0.13957388649E+02
 0.14607112429E+02 0.15318536189E+02 0.16037120153E+02 0.16731834778E+02 0.17387032443E+02
 0.17987634810E+02 0.18505684262E+02 0.18891684127E+02 0.19072662273E+02 0.18903192436E+02
 0.18223245648E+02 0.17036603436E+02 0.15565229668E+02 0.14205192579E+02 0.13385585792E+02
 0.13385596273E+02 0.14205212000E+02 0.15565237395E+02 0.16625981327E+02 0.17254927854E+02
 0.17582511798E+02 0.17678317307E+02 0.17602649036E+02 0.17401072438E+02 0.17106139995E+02
 0.16731833023E+02 0.16277923965E+02 0.15741990891E+02 0.15136664764E+02 0.14496884401E+02
 0.13897895600E+02 0.13461233493E+02 0.13300302216E+02 0.13461259610E+02 0.13897910775E+02
 0.14496866678E+02 0.15136635207E+02 0.15741980747E+02 0.16277934086E+02 0.16731841453E+02
 0.17106137156E+02 0.17401069638E+02 0.17602654608E+02 0.17678320982E+02 0.17582499507E+02
 0.17254904956E+02 0.16625973261E+02 0.15742694929E+02 0.14796647381E+02 0.14063387337E+02
 0.13786558233E+02 0.14063343469E+02 0.14796593378E+02 0.15742667463E+02 0.15318877361E+02
 0.15741991466E+02 0.16037119360E+02 0.16214934191E+02 0.16296444005E+02 0.16296443459E+02
 0.16214933120E+02 0.16037118545E+02 0.15741990891E+02 0.15318876897E+02 0.14772268456E+02
 0.14156557005E+02 0.13604641839E+02 0.13275134447E+02 0.13275159334E+02 0.13604687404E+02
 0.14156571826E+02 0.14772239381E+02 0.15318838466E+02 0.15741979216E+02 0.16037133211E+02
 0.16214949252E+02 0.16296448272E+02 0.16296448518E+02 0.16214949561E+02 0.16037133158E+02
 0.15741979222E+02 0.15318838924E+02 0.14772239788E+02 0.14156571639E+02 0.13604686933E+02
 0.13275158943E+02 0.13275133755E+02 0.13604640609E+02 0.14156555957E+02 0.14772268303E+02
 0.13724305125E+02 0.14134290244E+02 0.14490532521E+02 0.14795643252E+02 0.15049569742E+02
 0.15240607224E+02 0.15342398134E+02 0.15318550770E+02 0.15136664764E+02 0.14772268456E+02
 0.14239608868E+02 0.13652662002E+02 0.13190083949E+02 0.13014144754E+02 0.13190131851E+02
 0.13652712152E+02 0.14239616057E+02 0.14772230268E+02 0.15136617980E+02 0.15318531012E+02
 0.15342407522E+02 0.15240621670E+02 0.15049573504E+02 0.14795648047E+02 0.14490556638E+02
 0.14134325241E+02 0.13724318527E+02 0.13268663829E+02 0.12799477806E+02 0.12375176566E+02
 0.12071293032E+02 0.11960016644E+02 0.12071301555E+02 0.12375205598E+02 0.12799520698E+02
 0.13268688969E+02 0.12133276355E+02 0.12591957082E+02 0.13049299550E+02 0.13496410573E+02
 0.13914444881E+02 0.14270186940E+02 0.14517409476E+02 0.14607139936E+02 0.14496884401E+02
 0.14156557005E+02 0.13652662002E+02 0.13147841526E+02 0.12832056114E+02 0.12832080301E+02
 0.13147897243E+02 0.13652710667E+02 0.14156566170E+02 0.14496851936E+02 0.14607094792E+02
 0.14517385068E+02 0.14270189701E+02 0.13914451963E+02 0.13496402168E+02 0.13049286991E+02
 0.12591968546E+02 0.12133317007E+02 0.11680147851E+02 0.11246613561E+02 0.10861129016E+02
 0.10565472260E+02 0.10403436263E+02 0.10403454553E+02 0.10565513954E+02 0.10861161783E+02
 0.11246608915E+02 0.11680108247E+02 0.10670655476E+02 0.11210402392E+02 0.11782398429E+02
 0.12366566726E+02 0.12928591114E+02 0.13419001000E+02 0.13779593018E+02 0.13957406750E+02
 0.13897895600E+02 0.13604641839E+02 0.13190083949E+02 0.12832056114E+02 0.12691254088E+02
 0.12832086406E+02 0.13190132355E+02 0.13604685625E+02 0.13897911300E+02 0.13957387892E+02
 0.13779559451E+02 0.13418982789E+02 0.12928597467E+02 0.12366575682E+02 0.11782384263E+02
 0.11210369679E+02 0.10670636336E+02 0.10173971304E+02 0.97285274142E+01 0.93462505450E+01
 0.90462294423E+01 0.88522711918E+01 0.87849003542E+01 0.88522786979E+01 0.90462246176E+01
 0.93462205115E+01 0.97284879396E+01 0.10173954586E+02 0.94125413424E+01 0.10044357679E+02
 0.10728967610E+02 0.11436760669E+02 0.12121651954E+02 0.12724237256E+02 0.13183365047E+02
 0.13444435668E+02 0.13461233493E+02 0.13275134447E+02 0.13014144754E+02 0.12832080301E+02
 0.12832086406E+02 0.13014163212E+02 0.13275162787E+02 0.13461261736E+02 0.13444448326E+02
 0.13183354105E+02 0.12724214566E+02 0.12121642352E+02 0.11436776458E+02 0.10728992055E+02
 0.10044360536E+02 0.94125118021E+01 0.88492354580E+01 0.83618060081E+01 0.79548178134E+01
 0.76347452226E+01 0.74114993261E+01 0.72961417491E+01 0.72961304221E+01 0.74114698198E+01
 0.76347126398E+01 0.79548047386E+01 0.83618259765E+01 0.88492760949E+01 0.83935567911E+01
 0.91173457413E+01 0.99070207271E+01 0.10725611284E+02 0.11519805636E+02 0.12227191916E+02
 0.12790561439E+02 0.13157104309E+02 0.13300302216E+02 0.13275159334E+02 0.13190131851E+02
 0.13147897243E+02 0.13190132355E+02 0.13275162787E+02 0.13300310666E+02 0.13157114975E+02
 0.12790565445E+02 0.12227181181E+02 0.11519784260E+02 0.10725597910E+02 0.99070334537E+01
 0.91173814518E+01 0.83935886381E+01 0.77560106901E+01 0.72125726704E+01 0.67645028968E+01
 0.64114972789E+01 0.61549136218E+01 0.59982869432E+01 0.59455065091E+01 0.59982705367E+01
 0.61549030312E+01 0.64115133758E+01 0.67645413792E+01 0.72126049105E+01 0.77560101977E+01
 0.76198192303E+01 0.84327916169E+01 0.93216317809E+01 0.10244851460E+02 0.11146662236E+02
 0.11966576535E+02 0.12652634386E+02 0.13157108679E+02 0.13461259610E+02 0.13604687404E+02
 0.13652712152E+02 0.13652710667E+02 0.13604685625E+02 0.13461261736E+02 0.13157114975E+02
 0.12652641248E+02 0.11966578784E+02 0.11146653667E+02 0.10244828928E+02 0.93216043826E+01
 0.84327810010E+01 0.76198408161E+01 0.69067710269E+01 0.63024833971E+01 0.58062672545E+01
 0.54135679243E+01 0.51202170370E+01 0.49243278478E+01 0.48260339164E+01 0.48260359584E+01
 0.49243394998E+01 0.51202428019E+01 0.54135940145E+01 0.58062687036E+01 0.63024519071E+01
 0.69067285202E+01 0.70822321842E+01 0.79840831245E+01 0.89718515761E+01 0.10002308190E+02
 0.11020015976E+02 0.11966568885E+02 0.12790550747E+02 0.13444436511E+02 0.13897910775E+02
 0.14156571826E+02 0.14239616057E+02 0.14156566170E+02 0.13897911300E+02 0.13444448326E+02
 0.12790565445E+02 0.11966578784E+02 0.11020023062E+02 0.10002312574E+02 0.89718423647E+01
 0.79840530102E+01 0.70821962593E+01 0.62925137252E+01 0.56248351250E+01 0.50771855166E+01
 0.46418145885E+01 0.43102940132E+01 0.40764212068E+01 0.39368802115E+01 0.38904518880E+01
 0.39368927400E+01 0.40764358580E+01 0.43102939751E+01 0.46417900924E+01 0.50771484442E+01
 0.56248140524E+01 0.62925269837E+01 0.67670874735E+01 0.77625119529E+01 0.88555589174E+01
 0.10002304879E+02 0.11146651481E+02 0.12227171119E+02 0.13183341304E+02 0.13957388649E+02
 0.14496866678E+02 0.14772239381E+02 0.14772230268E+02 0.14496851936E+02 0.13957387892E+02
 0.13183354105E+02 0.12227181181E+02 0.11146653667E+02 0.10002312574E+02 0.88555803176E+01
 0.77625312586E+01 0.67670803071E+01 0.58964822311E+01 0.51610654870E+01 0.45579682860E+01
 0.40769553245E+01 0.37059935841E+01 0.34349799325E+01 0.32571906207E+01 0.31690192362E+01
 0.31690215776E+01 0.32571903602E+01 0.34349654203E+01 0.37059674632E+01 0.40769385661E+01
 0.45579812109E+01 0.51611041972E+01 0.58965181809E+01 0.66634040777E+01 0.77625104508E+01
 0.89718471227E+01 0.10244842660E+02 0.11519789303E+02 0.12724212287E+02 0.13779564367E+02
 0.14607112429E+02 0.15136635207E+02 0.15318838466E+02 0.15136617980E+02 0.14607094792E+02
 0.13779559451E+02 0.12724214566E+02 0.11519784260E+02 0.10244828928E+02 0.89718423647E+01
 0.77625312586E+01 0.66634426719E+01 0.57030613920E+01 0.48919958848E+01 0.42265793569E+01
 0.36945611061E+01 0.32808637621E+01 0.29718104618E+01 0.27572134743E+01 0.26306535076E+01
 0.25888011314E+01 0.26306484622E+01 0.27572021364E+01 0.29718007885E+01 0.32808717411E+01
 0.36945914155E+01 0.42266122921E+01 0.48920027666E+01 0.57030344032E+01 0.67670869083E+01
 0.79840796757E+01 0.93216250853E+01 0.10725602703E+02 0.12121641074E+02 0.13418986073E+02
 0.14517392143E+02 0.15318536189E+02 0.15741980747E+02 0.15741979216E+02 0.15318531012E+02
 0.14517385068E+02 0.13418982789E+02 0.12121642352E+02 0.10725597910E+02 0.93216043826E+01
 0.79840530102E+01 0.67670803071E+01 0.57030613920E+01 0.48039514902E+01 0.40656071472E+01
 0.34739705799E+01 0.30112381368E+01 0.26604735745E+01 0.24081026450E+01 0.22446116333E+01
 0.21642094327E+01 0.21642073952E+01 0.22446085709E+01 0.24081066642E+01 0.26604907618E+01
 0.30112606527E+01 0.34739766630E+01 0.40655823463E+01 0.48039094655E+01 0.57030345904E+01
 0.70822329756E+01 0.84327898763E+01 0.99070179049E+01 0.11436760943E+02 0.12928594749E+02
 0.14270189170E+02 0.15342397123E+02 0.16037120153E+02 0.16277934086E+02 0.16037133211E+02
 0.15342407522E+02 0.14270189701E+02 0.12928597467E+02 0.11436776458E+02 0.99070334537E+01
 0.84327810010E+01 0.70821962593E+01 0.58964822311E+01 0.48919958848E+01 0.40656071472E+01
 0.34019510698E+01 0.28805889749E+01 0.24813743772E+01 0.21873962081E+01 0.19859394582E+01
 0.18683700174E+01 0.18297196560E+01 0.18683706090E+01 0.19859448985E+01 0.21874062683E+01
 0.24813782878E+01 0.28805736139E+01 0.34019188968E+01 0.40655820611E+01 0.48920029247E+01
 0.58965193504E+01 0.76198230452E+01 0.91173488988E+01 0.10728971958E+02 0.12366576487E+02
 0.13914459380E+02 0.15240619252E+02 0.16214937599E+02 0.16731834778E+02 0.16731841453E+02
 0.16214949252E+02 0.15240621670E+02 0.13914451963E+02 0.12366575682E+02 0.10728992055E+02
 0.91173814518E+01 0.76198408161E+01 0.62925137252E+01 0.51610654870E+01 0.42265793569E+01
 0.34739705799E+01 0.28805889749E+01 0.24229391882E+01 0.20805460909E+01 0.18373223818E+01
 0.16815599287E+01 0.16055886729E+01 0.16055893022E+01 0.16815619095E+01 0.18373230313E+01
 0.20805385671E+01 0.24229212653E+01 0.28805728108E+01 0.34739759140E+01 0.42266117422E+01
 0.51611045790E+01 0.62925295673E+01 0.83935617706E+01 0.10044362313E+02 0.11782402945E+02
 0.13496418616E+02 0.15049582214E+02 0.16296454407E+02 0.17106142133E+02 0.17387032443E+02
 0.17106137156E+02 0.16296448272E+02 0.15049573504E+02 0.13496402168E+02 0.11782384263E+02
 0.10044360536E+02 0.83935886381E+01 0.69067710269E+01 0.56248351250E+01 0.45579682860E+01
 0.36945611061E+01 0.30112381368E+01 0.24813743772E+01 0.20805460909E+01 0.17888509755E+01
 0.15911940278E+01 0.14769070592E+01 0.14395370436E+01 0.14769078118E+01 0.15911925132E+01
 0.17888442515E+01 0.20805378450E+01 0.24813767694E+01 0.30112598254E+01 0.36945912870E+01
 0.45579804173E+01 0.56248136705E+01 0.69067310893E+01 0.94125434703E+01 0.11210402200E+02
 0.13049296116E+02 0.14795640979E+02 0.16296448296E+02 0.17401081925E+02 0.17987642801E+02
 0.17987634810E+02 0.17401069638E+02 0.16296448518E+02 0.14795648047E+02 0.13049286991E+02
 0.11210369679E+02 0.94125118021E+01 0.77560106901E+01 0.63024833971E+01 0.50771855166E+01
 0.40769553245E+01 0.32808637621E+01 0.26604735745E+01 0.21873962081E+01 0.18373223818E+01
 0.15911940278E+01 0.14349687987E+01 0.13592456016E+01 0.13592461271E+01 0.14349689131E+01
 0.15911924710E+01 0.18373229234E+01 0.21874054281E+01 0.26604903389E+01 0.32808729405E+01
 0.40769394346E+01 0.50771470004E+01 0.63024501361E+01 0.77560109324E+01 0.10670655817E+02
 0.12591955812E+02 0.14490527479E+02 0.16214928679E+02 0.17602651860E+02 0.18505689747E+02
 0.18819344259E+02 0.18505684262E+02 0.17602654608E+02 0.16214949561E+02 0.14490556638E+02
 0.12591968546E+02 0.10670636336E+02 0.88492354580E+01 0.72125726704E+01 0.58062672545E+01
 0.46418145885E+01 0.37059935841E+01 0.29718104618E+01 0.24081026450E+01 0.19859394582E+01
 0.16815599287E+01 0.14769070592E+01 0.13592456016E+01 0.13208885387E+01 0.13592457981E+01
 0.14769072684E+01 0.16815622183E+01 0.19859454883E+01 0.24081069417E+01 0.29718019723E+01
 0.37059696226E+01 0.46417910534E+01 0.58062676234E+01 0.72126034187E+01 0.88492756923E+01
 0.12133282170E+02 0.14134299992E+02 0.16037126695E+02 0.17678320984E+02 0.18891680546E+02
 0.19538299162E+02 0.19538302084E+02 0.18891684127E+02 0.17678320982E+02 0.16037133158E+02
 0.14134325241E+02 0.12133317007E+02 0.10173971304E+02 0.83618060081E+01 0.67645028968E+01
 0.54135679243E+01 0.43102940132E+01 0.34349799325E+01 0.27572134743E+01 0.22446116333E+01
 0.18683700174E+01 0.16055886729E+01 0.14395370436E+01 0.13592461271E+01 0.13592457981E+01
 0.14395364309E+01 0.16055889473E+01 0.18683711257E+01 0.22446091017E+01 0.27572022272E+01
 0.34349654927E+01 0.43102943867E+01 0.54135949648E+01 0.67645423088E+01 0.83618259742E+01
 0.10173955538E+02 0.13724316895E+02 0.15742010347E+02 0.17582529112E+02 0.19072666094E+02
 0.20045285596E+02 0.20383491796E+02 0.20045296068E+02 0.19072662273E+02 0.17582499507E+02
 0.15741979222E+02 0.13724318527E+02 0.11680147851E+02 0.97285274142E+01 0.79548178134E+01
 0.64114972789E+01 0.51202170370E+01 0.40764212068E+01 0.32571906207E+01 0.26306535076E+01
 0.21642094327E+01 0.18297196560E+01 0.16055893022E+01 0.14769078118E+01 0.14349689131E+01
 0.14769072684E+01 0.16055889473E+01 0.18297192019E+01 0.21642068586E+01 0.26306484819E+01
 0.32571892972E+01 0.40764331199E+01 0.51202415778E+01 0.64115152302E+01 0.79548059410E+01
 0.97284867126E+01 0.11680110432E+02 0.15318878801E+02 0.17254932449E+02 0.18903193376E+02
 0.20106873915E+02 0.20743216127E+02 0.20743224865E+02 0.20106888983E+02 0.18903192436E+02
 0.17254904956E+02 0.15318838924E+02 0.13268663829E+02 0.11246613561E+02 0.93462505450E+01
 0.76347452226E+01 0.61549136218E+01 0.49243278478E+01 0.39368802115E+01 0.31690192362E+01
 0.25888011314E+01 0.21642073952E+01 0.18683706090E+01 0.16815619095E+01 0.15911925132E+01
 0.15911924710E+01 0.16815622183E+01 0.18683711257E+01 0.21642068586E+01 0.25888006981E+01
 0.31690238049E+01 0.39368913521E+01 0.49243360920E+01 0.61549041065E+01 0.76347150787E+01
 0.93462180073E+01 0.11246604614E+02 0.13268687849E+02 0.16625954832E+02 0.18223210881E+02
 0.19455568037E+02 0.20236252951E+02 0.20504068218E+02 0.20236260166E+02 0.19455591763E+02
 0.18223245648E+02 0.16625973261E+02 0.14772239788E+02 0.12799477806E+02 0.10861129016E+02
 0.90462294423E+01 0.74114993261E+01 0.59982869432E+01 0.48260339164E+01 0.38904518880E+01
 0.31690215776E+01 0.26306484622E+01 0.22446085709E+01 0.19859448985E+01 0.18373230313E+01
 0.17888442515E+01 0.18373229234E+01 0.19859454883E+01 0.22446091017E+01 0.26306484819E+01
 0.31690238049E+01 0.38904569018E+01 0.48260331469E+01 0.59982709442E+01 0.74114763630E+01
 0.90462251634E+01 0.10861157800E+02 0.12799519918E+02 0.14772258609E+02 0.17036550075E+02
 0.18006796198E+02 0.18652718605E+02 0.18976428293E+02 0.18976416139E+02 0.18652703795E+02
 0.18006814853E+02 0.17036603436E+02 0.15742694929E+02 0.14156571639E+02 0.12375176566E+02
 0.10565472260E+02 0.88522711918E+01 0.72961417491E+01 0.59455065091E+01 0.48260359584E+01
 0.39368927400E+01 0.32571903602E+01 0.27572021364E+01 0.24081066642E+01 0.21874062683E+01
 0.20805385671E+01 0.20805378450E+01 0.21874054281E+01 0.24081069417E+01 0.27572022272E+01
 0.32571892972E+01 0.39368913521E+01 0.48260331469E+01 0.59455003173E+01 0.72961387824E+01
 0.88522867042E+01 0.10565509631E+02 0.12375210474E+02 0.14156566849E+02 0.15742647082E+02
 0.15958869486E+02 0.16102836972E+02 0.16129004742E+02 0.16127457386E+02 0.16128965555E+02
 0.16102789862E+02 0.15958850931E+02 0.15565229668E+02 0.14796647381E+02 0.13604686933E+02
 0.12071293032E+02 0.10403436263E+02 0.87849003542E+01 0.72961304221E+01 0.59982705367E+01
 0.49243394998E+01 0.40764358580E+01 0.34349654203E+01 0.29718007885E+01 0.26604907618E+01
 0.24813782878E+01 0.24229212653E+01 0.24813767694E+01 0.26604903389E+01 0.29718019723E+01
 0.34349654927E+01 0.40764331199E+01 0.49243360920E+01 0.59982709442E+01 0.72961387824E+01
 0.87849167652E+01 0.10403451747E+02 0.12071291154E+02 0.13604658719E+02 0.14796606914E+02
 0.15565208248E+02 0.13076035208E+02 0.12373069797E+02 0.11947992082E+02 0.11947978105E+02
 0.12373028941E+02 0.13075978371E+02 0.13791257070E+02 0.14205192579E+02 0.14063387337E+02
 0.13275158943E+02 0.11960016644E+02 0.10403454553E+02 0.88522786979E+01 0.74114698198E+01
 0.61549030312E+01 0.51202428019E+01 0.43102939751E+01 0.37059674632E+01 0.32808717411E+01
 0.30112606527E+01 0.28805736139E+01 0.28805728108E+01 0.30112598254E+01 0.32808729405E+01
 0.37059696226E+01 0.43102943867E+01 0.51202415778E+01 0.61549041065E+01 0.74114763630E+01
 0.88522867042E+01 0.10403451747E+02 0.11959992449E+02 0.13275120029E+02 0.14063360088E+02
 0.14205202306E+02 0.13791303239E+02 0.85390329044E+01 0.72086282189E+01 0.67212783769E+01
 0.72086212485E+01 0.85390163456E+01 0.10347576923E+02 0.12129074336E+02 0.13385585792E+02
 0.13786558233E+02 0.13275133755E+02 0.12071301555E+02 0.10565513954E+02 0.90462246176E+01
 0.76347126398E+01 0.64115133758E+01 0.54135940145E+01 0.46417900924E+01 0.40769385661E+01
 0.36945914155E+01 0.34739766630E+01 0.34019188968E+01 0.34739759140E+01 0.36945912870E+01
 0.40769394346E+01 0.46417910534E+01 0.54135949648E+01 0.64115152302E+01 0.76347150787E+01
 0.90462251634E+01 0.10565509631E+02 0.12071291154E+02 0.13275120029E+02 0.13786548913E+02
 0.13385589532E+02 0.12129092273E+02 0.10347599762E+02 0.30442043526E+01 0.15475174764E+01
 0.15475013961E+01 0.30441760145E+01 0.56560595408E+01 0.87248767765E+01 0.11505149798E+02
 0.13385596273E+02 0.14063343469E+02 0.13604640609E+02 0.12375205598E+02 0.10861161783E+02
 0.93462205115E+01 0.79548047386E+01 0.67645413792E+01 0.58062687036E+01 0.50771484442E+01
 0.45579812109E+01 0.42266122921E+01 0.40655823463E+01 0.40655820611E+01 0.42266117422E+01
 0.45579804173E+01 0.50771470004E+01 0.58062676234E+01 0.67645423088E+01 0.79548059410E+01
 0.93462180073E+01 0.10861157800E+02 0.12375210474E+02 0.13604658719E+02 0.14063360088E+02
 0.13385589532E+02 0.11505119311E+02 0.87248508684E+01 0.56560648774E+01 -.22736383683E+01
 -.33205892932E+01 -.22737135985E+01 0.60037202841E+00 0.45833013899E+01 0.87248891551E+01
 0.12129134165E+02 0.14205212000E+02 0.14796593378E+02 0.14156555957E+02 0.12799520698E+02
 0.11246608915E+02 0.97284879396E+01 0.83618259765E+01 0.72126049105E+01 0.63024519071E+01
 0.56248140524E+01 0.51611041972E+01 0.48920027666E+01 0.48039094655E+01 0.48920029247E+01
 0.51611045790E+01 0.56248136705E+01 0.63024501361E+01 0.72126034187E+01 0.83618259742E+01
 0.97284867126E+01 0.11246604614E+02 0.12799519918E+02 0.14156566849E+02 0.14796606914E+02
 0.14205202306E+02 0.12129092273E+02 0.87248508684E+01 0.45833194124E+01 0.60045093732E+00
 -.61419917208E+01 -.61420318443E+01 -.36836174616E+01 0.60036753667E+00 0.56560285981E+01
 0.10347608379E+02 0.13791332337E+02 0.15565237395E+02 0.15742667463E+02 0.14772268303E+02
 0.13268688969E+02 0.11680108247E+02 0.10173954586E+02 0.88492760949E+01 0.77560101977E+01
 0.69067285202E+01 0.62925269837E+01 0.58965181809E+01 0.57030344032E+01 0.57030345904E+01
 0.58965193504E+01 0.62925295673E+01 0.69067310893E+01 0.77560109324E+01 0.88492756923E+01
 0.10173955538E+02 0.11680110432E+02 0.13268687849E+02 0.14772258609E+02 0.15742647082E+02
 0.15565208248E+02 0.13791303239E+02 0.10347599762E+02 0.56560648774E+01 0.60045093732E+00
 -.36835260137E+01 -.61419811121E+01 -.33204887365E+01 0.15475740270E+01 0.72086057516E+01
 0.12373017969E+02 0.16102819958E+02 0.18006820795E+02 0.18223235476E+02 0.17254928680E+02
 0.15741991239E+02 0.14134289784E+02 0.12591956709E+02 0.11210401509E+02 0.10044356407E+02
 0.91173451341E+01 0.84327918666E+01 0.79840832713E+01 0.77625117107E+01 0.77625105871E+01
 0.79840802823E+01 0.84327900492E+01 0.91173484823E+01 0.10044362201E+02 0.11210402565E+02
 0.12591955779E+02 0.14134299403E+02 0.15742010089E+02 0.17254932711E+02 0.18223210847E+02
 0.18006795805E+02 0.16102837204E+02 0.12373070867E+02 0.72086291927E+01 0.15475180080E+01
 -.33205886010E+01 -.61420310994E+01 -.33204887365E+01 0.68642520110E+00 0.61167556903E+01
 0.11614749154E+02 0.16035045140E+02 0.18738687893E+02 0.19654255133E+02 0.19153788392E+02
 0.17838896531E+02 0.16277923361E+02 0.14712050677E+02 0.13250218449E+02 0.11963271316E+02
 0.10891842798E+02 0.10055056247E+02 0.94587059396E+01 0.91022356803E+01 0.89836977790E+01
 0.91022306861E+01 0.94586960573E+01 0.10055048145E+02 0.10891843188E+02 0.11963274295E+02
 0.13250213839E+02 0.14712045110E+02 0.16277935072E+02 0.17838925090E+02 0.19153810062E+02
 0.19654259112E+02 0.18738696036E+02 0.16035073438E+02 0.11614763411E+02 0.61166994826E+01
 0.68630014410E+00 -.33205970408E+01 -.47984707735E+01 0.15475740270E+01 0.61167556903E+01
 0.11332093548E+02 0.15962324110E+02 0.19170614040E+02 0.20670091725E+02 0.20663488722E+02
 0.19657458328E+02 0.18234548359E+02 0.16731832739E+02 0.15269796420E+02 0.13927493586E+02
 0.12756996999E+02 0.11791453463E+02 0.11051604688E+02 0.10550806238E+02 0.10297971919E+02
 0.10297971520E+02 0.10550801000E+02 0.11051592646E+02 0.11791444084E+02 0.12756997402E+02
 0.13927494074E+02 0.15269784726E+02 0.16731817429E+02 0.18234551814E+02 0.19657486858E+02
 0.20663524023E+02 0.20670113901E+02 0.19170619397E+02 0.15962315320E+02 0.11332066251E+02
 0.61167078652E+01 0.15475234044E+01 -.11304876072E+01 -.11304654160E+01 0.72086057516E+01
 0.11614749154E+02 0.15962324110E+02 0.19313814171E+02 0.21199313796E+02 0.21638339624E+02
 0.21003422448E+02 0.19818691446E+02 0.18474213279E+02 0.17106140658E+02 0.15794674879E+02
 0.14595450537E+02 0.13549468295E+02 0.12690148120E+02 0.12047422097E+02 0.11648194456E+02
 0.11512578290E+02 0.11648197914E+02 0.12047418991E+02 0.12690137451E+02 0.13549462427E+02
 0.14595455488E+02 0.15794678447E+02 0.17106129374E+02 0.18474194274E+02 0.19818686991E+02
 0.21003442704E+02 0.21638367318E+02 0.21199320066E+02 0.19313790323E+02 0.15962295404E+02
 0.11614751323E+02 0.72086445110E+01 0.39059654497E+01 0.26784908310E+01 0.39059258068E+01
 0.12373017969E+02 0.16035045140E+02 0.19170614040E+02 0.21199313796E+02 0.21975789115E+02
 0.21720348655E+02 0.20855112532E+02 0.19761377169E+02 0.18584619584E+02 0.17401072755E+02
 0.16262482622E+02 0.15208907888E+02 0.14278963927E+02 0.13515994989E+02 0.12968129333E+02
 0.12680241387E+02 0.12680245580E+02 0.12968134035E+02 0.13515989032E+02 0.14278950918E+02
 0.15208902222E+02 0.16262489531E+02 0.17401081260E+02 0.18584617570E+02 0.19761368072E+02
 0.20855112133E+02 0.21720364485E+02 0.21975806364E+02 0.21199308671E+02 0.19170585043E+02
 0.16035023220E+02 0.12373033469E+02 0.90960410484E+01 0.71531856262E+01 0.71531631445E+01
 0.90959993906E+01 0.16102819958E+02 0.18738687893E+02 0.20670091725E+02 0.21638339624E+02
 0.21720348655E+02 0.21216234985E+02 0.20446704667E+02 0.19546779843E+02 0.18584619151E+02
 0.17602648374E+02 0.16631475173E+02 0.15704266598E+02 0.14868194386E+02 0.14187170160E+02
 0.13733529024E+02 0.13573250000E+02 0.13733538657E+02 0.14187173866E+02 0.14868182144E+02
 0.15704246449E+02 0.16631462149E+02 0.17602647771E+02 0.18584624741E+02 0.19546784520E+02
 0.20446709048E+02 0.21216246234E+02 0.21720370903E+02 0.21638364404E+02 0.20670100735E+02
 0.18738669671E+02 0.16102782527E+02 0.13355681923E+02 0.11264137657E+02 0.10481262089E+02
 0.11264158260E+02 0.13355718472E+02 0.18006820795E+02 0.19654255133E+02 0.20663488722E+02
 0.21003422448E+02 0.20855112532E+02 0.20446704667E+02 0.19880956419E+02 0.19213539423E+02
 0.18474213351E+02 0.17678316965E+02 0.16843465072E+02 0.16005122682E+02 0.15219570743E+02
 0.14587642820E+02 0.14230460723E+02 0.14230473853E+02 0.14587667164E+02 0.15219579795E+02
 0.16005108369E+02 0.16843440637E+02 0.17678296699E+02 0.18474200649E+02 0.19213532493E+02
 0.19880955154E+02 0.20446710334E+02 0.20855126985E+02 0.21003447567E+02 0.20663520145E+02
 0.19654276591E+02 0.18006813053E+02 0.16021224186E+02 0.14211077477E+02 0.13127249284E+02
 0.13127270031E+02 0.14211124114E+02 0.16021263240E+02 0.18223235476E+02 0.19153788392E+02
 0.19657458328E+02 0.19818691446E+02 0.19761377169E+02 0.19546779843E+02 0.19213539423E+02
 0.18776854548E+02 0.18234550103E+02 0.17582512432E+02 0.16825509824E+02 0.15992346266E+02
 0.15196780964E+02 0.14612318185E+02 0.14396362597E+02 0.14612359237E+02 0.15196825291E+02
 0.15992361131E+02 0.16825496884E+02 0.17582492354E+02 0.18234533602E+02 0.18776838624E+02
 0.19213522453E+02 0.19546767290E+02 0.19761373640E+02 0.19818695748E+02 0.19657467554E+02
 0.19153801974E+02 0.18223253752E+02 0.16953923850E+02 0.15618606884E+02 0.14593993488E+02
 0.14208914170E+02 0.14593981668E+02 0.15618587448E+02 0.16953902672E+02 0.17254928680E+02
 0.17838896531E+02 0.18234548359E+02 0.18474213279E+02 0.18584619584E+02 0.18584619151E+02
 0.18474213351E+02 0.18234550103E+02 0.17838898050E+02 0.17254928189E+02 0.16466552946E+02
 0.15570067768E+02 0.14767596864E+02 0.14289734058E+02 0.14289763180E+02 0.14767658720E+02
 0.15570113659E+02 0.16466560049E+02 0.17254912793E+02 0.17838885809E+02 0.18234546652E+02
 0.18474207649E+02 0.18584605604E+02 0.18584606343E+02 0.18474208359E+02 0.18234545820E+02
 0.17838884933E+02 0.17254913394E+02 0.16466560680E+02 0.15570112916E+02 0.14767658215E+02
 0.14289764483E+02 0.14289735630E+02 0.14767597033E+02 0.15570067769E+02 0.16466554015E+02
 0.15741991239E+02 0.16277923361E+02 0.16731832739E+02 0.17106140658E+02 0.17401072755E+02
 0.17602648374E+02 0.17678316965E+02 0.17582512432E+02 0.17254928189E+02 0.16625980725E+02