   2   2   0   0
  0.2044598E+02  0.3867090E-09  0.3867090E-09  0.3867090E-09  0.5000000E-15
  1.000000000000000E-004
  CAR 
 Si                                      
     62.72804241     -9.48134919  301      5.95340826      1.00000000
     -9.481  0.0000E+00  0.0000E+00
     -9.241  0.0000E+00  0.0000E+00
     -9.000  0.0000E+00  0.0000E+00
     -8.759  0.0000E+00  0.0000E+00
     -8.519  0.0000E+00  0.0000E+00
     -8.278  0.0000E+00  0.0000E+00
     -8.037  0.0000E+00  0.0000E+00
     -7.796  0.0000E+00  0.0000E+00
     -7.556  0.0000E+00  0.0000E+00
     -7.315  0.0000E+00  0.0000E+00
     -7.074  0.0000E+00  0.0000E+00
     -6.834  0.0000E+00  0.0000E+00
     -6.593  0.0000E+00  0.0000E+00
     -6.352  0.3547E-07  0.8538E-08
     -6.112  0.2853E-01  0.6866E-02
     -5.871  0.1697E+00  0.4772E-01
     -5.630  0.2161E+00  0.9974E-01
     -5.389  0.3477E+00  0.1834E+00
     -5.149  0.3803E+00  0.2750E+00
     -4.908  0.4086E+00  0.3733E+00
     -4.667  0.4136E+00  0.4729E+00
     -4.427  0.5896E+00  0.6148E+00
     -4.186  0.4641E+00  0.7265E+00
     -3.945  0.8944E+00  0.9417E+00
     -3.705  0.6706E+00  0.1103E+01
     -3.464  0.1005E+01  0.1345E+01
     -3.223  0.6431E+00  0.1500E+01
     -2.983  0.7917E+00  0.1690E+01
     -2.742  0.2954E+00  0.1762E+01
     -2.501  0.6379E+00  0.1915E+01
     -2.260  0.1745E+00  0.1957E+01
     -2.020  0.2230E+00  0.2011E+01
     -1.779  0.1715E+00  0.2052E+01
     -1.538  0.1210E+00  0.2081E+01
     -1.298  0.6985E+00  0.2249E+01
     -1.057  0.1130E+01  0.2521E+01
     -0.816  0.1086E+01  0.2783E+01
     -0.576  0.8241E+00  0.2981E+01
     -0.335  0.5969E+00  0.3125E+01
     -0.094  0.3027E+00  0.3198E+01
      0.147  0.5995E+00  0.3342E+01
      0.387  0.2731E+00  0.3408E+01
      0.628  0.2978E+00  0.3479E+01
      0.869  0.4509E+00  0.3588E+01
      1.109  0.1217E+00  0.3617E+01
      1.350  0.3968E+00  0.3713E+01
      1.591  0.7134E+00  0.3884E+01
      1.831  0.1392E+01  0.4219E+01
      2.072  0.8084E+00  0.4414E+01
      2.313  0.1298E+01  0.4726E+01
      2.554  0.9322E+00  0.4951E+01
      2.794  0.1410E+01  0.5290E+01
      3.035  0.1327E+01  0.5609E+01
      3.276  0.1786E+01  0.6039E+01
      3.516  0.1150E+01  0.6316E+01
      3.757  0.1413E+01  0.6656E+01
      3.998  0.1217E+01  0.6949E+01
      4.238  0.1212E+01  0.7241E+01
      4.479  0.1207E+01  0.7531E+01
      4.720  0.7569E+00  0.7714E+01
      4.961  0.5696E+00  0.7851E+01
      5.201  0.3148E+00  0.7926E+01
      5.442  0.1725E+00  0.7968E+01
      5.683  0.1327E+00  0.8000E+01
      5.923  0.4378E-03  0.8000E+01
      6.164  0.9878E-03  0.8000E+01
      6.405  0.1017E+00  0.8025E+01
      6.645  0.2721E+00  0.8090E+01
      6.886  0.4070E+00  0.8188E+01
      7.127  0.6639E+00  0.8348E+01
      7.368  0.8188E+00  0.8545E+01
      7.608  0.1047E+01  0.8797E+01
      7.849  0.1407E+01  0.9136E+01
      8.090  0.1183E+01  0.9420E+01
      8.330  0.1879E+01  0.9873E+01
      8.571  0.8822E+00  0.1008E+02
      8.812  0.1469E+01  0.1044E+02
      9.052  0.1861E+01  0.1089E+02
      9.293  0.1661E+01  0.1129E+02
      9.534  0.1456E+01  0.1164E+02
      9.774  0.1339E+01  0.1196E+02
     10.015  0.1336E+01  0.1228E+02
     10.256  0.1664E+01  0.1268E+02
     10.497  0.1330E+01  0.1300E+02
     10.737  0.1160E+01  0.1328E+02
     10.978  0.7351E+00  0.1346E+02
     11.219  0.1071E+01  0.1372E+02
     11.459  0.1292E+01  0.1403E+02
     11.700  0.1577E+01  0.1441E+02
     11.941  0.7710E+00  0.1459E+02
     12.181  0.9891E+00  0.1483E+02
     12.422  0.1310E+01  0.1514E+02
     12.663  0.7530E+00  0.1533E+02
     12.904  0.1271E+01  0.1563E+02
     13.144  0.2091E+01  0.1614E+02
     13.385  0.4335E+00  0.1624E+02
     13.626  0.1695E+01  0.1665E+02
     13.866  0.1216E+01  0.1694E+02
     14.107  0.7452E+00  0.1712E+02
     14.348  0.9945E+00  0.1736E+02
     14.588  0.1647E+01  0.1776E+02
     14.829  0.1756E+01  0.1818E+02
     15.070  0.1427E+01  0.1852E+02
     15.311  0.1201E+01  0.1881E+02
     15.551  0.1209E+01  0.1910E+02
     15.792  0.8897E+00  0.1932E+02
     16.033  0.8836E+00  0.1953E+02
     16.273  0.1746E+01  0.1995E+02
     16.514  0.1654E+01  0.2035E+02
     16.755  0.1817E+01  0.2078E+02
     16.995  0.9081E+00  0.2100E+02
     17.236  0.4350E+00  0.2111E+02
     17.477  0.1571E+01  0.2149E+02
     17.718  0.1069E+01  0.2174E+02
     17.958  0.2123E+01  0.2225E+02
     18.199  0.1920E+01  0.2272E+02
     18.440  0.1873E+01  0.2317E+02
     18.680  0.1304E+01  0.2348E+02
     18.921  0.1107E+01  0.2375E+02
     19.162  0.1535E+01  0.2412E+02
     19.402  0.1522E+01  0.2448E+02
     19.643  0.2073E+01  0.2498E+02
     19.884  0.1877E+01  0.2543E+02
     20.125  0.1065E+01  0.2569E+02
     20.365  0.1686E+01  0.2610E+02
     20.606  0.1527E+01  0.2646E+02
     20.847  0.1163E+01  0.2674E+02
     21.087  0.1353E+01  0.2707E+02
     21.328  0.1825E+01  0.2751E+02
     21.569  0.1516E+01  0.2787E+02
     21.809  0.1211E+01  0.2816E+02
     22.050  0.1540E+01  0.2854E+02
     22.291  0.1024E+01  0.2878E+02
     22.531  0.1805E+01  0.2922E+02
     22.772  0.1997E+01  0.2970E+02
     23.013  0.1141E+01  0.2997E+02
     23.254  0.1534E+01  0.3034E+02
     23.494  0.2226E+01  0.3088E+02
     23.735  0.1518E+01  0.3124E+02
     23.976  0.1232E+01  0.3154E+02
     24.216  0.2255E+01  0.3208E+02
     24.457  0.2528E+01  0.3269E+02
     24.698  0.1375E+01  0.3302E+02
     24.938  0.1767E+01  0.3345E+02
     25.179  0.2012E+01  0.3393E+02
     25.420  0.1572E+01  0.3431E+02
     25.661  0.8082E+00  0.3450E+02
     25.901  0.1706E+01  0.3491E+02
     26.142  0.1651E+01  0.3531E+02
     26.383  0.2080E+01  0.3581E+02
     26.623  0.1825E+01  0.3625E+02
     26.864  0.2297E+01  0.3680E+02
     27.105  0.1349E+01  0.3713E+02
     27.345  0.1644E+01  0.3753E+02
     27.586  0.1630E+01  0.3792E+02
     27.827  0.1535E+01  0.3829E+02
     28.068  0.1588E+01  0.3867E+02
     28.308  0.2438E+01  0.3926E+02
     28.549  0.1725E+01  0.3967E+02
     28.790  0.1511E+01  0.4003E+02
     29.030  0.1756E+01  0.4046E+02
     29.271  0.1948E+01  0.4093E+02
     29.512  0.1099E+01  0.4119E+02
     29.752  0.1550E+01  0.4156E+02
     29.993  0.1461E+01  0.4192E+02
     30.234  0.9313E+00  0.4214E+02
     30.475  0.9528E+00  0.4237E+02
     30.715  0.2707E+01  0.4302E+02
     30.956  0.2113E+01  0.4353E+02
     31.197  0.1337E+01  0.4385E+02
     31.437  0.1584E+01  0.4423E+02
     31.678  0.1966E+01  0.4471E+02
     31.919  0.1328E+01  0.4503E+02
     32.159  0.2213E+01  0.4556E+02
     32.400  0.1017E+01  0.4580E+02
     32.641  0.1864E+01  0.4625E+02
     32.881  0.2208E+01  0.4678E+02
     33.122  0.2105E+01  0.4729E+02
     33.363  0.1495E+01  0.4765E+02
     33.604  0.1881E+01  0.4810E+02
     33.844  0.1925E+01  0.4857E+02
     34.085  0.7905E+00  0.4876E+02
     34.326  0.1951E+01  0.4923E+02
     34.566  0.1585E+01  0.4961E+02
     34.807  0.2844E+01  0.5029E+02
     35.048  0.1957E+01  0.5076E+02
     35.288  0.2197E+01  0.5129E+02
     35.529  0.1880E+01  0.5174E+02
     35.770  0.2086E+01  0.5225E+02
     36.011  0.2130E+01  0.5276E+02
     36.251  0.1492E+01  0.5312E+02
     36.492  0.1763E+01  0.5354E+02
     36.733  0.2897E+01  0.5424E+02
     36.973  0.1323E+01  0.5456E+02
     37.214  0.2134E+01  0.5507E+02
     37.455  0.1529E+01  0.5544E+02
     37.695  0.1974E+01  0.5592E+02
     37.936  0.2606E+01  0.5654E+02
     38.177  0.2432E+01  0.5713E+02
     38.418  0.1091E+01  0.5739E+02
     38.658  0.1827E+01  0.5783E+02
     38.899  0.2137E+01  0.5834E+02
     39.140  0.1527E+01  0.5871E+02
     39.380  0.2474E+01  0.5931E+02
     39.621  0.2209E+01  0.5984E+02
     39.862  0.2181E+01  0.6036E+02
     40.102  0.1115E+01  0.6063E+02
     40.343  0.1668E+01  0.6103E+02
     40.584  0.1590E+01  0.6142E+02
     40.825  0.1688E+01  0.6182E+02
     41.065  0.2110E+01  0.6233E+02
     41.306  0.1041E+01  0.6258E+02
     41.547  0.1324E+01  0.6290E+02
     41.787  0.1445E+01  0.6325E+02
     42.028  0.1786E+01  0.6368E+02
     42.269  0.2896E+01  0.6438E+02
     42.509  0.1637E+01  0.6477E+02
     42.750  0.1535E+01  0.6514E+02
     42.991  0.1858E+01  0.6559E+02
     43.232  0.1340E+01  0.6591E+02
     43.472  0.2124E+01  0.6642E+02
     43.713  0.2461E+01  0.6701E+02
     43.954  0.2132E+01  0.6753E+02
     44.194  0.1906E+01  0.6798E+02
     44.435  0.2352E+01  0.6855E+02
     44.676  0.2476E+01  0.6915E+02
     44.916  0.1557E+01  0.6952E+02
     45.157  0.2215E+01  0.7005E+02
     45.398  0.1868E+01  0.7050E+02
     45.638  0.1528E+01  0.7087E+02
     45.879  0.2507E+01  0.7147E+02
     46.120  0.3209E+01  0.7225E+02
     46.361  0.2467E+01  0.7284E+02
     46.601  0.1275E+01  0.7315E+02
     46.842  0.1265E+01  0.7345E+02
     47.083  0.9423E+00  0.7368E+02
     47.323  0.1718E+01  0.7409E+02
     47.564  0.1852E+01  0.7454E+02
     47.805  0.2808E+01  0.7521E+02
     48.045  0.2567E+01  0.7583E+02
     48.286  0.2693E+01  0.7648E+02
     48.527  0.2053E+01  0.7697E+02
     48.768  0.1803E+01  0.7741E+02
     49.008  0.2506E+01  0.7801E+02
     49.249  0.3010E+01  0.7874E+02
     49.490  0.1465E+01  0.7909E+02
     49.730  0.2179E+01  0.7961E+02
     49.971  0.2237E+01  0.8015E+02
     50.212  0.2506E+01  0.8075E+02
     50.452  0.1352E+01  0.8108E+02
     50.693  0.2769E+01  0.8175E+02
     50.934  0.9932E+00  0.8199E+02
     51.175  0.2439E+01  0.8257E+02
     51.415  0.3062E+01  0.8331E+02
     51.656  0.2078E+01  0.8381E+02
     51.897  0.1508E+01  0.8417E+02
     52.137  0.2669E+01  0.8482E+02
     52.378  0.2202E+01  0.8535E+02
     52.619  0.2604E+01  0.8597E+02
     52.859  0.1461E+01  0.8632E+02
     53.100  0.2284E+01  0.8687E+02
     53.341  0.2268E+01  0.8742E+02
     53.582  0.2728E+01  0.8808E+02
     53.822  0.2522E+01  0.8868E+02
     54.063  0.3000E+01  0.8941E+02
     54.304  0.2356E+01  0.8997E+02
     54.544  0.1909E+01  0.9043E+02
     54.785  0.1304E+01  0.9075E+02
     55.026  0.1692E+01  0.9115E+02
     55.266  0.1486E+01  0.9151E+02
     55.507  0.1547E+01  0.9188E+02
     55.748  0.2168E+01  0.9241E+02
     55.988  0.1849E+01  0.9285E+02
     56.229  0.2202E+01  0.9338E+02
     56.470  0.1300E+01  0.9369E+02
     56.711  0.1930E+01  0.9416E+02
     56.951  0.1429E+01  0.9450E+02
     57.192  0.9705E+00  0.9474E+02
     57.433  0.5478E+00  0.9487E+02
     57.673  0.8098E+00  0.9506E+02
     57.914  0.1090E+01  0.9532E+02
     58.155  0.6242E+00  0.9548E+02
     58.395  0.1179E+01  0.9576E+02
     58.636  0.7358E+00  0.9594E+02
     58.877  0.1215E+00  0.9597E+02
     59.118  0.4319E-10  0.9597E+02
     59.358  0.2412E-01  0.9597E+02
     59.599  0.1201E+00  0.9600E+02
     59.840  0.8513E-06  0.9600E+02
     60.080  0.0000E+00  0.9600E+02
     60.321  0.0000E+00  0.9600E+02
     60.562  0.0000E+00  0.9600E+02
     60.802  0.0000E+00  0.9600E+02
     61.043  0.0000E+00  0.9600E+02
     61.284  0.0000E+00  0.9600E+02
     61.525  0.0000E+00  0.9600E+02
     61.765  0.0000E+00  0.9600E+02
     62.006  0.0000E+00  0.9600E+02
     62.247  0.0000E+00  0.9600E+02
     62.487  0.0000E+00  0.9600E+02
     62.728  0.0000E+00  0.9600E+02
