    2    2    1    1
  0.2044598E+02  0.3867090E-09  0.3867090E-09  0.3867090E-09  0.5000000E-15
  1.000000000000000E-004
  CAR 
 Si                                      
      8     72     48
 
  0.0000000E+00  0.0000000E+00  0.0000000E+00  0.5787037E-03
      1         -6.199104   1.000000
      2          5.616305   1.000000
      3          5.616309   1.000000
      4          5.616309   1.000000
      5          8.175091   0.000000
      6          8.175094   0.000000
      7          8.175094   0.000000
      8          8.747714   0.000000
      9         13.341458   0.000000
     10         13.341458   0.000000
     11         13.492732   0.000000
     12         16.801971   0.000000
     13         16.801974   0.000000
     14         16.801974   0.000000
     15         20.889170   0.000000
     16         28.506513   0.000000
     17         28.506524   0.000000
     18         28.506524   0.000000
     19         29.615294   0.000000
     20         29.615294   0.000000
     21         31.020171   0.000000
     22         31.020175   0.000000
     23         31.020175   0.000000
     24         34.537426   0.000000
     25         34.537437   0.000000
     26         34.537437   0.000000
     27         40.221348   0.000000
     28         40.221364   0.000000
     29         40.221364   0.000000
     30         43.418359   0.000000
     31         43.989416   0.000000
     32         43.989416   0.000000
     33         45.830656   0.000000
     34         45.830656   0.000000
     35         47.287433   0.000000
     36         47.287434   0.000000
     37         47.287434   0.000000
     38         49.043651   0.000000
     39         49.043658   0.000000
     40         49.043658   0.000000
     41         49.538129   0.000000
     42         50.107235   0.000000
     43         50.107245   0.000000
     44         50.107245   0.000000
     45         50.110880   0.000000
     46         50.110886   0.000000
     47         50.110886   0.000000
     48         51.518304   0.000000
 
  0.8333333E-01 -0.2263415E-17  0.0000000E+00  0.4629630E-02
      1         -6.109730   1.000000
      2          4.758507   1.000000
      3          5.476063   1.000000
      4          5.476066   1.000000
      5          8.181927   0.000000
      6          8.381807   0.000000
      7          8.381810   0.000000
      8          9.451355   0.000000
      9         13.076074   0.000000
     10         13.076075   0.000000
     11         13.871844   0.000000
     12         16.484492   0.000000
     13         17.361383   0.000000
     14         17.361386   0.000000
     15         21.484235   0.000000
     16         27.522670   0.000000
     17         27.522718   0.000000
     18         27.556224   0.000000
     19         29.271389   0.000000
     20         29.271453   0.000000
     21         31.401148   0.000000
     22         31.401161   0.000000
     23         31.839499   0.000000
     24         34.619078   0.000000
     25         35.650109   0.000000
     26         35.650121   0.000000
     27         38.992223   0.000000
     28         39.970449   0.000000
     29         39.970467   0.000000
     30         43.096703   0.000000
     31         43.096717   0.000000
     32         43.761847   0.000000
     33         44.687426   0.000000
     34         44.687429   0.000000
     35         47.202446   0.000000
     36         47.202451   0.000000
     37         47.404045   0.000000
     38         48.378730   0.000000
     39         48.392001   0.000000
     40         48.928948   0.000000
     41         48.928960   0.000000
     42         49.631305   0.000000
     43         49.631311   0.000000
     44         49.764353   0.000000
     45         50.978062   0.000000
     46         51.353383   0.000000
     47         51.353387   0.000000
     48         52.959313   0.000000
 
  0.1666667E+00 -0.1736106E-17  0.0000000E+00  0.4629630E-02
      1         -5.844479   1.000000
      2          3.252743   1.000000
      3          5.175500   1.000000
      4          5.175502   1.000000
      5          7.902544   0.000000
      6          8.810971   0.000000
      7          8.810973   0.000000
      8         10.893576   0.000000
      9         12.713786   0.000000
     10         12.713789   0.000000
     11         14.616653   0.000000
     12         16.200560   0.000000
     13         18.654344   0.000000
     14         18.654347   0.000000
     15         22.815162   0.000000
     16         25.379459   0.000000
     17         25.379498   0.000000
     18         25.965623   0.000000
     19         29.303530   0.000000
     20         29.303604   0.000000
     21         31.697474   0.000000
     22         31.697486   0.000000
     23         33.077678   0.000000
     24         34.857774   0.000000
     25         36.530764   0.000000
     26         37.715282   0.000000
     27         37.715323   0.000000
     28         39.330305   0.000000
     29         39.330341   0.000000
     30         40.864227   0.000000
     31         40.864263   0.000000
     32         43.262625   0.000000
     33         43.262626   0.000000
     34         44.116225   0.000000
     35         46.164981   0.000000
     36         46.363462   0.000000
     37         46.781477   0.000000
     38         46.781491   0.000000
     39         48.622024   0.000000
     40         49.082406   0.000000
     41         49.082410   0.000000
     42         49.327265   0.000000
     43         50.269986   0.000000
     44         50.556895   0.000000
     45         50.556941   0.000000
     46         53.380899   0.000000
     47         53.444304   0.000000
     48         53.444314   0.000000
 
  0.2500000E+00  0.7216040E-17  0.0000000E+00  0.4629630E-02
      1         -5.414245   1.000000
      2          1.729573   1.000000
      3          4.871083   1.000000
      4          4.871085   1.000000
      5          7.576562   0.000000
      6          9.109858   0.000000
      7          9.109860   0.000000
      8         12.367455   0.000000
      9         12.814960   0.000000
     10         12.814966   0.000000
     11         14.546997   0.000000
     12         17.330095   0.000000
     13         20.146652   0.000000
     14         20.146659   0.000000
     15         23.315938   0.000000
     16         23.315959   0.000000
     17         23.396185   0.000000
     18         25.489579   0.000000
     19         29.440083   0.000000
     20         29.440155   0.000000
     21         31.925765   0.000000
     22         31.925777   0.000000
     23         33.215069   0.000000
     24         34.740671   0.000000
     25         35.231329   0.000000
     26         37.139381   0.000000
     27         37.139406   0.000000
     28         38.832046   0.000000
     29         38.832049   0.000000
     30         39.713307   0.000000
     31         39.713308   0.000000
     32         43.424037   0.000000
     33         43.424053   0.000000
     34         43.549405   0.000000
     35         44.006922   0.000000
     36         44.572322   0.000000
     37         46.447435   0.000000
     38         46.447453   0.000000
     39         48.621773   0.000000
     40         49.010972   0.000000
     41         49.010983   0.000000
     42         49.325324   0.000000
     43         49.614559   0.000000
     44         52.179168   0.000000
     45         52.179237   0.000000
     46         54.677960   0.000000
     47         54.677972   0.000000
     48         55.855540   0.000000
 
  0.3333333E+00 -0.4648496E-17  0.0000000E+00  0.4629630E-02
      1         -4.849010   1.000000
      2          0.346364   1.000000
      3          4.633490   1.000000
      4          4.633492   1.000000
      5          7.310077   0.000000
      6          9.123666   0.000000
      7          9.123670   0.000000
      8         13.400720   0.000000
      9         13.581436   0.000000
     10         13.581446   0.000000
     11         14.598566   0.000000
     12         19.045402   0.000000
     13         20.103527   0.000000
     14         20.103545   0.000000
     15         22.225973   0.000000
     16         23.137621   0.000000
     17         23.137622   0.000000
     18         27.324608   0.000000
     19         29.448650   0.000000
     20         29.448722   0.000000
     21         30.608078   0.000000
     22         32.099628   0.000000
     23         32.099638   0.000000
     24         34.682540   0.000000
     25         34.682543   0.000000
     26         35.205968   0.000000
     27         35.683797   0.000000
     28         38.131800   0.000000
     29         38.131810   0.000000
     30         39.200687   0.000000
     31         39.200692   0.000000
     32         40.946601   0.000000
     33         43.097799   0.000000
     34         43.187895   0.000000
     35         45.546302   0.000000
     36         45.546340   0.000000
     37         46.370872   0.000000
     38         46.370889   0.000000
     39         48.217245   0.000000
     40         48.968122   0.000000
     41         48.968133   0.000000
     42         49.129697   0.000000
     43         51.075113   0.000000
     44         53.575159   0.000000
     45         53.575239   0.000000
     46         55.661378   0.000000
     47         55.661379   0.000000
     48         57.464165   0.000000
 
  0.4166667E+00 -0.1458961E-17  0.0000000E+00  0.4629630E-02
      1         -4.243868   1.000000
      2         -0.760710   1.000000
      3          4.486736   1.000000
      4          4.486738   1.000000
      5          7.141476   0.000000
      6          9.021384   0.000000
      7          9.021388   0.000000
      8         13.395911   0.000000
      9         14.845923   0.000000
     10         14.845938   0.000000
     11         15.806265   0.000000
     12         18.334797   0.000000
     13         18.334816   0.000000
     14         19.221214   0.000000
     15         22.744148   0.000000
     16         25.027417   0.000000
     17         25.027419   0.000000
     18         27.768998   0.000000
     19         28.845669   0.000000
     20         28.845709   0.000000
     21         29.593352   0.000000
     22         32.024318   0.000000
     23         32.024324   0.000000
     24         33.027822   0.000000
     25         33.027838   0.000000
     26         34.756062   0.000000
     27         36.102737   0.000000
     28         37.752524   0.000000
     29         37.752548   0.000000
     30         38.508611   0.000000
     31         38.508625   0.000000
     32         39.375417   0.000000
     33         42.067959   0.000000
     34         42.334456   0.000000
     35         46.059790   0.000000
     36         46.059800   0.000000
     37         47.544683   0.000000
     38         47.544702   0.000000
     39         48.036022   0.000000
     40         48.974828   0.000000
     41         49.980608   0.000000
     42         49.980645   0.000000
     43         52.978232   0.000000
     44         54.171833   0.000000
     45         54.171916   0.000000
     46         57.077590   0.000000
     47         57.077596   0.000000
     48         58.286489   0.000000
 
  0.5000000E+00  0.1443208E-16  0.0000000E+00  0.2314815E-02
      1         -3.920423   1.000000
      2         -1.253006   1.000000
      3          4.437297   1.000000
      4          4.437299   1.000000
      5          7.083239   0.000000
      6          8.968612   0.000000
      7          8.968617   0.000000
      8         13.319338   0.000000
      9         16.132823   0.000000
     10         16.132844   0.000000
     11         16.799044   0.000000
     12         16.841275   0.000000
     13         16.841284   0.000000
     14         18.354449   0.000000
     15         24.777322   0.000000
     16         25.376265   0.000000
     17         27.084433   0.000000
     18         27.084456   0.000000
     19         27.219162   0.000000
     20         27.219201   0.000000
     21         31.079571   0.000000
     22         31.796059   0.000000
     23         31.796097   0.000000
     24         32.723173   0.000000
     25         32.723178   0.000000
     26         33.668016   0.000000
     27         36.284563   0.000000
     28         37.672388   0.000000
     29         37.672424   0.000000
     30         38.177816   0.000000
     31         38.177854   0.000000
     32         39.117071   0.000000
     33         41.680723   0.000000
     34         41.934098   0.000000
     35         46.045616   0.000000
     36         46.045628   0.000000
     37         47.767757   0.000000
     38         47.767758   0.000000
     39         47.980301   0.000000
     40         48.897977   0.000000
     41         51.741331   0.000000
     42         51.741460   0.000000
     43         53.548429   0.000000
     44         53.548486   0.000000
     45         54.238169   0.000000
     46         57.497096   0.000000
     47         57.727372   0.000000
     48         57.727402   0.000000
 
  0.8333333E-01  0.8333333E-01  0.0000000E+00  0.3472222E-02
      1         -6.079783   1.000000
      2          4.906935   1.000000
      3          5.197942   1.000000
      4          5.197944   1.000000
      5          7.905971   0.000000
      6          8.740391   0.000000
      7          8.740393   0.000000
      8          9.407497   0.000000
      9         12.583282   0.000000
     10         13.474165   0.000000
     11         13.998408   0.000000
     12         17.010684   0.000000
     13         17.010686   0.000000
     14         17.328437   0.000000
     15         21.731097   0.000000
     16         27.100671   0.000000
     17         27.100677   0.000000
     18         28.352184   0.000000
     19         28.661637   0.000000
     20         28.737052   0.000000
     21         31.548051   0.000000
     22         31.782928   0.000000
     23         31.782928   0.000000
     24         35.449010   0.000000
     25         35.449013   0.000000
     26         35.870017   0.000000
     27         39.380678   0.000000
     28         39.380688   0.000000
     29         39.432623   0.000000
     30         42.241074   0.000000
     31         43.435213   0.000000
     32         43.695353   0.000000
     33         44.400189   0.000000
     34         45.683510   0.000000
     35         47.038172   0.000000
     36         47.038173   0.000000
     37         47.133981   0.000000
     38         47.567798   0.000000
     39         47.567799   0.000000
     40         48.633300   0.000000
     41         48.633303   0.000000
     42         49.396197   0.000000
     43         50.661098   0.000000
     44         51.298937   0.000000
     45         51.510972   0.000000
     46         51.510974   0.000000
     47         52.021852   0.000000
     48         52.124761   0.000000
 
  0.1666667E+00  0.8333333E-01  0.0000000E+00  0.1388889E-01
      1         -5.872628   1.000000
      2          3.693043   1.000000
      3          4.841695   1.000000
      4          5.019877   1.000000
      5          7.924165   0.000000
      6          8.778683   0.000000
      7          9.269335   0.000000
      8         10.381514   0.000000
      9         12.218483   0.000000
     10         13.416690   0.000000
     11         14.717065   0.000000
     12         16.621809   0.000000
     13         17.733177   0.000000
     14         18.545202   0.000000
     15         22.878569   0.000000
     16         25.264315   0.000000
     17         25.555928   0.000000
     18         27.646128   0.000000
     19         27.985519   0.000000
     20         28.632948   0.000000
     21         31.616688   0.000000
     22         32.122266   0.000000
     23         32.911231   0.000000
     24         35.781835   0.000000
     25         36.961561   0.000000
     26         37.194714   0.000000
     27         37.826532   0.000000
     28         38.498307   0.000000
     29         39.266565   0.000000
     30         40.493540   0.000000
     31         42.101701   0.000000
     32         42.434434   0.000000
     33         44.415124   0.000000
     34         44.601427   0.000000
     35         45.673395   0.000000
     36         46.017579   0.000000
     37         47.139893   0.000000
     38         47.506661   0.000000
     39         47.915412   0.000000
     40         48.525465   0.000000
     41         49.468660   0.000000
     42         49.806401   0.000000
     43         49.823819   0.000000
     44         51.012504   0.000000
     45         52.103251   0.000000
     46         52.168976   0.000000
     47         53.063651   0.000000
     48         53.277245   0.000000
 
  0.2500000E+00  0.8333333E-01  0.0000000E+00  0.1388889E-01
      1         -5.495825   1.000000
      2          2.214855   1.000000
      3          4.533653   1.000000
      4          4.700525   1.000000
      5          8.022080   0.000000
      6          8.785605   0.000000
      7          9.655060   0.000000
      8         10.978843   0.000000
      9         12.892229   0.000000
     10         13.470084   0.000000
     11         15.089278   0.000000
     12         17.006647   0.000000
     13         19.060800   0.000000
     14         20.152585   0.000000
     15         23.085315   0.000000
     16         23.483838   0.000000
     17         24.379026   0.000000
     18         26.263649   0.000000
     19         28.093191   0.000000
     20         28.806859   0.000000
     21         31.613089   0.000000
     22         32.393219   0.000000
     23         33.665150   0.000000
     24         35.027296   0.000000
     25         36.054789   0.000000
     26         37.425097   0.000000
     27         37.493154   0.000000
     28         38.426999   0.000000
     29         38.911892   0.000000
     30         39.344089   0.000000
     31         40.599883   0.000000
     32         41.640499   0.000000
     33         43.594779   0.000000
     34         44.325370   0.000000
     35         44.939656   0.000000
     36         45.157335   0.000000
     37         45.408685   0.000000
     38         47.693095   0.000000
     39         48.289239   0.000000
     40         48.399858   0.000000
     41         49.368241   0.000000
     42         49.652905   0.000000
     43         50.547924   0.000000
     44         51.309739   0.000000
     45         52.402870   0.000000
     46         53.005558   0.000000
     47         54.320179   0.000000
     48         54.373737   0.000000
 
  0.3333333E+00  0.8333333E-01  0.0000000E+00  0.1388889E-01
      1         -4.970429   1.000000
      2          0.803087   1.000000
      3          4.326217   1.000000
      4          4.352366   1.000000
      5          7.858611   0.000000
      6          8.898355   0.000000
      7          9.690444   0.000000
      8         11.556553   0.000000
      9         14.107768   0.000000
     10         14.160148   0.000000
     11         14.840730   0.000000
     12         18.535650   0.000000
     13         19.689639   0.000000
     14         20.901929   0.000000
     15         22.052847   0.000000
     16         22.691440   0.000000
     17         23.754702   0.000000
     18         27.160339   0.000000
     19         28.259712   0.000000
     20         29.057339   0.000000
     21         31.345617   0.000000
     22         31.377872   0.000000
     23         32.649594   0.000000
     24         35.140657   0.000000
     25         35.538018   0.000000
     26         35.772018   0.000000
     27         36.582384   0.000000
     28         37.109210   0.000000
     29         37.840071   0.000000
     30         38.940780   0.000000
     31         40.209196   0.000000
     32         42.004677   0.000000
     33         43.409753   0.000000
     34         43.758660   0.000000
     35         43.931226   0.000000
     36         44.510019   0.000000
     37         46.311439   0.000000
     38         47.458366   0.000000
     39         47.734334   0.000000
     40         48.580566   0.000000
     41         49.603229   0.000000
     42         50.182094   0.000000
     43         51.893752   0.000000
     44         52.370310   0.000000
     45         52.604118   0.000000
     46         54.665628   0.000000
     47         54.855219   0.000000
     48         56.566104   0.000000
 
  0.4166667E+00  0.8333333E-01  0.0000000E+00  0.1388889E-01
      1         -4.359075   1.000000
      2         -0.403434   1.000000
      3          4.061066   1.000000
      4          4.236434   1.000000
      5          7.687172   0.000000
      6          8.882991   0.000000
      7          9.508240   0.000000
      8         12.587143   0.000000
      9         14.308163   0.000000
     10         15.274937   0.000000
     11         15.923060   0.000000
     12         18.114109   0.000000
     13         18.688543   0.000000
     14         20.587610   0.000000
     15         22.373076   0.000000
     16         23.630043   0.000000
     17         24.887204   0.000000
     18         28.185165   0.000000
     19         28.288755   0.000000
     20         29.107442   0.000000
     21         29.481723   0.000000
     22         30.630122   0.000000
     23         32.842606   0.000000
     24         33.448651   0.000000
     25         33.744722   0.000000
     26         35.529679   0.000000
     27         36.174650   0.000000
     28         36.940742   0.000000
     29         37.113994   0.000000
     30         38.556573   0.000000
     31         39.429068   0.000000
     32         40.126169   0.000000
     33         42.792345   0.000000
     34         43.501870   0.000000
     35         43.887954   0.000000
     36         45.952787   0.000000
     37         46.406569   0.000000
     38         48.011171   0.000000
     39         48.479577   0.000000
     40         49.547784   0.000000
     41         49.702461   0.000000
     42         51.420374   0.000000
     43         52.616798   0.000000
     44         53.122866   0.000000
     45         53.660820   0.000000
     46         55.457150   0.000000
     47         56.354492   0.000000
     48         57.855361   0.000000
 
  0.5000000E+00  0.8333333E-01  0.0000000E+00  0.1388889E-01
      1         -3.882773   1.000000
      2         -1.154542   1.000000
      3          3.860358   1.000000
      4          4.265246   1.000000
      5          7.603299   0.000000
      6          8.891224   0.000000
      7          9.316341   0.000000
      8         13.486954   0.000000
      9         14.603233   0.000000
     10         16.081320   0.000000
     11         16.895704   0.000000
     12         17.003938   0.000000
     13         17.760665   0.000000
     14         19.394682   0.000000
     15         24.139317   0.000000
     16         25.723690   0.000000
     17         25.774350   0.000000
     18         26.860648   0.000000
     19         27.375424   0.000000
     20         27.810309   0.000000
     21         30.762807   0.000000
     22         31.167951   0.000000
     23         31.375301   0.000000
     24         33.015340   0.000000
     25         33.364304   0.000000
     26         34.334069   0.000000
     27         36.097389   0.000000
     28         36.238874   0.000000
     29         37.395604   0.000000
     30         38.439578   0.000000
     31         38.824852   0.000000
     32         39.696054   0.000000
     33         42.363542   0.000000
     34         42.981416   0.000000
     35         43.934593   0.000000
     36         45.906475   0.000000
     37         46.374303   0.000000
     38         48.702487   0.000000
     39         49.331844   0.000000
     40         50.266230   0.000000
     41         51.682358   0.000000
     42         51.748836   0.000000
     43         53.457404   0.000000
     44         53.500928   0.000000
     45         54.288008   0.000000
     46         55.038036   0.000000
     47         56.486689   0.000000
     48         58.299417   0.000000
 
 -0.4166667E+00  0.8333333E-01  0.0000000E+00  0.1388889E-01
      1         -3.999654   1.000000
      2         -0.981679   1.000000
      3          3.768319   1.000000
      4          4.404655   1.000000
      5          7.627234   0.000000
      6          9.007265   0.000000
      7          9.206767   0.000000
      8         13.594397   0.000000
      9         14.530505   0.000000
     10         15.023460   0.000000
     11         16.668960   0.000000
     12         17.523873   0.000000
     13         18.653608   0.000000
     14         19.366272   0.000000
     15         23.261015   0.000000
     16         25.016210   0.000000
     17         26.383980   0.000000
     18         26.791159   0.000000
     19         27.801434   0.000000
     20         28.234506   0.000000
     21         30.540000   0.000000
     22         30.671601   0.000000
     23         32.079016   0.000000
     24         32.843572   0.000000
     25         33.220675   0.000000
     26         34.823003   0.000000
     27         36.101814   0.000000
     28         36.323382   0.000000
     29         37.492421   0.000000
     30         38.641069   0.000000
     31         38.879054   0.000000
     32         39.676572   0.000000
     33         42.418440   0.000000
     34         43.076558   0.000000
     35         44.244433   0.000000
     36         45.639220   0.000000
     37         46.267106   0.000000
     38         48.121290   0.000000
     39         49.706938   0.000000
     40         50.517953   0.000000
     41         50.879985   0.000000
     42         51.234686   0.000000
     43         52.474268   0.000000
     44         54.062450   0.000000
     45         54.418762   0.000000
     46         55.630368   0.000000
     47         56.970471   0.000000
     48         58.124100   0.000000
 
 -0.3333333E+00  0.8333333E-01  0.0000000E+00  0.1388889E-01
      1         -4.565898   1.000000
      2         -0.030992   1.000000
      3          3.797472   1.000000
      4          4.639417   1.000000
      5          7.757918   0.000000
      6          9.168920   0.000000
      7          9.209094   0.000000
      8         13.023587   0.000000
      9         13.173396   0.000000
     10         14.681198   0.000000
     11         15.984600   0.000000
     12         18.131908   0.000000
     13         19.894370   0.000000
     14         20.488389   0.000000
     15         22.017843   0.000000
     16         22.966792   0.000000
     17         24.563474   0.000000
     18         28.234671   0.000000
     19         28.517783   0.000000
     20         28.996705   0.000000
     21         29.536499   0.000000
     22         31.289295   0.000000
     23         32.582958   0.000000
     24         33.795352   0.000000
     25         34.290710   0.000000
     26         35.441612   0.000000
     27         36.547031   0.000000
     28         36.680323   0.000000
     29         37.663657   0.000000
     30         38.893943   0.000000
     31         39.588348   0.000000
     32         40.576601   0.000000
     33         42.912483   0.000000
     34         43.631885   0.000000
     35         44.787069   0.000000
     36         45.550709   0.000000
     37         45.946560   0.000000
     38         46.131139   0.000000
     39         48.286073   0.000000
     40         50.137520   0.000000
     41         50.443835   0.000000
     42         50.547233   0.000000
     43         51.507702   0.000000
     44         52.889129   0.000000
     45         53.716230   0.000000
     46         55.247280   0.000000
     47         57.024963   0.000000
     48         58.548363   0.000000
 
 -0.2500000E+00  0.8333333E-01  0.0000000E+00  0.1388889E-01
      1         -5.160802   1.000000
      2          1.259213   1.000000
      3          3.957468   1.000000
      4          4.943894   1.000000
      5          7.982822   0.000000
      6          9.078193   0.000000
      7          9.347748   0.000000
      8         12.046231   0.000000
      9         12.287380   0.000000
     10         14.551856   0.000000
     11         14.941128   0.000000
     12         17.896642   0.000000
     13         19.660071   0.000000
     14         21.347874   0.000000
     15         21.521373   0.000000
     16         23.440519   0.000000
     17         23.856973   0.000000
     18         26.456458   0.000000
     19         28.329114   0.000000
     20         28.817803   0.000000
     21         31.866028   0.000000
     22         31.963954   0.000000
     23         32.700125   0.000000
     24         35.247176   0.000000
     25         35.273083   0.000000
     26         36.553097   0.000000
     27         36.761797   0.000000
     28         37.516355   0.000000
     29         38.217828   0.000000
     30         39.417637   0.000000
     31         40.210580   0.000000
     32         42.574252   0.000000
     33         42.948261   0.000000
     34         44.108296   0.000000
     35         44.135088   0.000000
     36         45.109793   0.000000
     37         45.636091   0.000000
     38         46.166879   0.000000
     39         46.915608   0.000000
     40         49.487229   0.000000
     41         50.461203   0.000000
     42         50.642751   0.000000
     43         51.020707   0.000000
     44         51.581536   0.000000
     45         52.141434   0.000000
     46         53.580260   0.000000
     47         56.217721   0.000000
     48         56.404063   0.000000
 
 -0.1666667E+00  0.8333333E-01  0.0000000E+00  0.1388889E-01
      1         -5.640154   1.000000
      2          2.693049   1.000000
      3          4.259968   1.000000
      4          5.267313   1.000000
      5          8.267021   0.000000
      6          8.774228   0.000000
      7          9.120300   0.000000
      8         11.233619   0.000000