Si                                      
           1
     3.348998    0.000000    1.933545
     1.116333    3.157466    1.933545
     0.000000    0.000000    3.867090
   Si
     2
Direct configuration=     1
   0.00000000  0.00000000  0.00000000
   0.25000000  0.25000000  0.25000000
