 DBCSR| CPU Multiplication driver                                           BLAS (U)
 DBCSR| Multrec recursion limit                                              512 (U)
 DBCSR| Multiplication stack size                                           1000 (D)
 DBCSR| Maximum elements for images                                    UNLIMITED (U)
 DBCSR| Multiplicative factor virtual images                                   1 (U)
 DBCSR| Use multiplication densification                                       T (D)
 DBCSR| Multiplication size stacks                                             3 (U)
 DBCSR| Use memory pool for CPU allocation                                     F (U)
 DBCSR| Number of 3D layers                                               SINGLE (U)
 DBCSR| Use MPI memory allocation                                              F (U)
 DBCSR| Use RMA algorithm                                                      F (U)
 DBCSR| Use Communication thread                                               T (U)
 DBCSR| Communication thread load                                             45 (D)
 DBCSR| MPI: My process id                                                     0
 DBCSR| MPI: Number of processes                                               8
 DBCSR| OMP: Current number of threads                                        12
 DBCSR| OMP: Max number of threads                                            12
 DBCSR| Split modifier for TAS multiplication algorithm                  1.0E+00 (U)


  **** **** ******  **  PROGRAM STARTED AT               2025-08-04 17:40:53.253
 ***** ** ***  *** **   PROGRAM STARTED ON                          i04r10c01s10
 **    ****   ******    PROGRAM STARTED BY                               di38fab
 ***** **    ** ** **   PROGRAM PROCESS ID                                 13766
  **** **  *******  **  PROGRAM STARTED IN /hppfs/scratch/04/di38fab/09_GTH/Delt
                                           a_Set/I/aug-SZV-MOLOPT-GTH-tier-2-SR/
                                           8x8x8

 CP2K| version string:                 CP2K version 2025.1 (Development Version)
 CP2K| source code revision number:                                  git:3130539
 CP2K| cp2kflags: omp libint fftw3 libxc parallel scalapack max_contr=4         
 CP2K| is freely available from                            https://www.cp2k.org/
 CP2K| Program compiled at                         Tue Jun  3 16:14:32 CEST 2025
 CP2K| Program compiled on                                               login01
 CP2K| Program compiled for                                        Supermuc-foss
 CP2K| Data directory path                  /hppfs/work/pn36zo/di38fab/cp2k/data
 CP2K| Input file name                                                    GW.inp

 GLOBAL| Force Environment number                                              1
 GLOBAL| Basis set file name            /hppfs/scratch/04/di38fab/09_GTH/BASIS_A
 GLOBAL| Potential file name            /hppfs/work/pn36zo/di38fab/cp2k/data/GTH
 GLOBAL| MM Potential file name                                     MM_POTENTIAL
 GLOBAL| Coordinate file name                                              I.cif
 GLOBAL| Method name                                                        CP2K
 GLOBAL| Project name                                                       WSe2
 GLOBAL| Run type                                                         ENERGY
 GLOBAL| FFT library                                                       FFTW3
 GLOBAL| Diagonalization library                                       ScaLAPACK
 GLOBAL| Cholesky decomposition library                                ScaLAPACK
 GLOBAL| DGEMM library                                                      BLAS
 GLOBAL| Orthonormality check for eigenvectors                          DISABLED
 GLOBAL| Matrix multiplication library                                 ScaLAPACK
 GLOBAL| All-to-all communication in single precision                          F
 GLOBAL| FFTs using library dependent lengths                                  F
 GLOBAL| Grid backend                                                       AUTO
 GLOBAL| Global print level                                               MEDIUM
 GLOBAL| MPI I/O enabled                                                       T
 GLOBAL| Total number of message passing processes                             8
 GLOBAL| Number of threads for this process                                   12
 GLOBAL| This output is from process                                           0
 GLOBAL| OpenMP stack size per thread (OMP_STACKSIZE)                    default
 GLOBAL| CPU model name             Intel(R) Xeon(R) Platinum 8174 CPU @ 3.10GHz

 MEMORY| system memory details [Kb]
 MEMORY|                        rank 0           min           max       average
 MEMORY| MemTotal             98436664      98436664      98436664      98436664
 MEMORY| MemFree              84456908      84456908      84544232      84500570
 MEMORY| Buffers                     0             0             0             0
 MEMORY| Cached                2384448       2365840       2384448       2375144
 MEMORY| Slab                  1305848       1305532       1305848       1305690
 MEMORY| SReclaimable           285316        283664        285316        284490
 MEMORY| MemLikelyFree        87126672      87126672      87193736      87160204


 *** Fundamental physical constants (SI units) ***

 *** Literature: B. J. Mohr and B. N. Taylor,
 ***             CODATA recommended values of the fundamental physical
 ***             constants: 2006, Web Version 5.1
 ***             http://physics.nist.gov/constants

 Speed of light in vacuum [m/s]                             2.99792458000000E+08
 Magnetic constant or permeability of vacuum [N/A**2]       1.25663706143592E-06
 Electric constant or permittivity of vacuum [F/m]          8.85418781762039E-12
 Planck constant (h) [J*s]                                  6.62606896000000E-34
 Planck constant (h-bar) [J*s]                              1.05457162825177E-34
 Elementary charge [C]                                      1.60217648700000E-19
 Electron mass [kg]                                         9.10938215000000E-31
 Electron g factor [ ]                                     -2.00231930436220E+00
 Proton mass [kg]                                           1.67262163700000E-27
 Fine-structure constant                                    7.29735253760000E-03
 Rydberg constant [1/m]                                     1.09737315685270E+07
 Avogadro constant [1/mol]                                  6.02214179000000E+23
 Boltzmann constant [J/K]                                   1.38065040000000E-23
 Atomic mass unit [kg]                                      1.66053878200000E-27
 Bohr radius [m]                                            5.29177208590000E-11

 *** Conversion factors ***

 [u] -> [a.u.]                                              1.82288848426455E+03
 [Angstrom] -> [Bohr] = [a.u.]                              1.88972613288564E+00
 [a.u.] = [Bohr] -> [Angstrom]                              5.29177208590000E-01
 [a.u.] -> [s]                                              2.41888432650478E-17
 [a.u.] -> [fs]                                             2.41888432650478E-02
 [a.u.] -> [J]                                              4.35974393937059E-18
 [a.u.] -> [N]                                              8.23872205491840E-08
 [a.u.] -> [K]                                              3.15774647902944E+05
 [a.u.] -> [kJ/mol]                                         2.62549961709828E+03
 [a.u.] -> [kcal/mol]                                       6.27509468713739E+02
 [a.u.] -> [Pa]                                             2.94210107994716E+13
 [a.u.] -> [bar]                                            2.94210107994716E+08
 [a.u.] -> [atm]                                            2.90362800883016E+08
 [a.u.] -> [eV]                                             2.72113838565563E+01
 [a.u.] -> [Hz]                                             6.57968392072181E+15
 [a.u.] -> [1/cm] (wave numbers)                            2.19474631370540E+05
 [a.u./Bohr**2] -> [1/cm]                                   5.14048714338585E+03
 

 CELL_TOP| Volume [angstrom^3]:                                       397.795816
 CELL_TOP| Vector a [angstrom     8.577     0.000     0.000   |a| =     8.577010
 CELL_TOP| Vector b [angstrom     0.000     4.554     0.000   |b| =     4.554220
 CELL_TOP| Vector c [angstrom     0.000     0.000    10.184   |c| =    10.183810
 CELL_TOP| Angle (b,c), alpha [degree]:                                90.000000
 CELL_TOP| Angle (a,c), beta  [degree]:                                90.000000
 CELL_TOP| Angle (a,b), gamma [degree]:                                90.000000
 CELL_TOP| Numerically orthorhombic:                                         YES
 CELL_TOP| Periodicity                                                       XYZ

 CELL_CIF| Volume [angstrom^3]:                                       397.795816
 CELL_CIF| Vector a [angstrom     8.577     0.000     0.000   |a| =     8.577010
 CELL_CIF| Vector b [angstrom     0.000     4.554     0.000   |b| =     4.554220
 CELL_CIF| Vector c [angstrom     0.000     0.000    10.184   |c| =    10.183810
 CELL_CIF| Angle (b,c), alpha [degree]:                                90.000000
 CELL_CIF| Angle (a,c), beta  [degree]:                                90.000000
 CELL_CIF| Angle (a,b), gamma [degree]:                                90.000000
 CELL_CIF| Numerically orthorhombic:                                         YES
 CELL_CIF| Periodicity                                                       XYZ

 GENERATE|  Preliminary Number of Bonds generated:                             0
 GENERATE|  Achieved consistency in connectivity generation.

 CELL| Volume [angstrom^3]:                                           397.795816
 CELL| Vector a [angstrom]:       8.577     0.000     0.000   |a| =     8.577010
 CELL| Vector b [angstrom]:       0.000     4.554     0.000   |b| =     4.554220
 CELL| Vector c [angstrom]:       0.000     0.000    10.184   |c| =    10.183810
 CELL| Angle (b,c), alpha [degree]:                                    90.000000
 CELL| Angle (a,c), beta  [degree]:                                    90.000000
 CELL| Angle (a,b), gamma [degree]:                                    90.000000
 CELL| Numerically orthorhombic:                                             YES
 CELL| Periodicity                                                           XYZ

 CELL_REF| Volume [angstrom^3]:                                       397.795816
 CELL_REF| Vector a [angstrom     8.577     0.000     0.000   |a| =     8.577010
 CELL_REF| Vector b [angstrom     0.000     4.554     0.000   |b| =     4.554220
 CELL_REF| Vector c [angstrom     0.000     0.000    10.184   |c| =    10.183810
 CELL_REF| Angle (b,c), alpha [degree]:                                90.000000
 CELL_REF| Angle (a,c), beta  [degree]:                                90.000000
 CELL_REF| Angle (a,b), gamma [degree]:                                90.000000
 CELL_REF| Numerically orthorhombic:                                         YES
 CELL_REF| Periodicity                                                       XYZ

 *** WARNING in cryssym.F:180 :: Symmetry library SPGLIB not available ***


 *******************************************************************************
                                    Kpoints
 *******************************************************************************
 BRILLOUIN| K-point scheme                                        Monkhorst-Pack
 BRILLOUIN| K-Point grid                                             8    8    8
 BRILLOUIN| Accuracy in Symmetry determination                      0.100000E-05
 BRILLOUIN| K-Point point group symmetrization                               OFF
 BRILLOUIN| Wavefunction type                                            COMPLEX
 BRILLOUIN| List of Kpoints [2 Pi/Bohr]                                      256
 BRILLOUIN| Number           Weight            X              Y              Z
 BRILLOUIN|     1           0.00391       -0.43750       -0.43750       -0.43750
 BRILLOUIN|     2           0.00391       -0.43750       -0.43750       -0.31250
 BRILLOUIN|     3           0.00391       -0.43750       -0.43750       -0.18750
 BRILLOUIN|     4           0.00391       -0.43750       -0.43750       -0.06250
 BRILLOUIN|     5           0.00391       -0.43750       -0.43750        0.06250
 BRILLOUIN|     6           0.00391       -0.43750       -0.43750        0.18750
 BRILLOUIN|     7           0.00391       -0.43750       -0.43750        0.31250
 BRILLOUIN|     8           0.00391       -0.43750       -0.43750        0.43750
 BRILLOUIN|     9           0.00391       -0.43750       -0.31250       -0.43750
 BRILLOUIN|    10           0.00391       -0.43750       -0.31250       -0.31250
 BRILLOUIN|    11           0.00391       -0.43750       -0.31250       -0.18750
 BRILLOUIN|    12           0.00391       -0.43750       -0.31250       -0.06250
 BRILLOUIN|    13           0.00391       -0.43750       -0.31250        0.06250
 BRILLOUIN|    14           0.00391       -0.43750       -0.31250        0.18750
 BRILLOUIN|    15           0.00391       -0.43750       -0.31250        0.31250
 BRILLOUIN|    16           0.00391       -0.43750       -0.31250        0.43750
 BRILLOUIN|    17           0.00391       -0.43750       -0.18750       -0.43750
 BRILLOUIN|    18           0.00391       -0.43750       -0.18750       -0.31250
 BRILLOUIN|    19           0.00391       -0.43750       -0.18750       -0.18750
 BRILLOUIN|    20           0.00391       -0.43750       -0.18750       -0.06250
 BRILLOUIN|    21           0.00391       -0.43750       -0.18750        0.06250
 BRILLOUIN|    22           0.00391       -0.43750       -0.18750        0.18750
 BRILLOUIN|    23           0.00391       -0.43750       -0.18750        0.31250
 BRILLOUIN|    24           0.00391       -0.43750       -0.18750        0.43750
 BRILLOUIN|    25           0.00391       -0.43750       -0.06250       -0.43750
 BRILLOUIN|    26           0.00391       -0.43750       -0.06250       -0.31250
 BRILLOUIN|    27           0.00391       -0.43750       -0.06250       -0.18750
 BRILLOUIN|    28           0.00391       -0.43750       -0.06250       -0.06250
 BRILLOUIN|    29           0.00391       -0.43750       -0.06250        0.06250
 BRILLOUIN|    30           0.00391       -0.43750       -0.06250        0.18750
 BRILLOUIN|    31           0.00391       -0.43750       -0.06250        0.31250
 BRILLOUIN|    32           0.00391       -0.43750       -0.06250        0.43750
 BRILLOUIN|    33           0.00391       -0.43750        0.06250       -0.43750
 BRILLOUIN|    34           0.00391       -0.43750        0.06250       -0.31250
 BRILLOUIN|    35           0.00391       -0.43750        0.06250       -0.18750
 BRILLOUIN|    36           0.00391       -0.43750        0.06250       -0.06250
 BRILLOUIN|    37           0.00391       -0.43750        0.06250        0.06250
 BRILLOUIN|    38           0.00391       -0.43750        0.06250        0.18750
 BRILLOUIN|    39           0.00391       -0.43750        0.06250        0.31250
 BRILLOUIN|    40           0.00391       -0.43750        0.06250        0.43750
 BRILLOUIN|    41           0.00391       -0.43750        0.18750       -0.43750
 BRILLOUIN|    42           0.00391       -0.43750        0.18750       -0.31250
 BRILLOUIN|    43           0.00391       -0.43750        0.18750       -0.18750
 BRILLOUIN|    44           0.00391       -0.43750        0.18750       -0.06250
 BRILLOUIN|    45           0.00391       -0.43750        0.18750        0.06250
 BRILLOUIN|    46           0.00391       -0.43750        0.18750        0.18750
 BRILLOUIN|    47           0.00391       -0.43750        0.18750        0.31250
 BRILLOUIN|    48           0.00391       -0.43750        0.18750        0.43750
 BRILLOUIN|    49           0.00391       -0.43750        0.31250       -0.43750
 BRILLOUIN|    50           0.00391       -0.43750        0.31250       -0.31250
 BRILLOUIN|    51           0.00391       -0.43750        0.31250       -0.18750
 BRILLOUIN|    52           0.00391       -0.43750        0.31250       -0.06250
 BRILLOUIN|    53           0.00391       -0.43750        0.31250        0.06250
 BRILLOUIN|    54           0.00391       -0.43750        0.31250        0.18750
 BRILLOUIN|    55           0.00391       -0.43750        0.31250        0.31250
 BRILLOUIN|    56           0.00391       -0.43750        0.31250        0.43750
 BRILLOUIN|    57           0.00391       -0.43750        0.43750       -0.43750
 BRILLOUIN|    58           0.00391       -0.43750        0.43750       -0.31250
 BRILLOUIN|    59           0.00391       -0.43750        0.43750       -0.18750
 BRILLOUIN|    60           0.00391       -0.43750        0.43750       -0.06250
 BRILLOUIN|    61           0.00391       -0.43750        0.43750        0.06250
 BRILLOUIN|    62           0.00391       -0.43750        0.43750        0.18750
 BRILLOUIN|    63           0.00391       -0.43750        0.43750        0.31250
 BRILLOUIN|    64           0.00391       -0.43750        0.43750        0.43750
 BRILLOUIN|    65           0.00391       -0.31250       -0.43750       -0.43750
 BRILLOUIN|    66           0.00391       -0.31250       -0.43750       -0.31250
 BRILLOUIN|    67           0.00391       -0.31250       -0.43750       -0.18750
 BRILLOUIN|    68           0.00391       -0.31250       -0.43750       -0.06250
 BRILLOUIN|    69           0.00391       -0.31250       -0.43750        0.06250
 BRILLOUIN|    70           0.00391       -0.31250       -0.43750        0.18750
 BRILLOUIN|    71           0.00391       -0.31250       -0.43750        0.31250
 BRILLOUIN|    72           0.00391       -0.31250       -0.43750        0.43750
 BRILLOUIN|    73           0.00391       -0.31250       -0.31250       -0.43750
 BRILLOUIN|    74           0.00391       -0.31250       -0.31250       -0.31250
 BRILLOUIN|    75           0.00391       -0.31250       -0.31250       -0.18750
 BRILLOUIN|    76           0.00391       -0.31250       -0.31250       -0.06250
 BRILLOUIN|    77           0.00391       -0.31250       -0.31250        0.06250
 BRILLOUIN|    78           0.00391       -0.31250       -0.31250        0.18750
 BRILLOUIN|    79           0.00391       -0.31250       -0.31250        0.31250
 BRILLOUIN|    80           0.00391       -0.31250       -0.31250        0.43750
 BRILLOUIN|    81           0.00391       -0.31250       -0.18750       -0.43750
 BRILLOUIN|    82           0.00391       -0.31250       -0.18750       -0.31250
 BRILLOUIN|    83           0.00391       -0.31250       -0.18750       -0.18750
 BRILLOUIN|    84           0.00391       -0.31250       -0.18750       -0.06250
 BRILLOUIN|    85           0.00391       -0.31250       -0.18750        0.06250
 BRILLOUIN|    86           0.00391       -0.31250       -0.18750        0.18750
 BRILLOUIN|    87           0.00391       -0.31250       -0.18750        0.31250
 BRILLOUIN|    88           0.00391       -0.31250       -0.18750        0.43750
 BRILLOUIN|    89           0.00391       -0.31250       -0.06250       -0.43750
 BRILLOUIN|    90           0.00391       -0.31250       -0.06250       -0.31250
 BRILLOUIN|    91           0.00391       -0.31250       -0.06250       -0.18750
 BRILLOUIN|    92           0.00391       -0.31250       -0.06250       -0.06250
 BRILLOUIN|    93           0.00391       -0.31250       -0.06250        0.06250
 BRILLOUIN|    94           0.00391       -0.31250       -0.06250        0.18750
 BRILLOUIN|    95           0.00391       -0.31250       -0.06250        0.31250
 BRILLOUIN|    96           0.00391       -0.31250       -0.06250        0.43750
 BRILLOUIN|    97           0.00391       -0.31250        0.06250       -0.43750
 BRILLOUIN|    98           0.00391       -0.31250        0.06250       -0.31250
 BRILLOUIN|    99           0.00391       -0.31250        0.06250       -0.18750
 BRILLOUIN|   100           0.00391       -0.31250        0.06250       -0.06250
 BRILLOUIN|   101           0.00391       -0.31250        0.06250        0.06250
 BRILLOUIN|   102           0.00391       -0.31250        0.06250        0.18750
 BRILLOUIN|   103           0.00391       -0.31250        0.06250        0.31250
 BRILLOUIN|   104           0.00391       -0.31250        0.06250        0.43750
 BRILLOUIN|   105           0.00391       -0.31250        0.18750       -0.43750
 BRILLOUIN|   106           0.00391       -0.31250        0.18750       -0.31250
 BRILLOUIN|   107           0.00391       -0.31250        0.18750       -0.18750
 BRILLOUIN|   108           0.00391       -0.31250        0.18750       -0.06250
 BRILLOUIN|   109           0.00391       -0.31250        0.18750        0.06250
 BRILLOUIN|   110           0.00391       -0.31250        0.18750        0.18750
 BRILLOUIN|   111           0.00391       -0.31250        0.18750        0.31250
 BRILLOUIN|   112           0.00391       -0.31250        0.18750        0.43750
 BRILLOUIN|   113           0.00391       -0.31250        0.31250       -0.43750
 BRILLOUIN|   114           0.00391       -0.31250        0.31250       -0.31250
 BRILLOUIN|   115           0.00391       -0.31250        0.31250       -0.18750
 BRILLOUIN|   116           0.00391       -0.31250        0.31250       -0.06250
 BRILLOUIN|   117           0.00391       -0.31250        0.31250        0.06250
 BRILLOUIN|   118           0.00391       -0.31250        0.31250        0.18750
 BRILLOUIN|   119           0.00391       -0.31250        0.31250        0.31250
 BRILLOUIN|   120           0.00391       -0.31250        0.31250        0.43750
 BRILLOUIN|   121           0.00391       -0.31250        0.43750       -0.43750
 BRILLOUIN|   122           0.00391       -0.31250        0.43750       -0.31250
 BRILLOUIN|   123           0.00391       -0.31250        0.43750       -0.18750
 BRILLOUIN|   124           0.00391       -0.31250        0.43750       -0.06250
 BRILLOUIN|   125           0.00391       -0.31250        0.43750        0.06250
 BRILLOUIN|   126           0.00391       -0.31250        0.43750        0.18750
 BRILLOUIN|   127           0.00391       -0.31250        0.43750        0.31250
 BRILLOUIN|   128           0.00391       -0.31250        0.43750        0.43750
 BRILLOUIN|   129           0.00391       -0.18750       -0.43750       -0.43750
 BRILLOUIN|   130           0.00391       -0.18750       -0.43750       -0.31250
 BRILLOUIN|   131           0.00391       -0.18750       -0.43750       -0.18750
 BRILLOUIN|   132           0.00391       -0.18750       -0.43750       -0.06250
 BRILLOUIN|   133           0.00391       -0.18750       -0.43750        0.06250
 BRILLOUIN|   134           0.00391       -0.18750       -0.43750        0.18750
 BRILLOUIN|   135           0.00391       -0.18750       -0.43750        0.31250
 BRILLOUIN|   136           0.00391       -0.18750       -0.43750        0.43750
 BRILLOUIN|   137           0.00391       -0.18750       -0.31250       -0.43750
 BRILLOUIN|   138           0.00391       -0.18750       -0.31250       -0.31250
 BRILLOUIN|   139           0.00391       -0.18750       -0.31250       -0.18750
 BRILLOUIN|   140           0.00391       -0.18750       -0.31250       -0.06250
 BRILLOUIN|   141           0.00391       -0.18750       -0.31250        0.06250
 BRILLOUIN|   142           0.00391       -0.18750       -0.31250        0.18750
 BRILLOUIN|   143           0.00391       -0.18750       -0.31250        0.31250
 BRILLOUIN|   144           0.00391       -0.18750       -0.31250        0.43750
 BRILLOUIN|   145           0.00391       -0.18750       -0.18750       -0.43750
 BRILLOUIN|   146           0.00391       -0.18750       -0.18750       -0.31250
 BRILLOUIN|   147           0.00391       -0.18750       -0.18750       -0.18750
 BRILLOUIN|   148           0.00391       -0.18750       -0.18750       -0.06250
 BRILLOUIN|   149           0.00391       -0.18750       -0.18750        0.06250
 BRILLOUIN|   150           0.00391       -0.18750       -0.18750        0.18750
 BRILLOUIN|   151           0.00391       -0.18750       -0.18750        0.31250
 BRILLOUIN|   152           0.00391       -0.18750       -0.18750        0.43750
 BRILLOUIN|   153           0.00391       -0.18750       -0.06250       -0.43750
 BRILLOUIN|   154           0.00391       -0.18750       -0.06250       -0.31250
 BRILLOUIN|   155           0.00391       -0.18750       -0.06250       -0.18750
 BRILLOUIN|   156           0.00391       -0.18750       -0.06250       -0.06250
 BRILLOUIN|   157           0.00391       -0.18750       -0.06250        0.06250
 BRILLOUIN|   158           0.00391       -0.18750       -0.06250        0.18750
 BRILLOUIN|   159           0.00391       -0.18750       -0.06250        0.31250
 BRILLOUIN|   160           0.00391       -0.18750       -0.06250        0.43750
 BRILLOUIN|   161           0.00391       -0.18750        0.06250       -0.43750
 BRILLOUIN|   162           0.00391       -0.18750        0.06250       -0.31250
 BRILLOUIN|   163           0.00391       -0.18750        0.06250       -0.18750
 BRILLOUIN|   164           0.00391       -0.18750        0.06250       -0.06250
 BRILLOUIN|   165           0.00391       -0.18750        0.06250        0.06250
 BRILLOUIN|   166           0.00391       -0.18750        0.06250        0.18750
 BRILLOUIN|   167           0.00391       -0.18750        0.06250        0.31250
 BRILLOUIN|   168           0.00391       -0.18750        0.06250        0.43750
 BRILLOUIN|   169           0.00391       -0.18750        0.18750       -0.43750
 BRILLOUIN|   170           0.00391       -0.18750        0.18750       -0.31250
 BRILLOUIN|   171           0.00391       -0.18750        0.18750       -0.18750
 BRILLOUIN|   172           0.00391       -0.18750        0.18750       -0.06250
 BRILLOUIN|   173           0.00391       -0.18750        0.18750        0.06250
 BRILLOUIN|   174           0.00391       -0.18750        0.18750        0.18750
 BRILLOUIN|   175           0.00391       -0.18750        0.18750        0.31250
 BRILLOUIN|   176           0.00391       -0.18750        0.18750        0.43750
 BRILLOUIN|   177           0.00391       -0.18750        0.31250       -0.43750
 BRILLOUIN|   178           0.00391       -0.18750        0.31250       -0.31250
 BRILLOUIN|   179           0.00391       -0.18750        0.31250       -0.18750
 BRILLOUIN|   180           0.00391       -0.18750        0.31250       -0.06250
 BRILLOUIN|   181           0.00391       -0.18750        0.31250        0.06250
 BRILLOUIN|   182           0.00391       -0.18750        0.31250        0.18750
 BRILLOUIN|   183           0.00391       -0.18750        0.31250        0.31250
 BRILLOUIN|   184           0.00391       -0.18750        0.31250        0.43750
 BRILLOUIN|   185           0.00391       -0.18750        0.43750       -0.43750
 BRILLOUIN|   186           0.00391       -0.18750        0.43750       -0.31250
 BRILLOUIN|   187           0.00391       -0.18750        0.43750       -0.18750
 BRILLOUIN|   188           0.00391       -0.18750        0.43750       -0.06250
 BRILLOUIN|   189           0.00391       -0.18750        0.43750        0.06250
 BRILLOUIN|   190           0.00391       -0.18750        0.43750        0.18750
 BRILLOUIN|   191           0.00391       -0.18750        0.43750        0.31250
 BRILLOUIN|   192           0.00391       -0.18750        0.43750        0.43750
 BRILLOUIN|   193           0.00391       -0.06250       -0.43750       -0.43750
 BRILLOUIN|   194           0.00391       -0.06250       -0.43750       -0.31250
 BRILLOUIN|   195           0.00391       -0.06250       -0.43750       -0.18750
 BRILLOUIN|   196           0.00391       -0.06250       -0.43750       -0.06250
 BRILLOUIN|   197           0.00391       -0.06250       -0.43750        0.06250
 BRILLOUIN|   198           0.00391       -0.06250       -0.43750        0.18750
 BRILLOUIN|   199           0.00391       -0.06250       -0.43750        0.31250
 BRILLOUIN|   200           0.00391       -0.06250       -0.43750        0.43750
 BRILLOUIN|   201           0.00391       -0.06250       -0.31250       -0.43750
 BRILLOUIN|   202           0.00391       -0.06250       -0.31250       -0.31250
 BRILLOUIN|   203           0.00391       -0.06250       -0.31250       -0.18750
 BRILLOUIN|   204           0.00391       -0.06250       -0.31250       -0.06250
 BRILLOUIN|   205           0.00391       -0.06250       -0.31250        0.06250
 BRILLOUIN|   206           0.00391       -0.06250       -0.31250        0.18750
 BRILLOUIN|   207           0.00391       -0.06250       -0.31250        0.31250
 BRILLOUIN|   208           0.00391       -0.06250       -0.31250        0.43750
 BRILLOUIN|   209           0.00391       -0.06250       -0.18750       -0.43750
 BRILLOUIN|   210           0.00391       -0.06250       -0.18750       -0.31250
 BRILLOUIN|   211           0.00391       -0.06250       -0.18750       -0.18750
 BRILLOUIN|   212           0.00391       -0.06250       -0.18750       -0.06250
 BRILLOUIN|   213           0.00391       -0.06250       -0.18750        0.06250
 BRILLOUIN|   214           0.00391       -0.06250       -0.18750        0.18750
 BRILLOUIN|   215           0.00391       -0.06250       -0.18750        0.31250
 BRILLOUIN|   216           0.00391       -0.06250       -0.18750        0.43750
 BRILLOUIN|   217           0.00391       -0.06250       -0.06250       -0.43750
 BRILLOUIN|   218           0.00391       -0.06250       -0.06250       -0.31250
 BRILLOUIN|   219           0.00391       -0.06250       -0.06250       -0.18750
 BRILLOUIN|   220           0.00391       -0.06250       -0.06250       -0.06250
 BRILLOUIN|   221           0.00391       -0.06250       -0.06250        0.06250
 BRILLOUIN|   222           0.00391       -0.06250       -0.06250        0.18750
 BRILLOUIN|   223           0.00391       -0.06250       -0.06250        0.31250
 BRILLOUIN|   224           0.00391       -0.06250       -0.06250        0.43750
 BRILLOUIN|   225           0.00391       -0.06250        0.06250       -0.43750
 BRILLOUIN|   226           0.00391       -0.06250        0.06250       -0.31250
 BRILLOUIN|   227           0.00391       -0.06250        0.06250       -0.18750
 BRILLOUIN|   228           0.00391       -0.06250        0.06250       -0.06250
 BRILLOUIN|   229           0.00391       -0.06250        0.06250        0.06250
 BRILLOUIN|   230           0.00391       -0.06250        0.06250        0.18750
 BRILLOUIN|   231           0.00391       -0.06250        0.06250        0.31250
 BRILLOUIN|   232           0.00391       -0.06250        0.06250        0.43750
 BRILLOUIN|   233           0.00391       -0.06250        0.18750       -0.43750
 BRILLOUIN|   234           0.00391       -0.06250        0.18750       -0.31250
 BRILLOUIN|   235           0.00391       -0.06250        0.18750       -0.18750
 BRILLOUIN|   236           0.00391       -0.06250        0.18750       -0.06250
 BRILLOUIN|   237           0.00391       -0.06250        0.18750        0.06250
 BRILLOUIN|   238           0.00391       -0.06250        0.18750        0.18750
 BRILLOUIN|   239           0.00391       -0.06250        0.18750        0.31250
 BRILLOUIN|   240           0.00391       -0.06250        0.18750        0.43750
 BRILLOUIN|   241           0.00391       -0.06250        0.31250       -0.43750
 BRILLOUIN|   242           0.00391       -0.06250        0.31250       -0.31250
 BRILLOUIN|   243           0.00391       -0.06250        0.31250       -0.18750
 BRILLOUIN|   244           0.00391       -0.06250        0.31250       -0.06250
 BRILLOUIN|   245           0.00391       -0.06250        0.31250        0.06250
 BRILLOUIN|   246           0.00391       -0.06250        0.31250        0.18750
 BRILLOUIN|   247           0.00391       -0.06250        0.31250        0.31250
 BRILLOUIN|   248           0.00391       -0.06250        0.31250        0.43750
 BRILLOUIN|   249           0.00391       -0.06250        0.43750       -0.43750
 BRILLOUIN|   250           0.00391       -0.06250        0.43750       -0.31250
 BRILLOUIN|   251           0.00391       -0.06250        0.43750       -0.18750
 BRILLOUIN|   252           0.00391       -0.06250        0.43750       -0.06250
 BRILLOUIN|   253           0.00391       -0.06250        0.43750        0.06250
 BRILLOUIN|   254           0.00391       -0.06250        0.43750        0.18750
 BRILLOUIN|   255           0.00391       -0.06250        0.43750        0.31250
 BRILLOUIN|   256           0.00391       -0.06250        0.43750        0.43750
 *******************************************************************************

 *******************************************************************************
 *******************************************************************************
 **                                                                           **
 **     #####                         ##              ##                      **
 **    ##   ##            ##          ##              ##                      **
 **   ##     ##                       ##            ######                    **
 **   ##     ##  ##   ##  ##   #####  ##  ##   ####   ##    #####    #####    **
 **   ##     ##  ##   ##  ##  ##      ## ##   ##      ##   ##   ##  ##   ##   **
 **   ##  ## ##  ##   ##  ##  ##      ####     ###    ##   ######   ######    **
 **    ##  ###   ##   ##  ##  ##      ## ##      ##   ##   ##       ##        **
 **     #######   #####   ##   #####  ##  ##  ####    ##    #####   ##        **
 **           ##                                                    ##        **
 **                                                                           **
 **                                                ... make the atoms dance   **
 **                                                                           **
 **            Copyright (C) by CP2K developers group (2000-2025)             **
 **                      J. Chem. Phys. 152, 194103 (2020)                    **
 **                                                                           **
 *******************************************************************************

 DFT| Spin restricted Kohn-Sham (RKS) calculation                            RKS
 DFT| Multiplicity                                                             1
 DFT| Number of spin states                                                    1
 DFT| Charge                                                                   0
 DFT| Self-interaction correction (SIC)                                       NO
 DFT| Cutoffs: density                                              1.000000E-10
 DFT|          gradient                                             1.000000E-10
 DFT|          tau                                                  1.000000E-10
 DFT|          cutoff_smoothing_range                               0.000000E+00
 DFT| XC density smoothing                                                  NONE
 DFT| XC derivatives                                                          PW

 FUNCTIONAL| PBE:
 FUNCTIONAL| J.P.Perdew, K.Burke, M.Ernzerhof, Phys. Rev. Letter, vol. 77, n 18,
 FUNCTIONAL|  pp. 3865-3868, (1996) {spin unpolarized}                          


 QS| Method:                                                                 GPW
 QS| Density plane wave grid type                        NON-SPHERICAL FULLSPACE
 QS| Number of grid levels:                                                    4
 QS| Density cutoff [a.u.]:                                                500.0
 QS| Multi grid cutoff [a.u.]: 1) grid level                               500.0
 QS|                           2) grid level                               166.7
 QS|                           3) grid level                                55.6
 QS|                           4) grid level                                18.5
 QS| Grid level progression factor:                                          3.0
 QS| Relative density cutoff [a.u.]:                                        50.0
 QS| Interaction thresholds: eps_pgf_orb:                                1.0E-16
 QS|                         eps_filter_matrix:                          0.0E+00
 QS|                         eps_core_charge:                            1.0E-18
 QS|                         eps_rho_gspace:                             1.0E-16
 QS|                         eps_rho_rspace:                             1.0E-16
 QS|                         eps_gvg_rspace:                             1.0E-08
 QS|                         eps_ppl:                                    1.0E-02
 QS|                         eps_ppnl:                                   1.0E-10


 ATOMIC KIND INFORMATION

  1. Atomic kind: I                                     Number of atoms:       8

     Orbital Basis Set                              aug-SZV-MOLOPT-GTH-tier-2-SR

       Number of orbital shell sets:                                           1
       Number of orbital shells:                                               5
       Number of primitive Cartesian functions:                                6
       Number of Cartesian basis functions:                                   14
       Number of spherical basis functions:                                   13
       Norm type:                                                              2

       Normalised Cartesian orbitals:

                        Set   Shell   Orbital            Exponent    Coefficient

                          1       1    2s                0.083015       0.018311
                                                         0.129293       0.000000
                                                         0.201369       0.106470
                                                         0.367159       0.255165
                                                         0.828886      -0.032154
                                                         0.966173      -0.369082

                          1       2    3s                0.083015      -0.100450
                                                         0.129293       0.007024
                                                         0.201369       0.000217
                                                         0.367159       0.111017
                                                         0.828886       0.383653
                                                         0.966173       0.127703

                          1       3    3px               0.083015       0.016495
                                                         0.129293       0.000000
                                                         0.201369       0.101262
                                                         0.367159       0.107862
                                                         0.828886       0.783765
                                                         0.966173      -1.009678
                          1       3    3py               0.083015       0.016495
                                                         0.129293       0.000000
                                                         0.201369       0.101262
                                                         0.367159       0.107862
                                                         0.828886       0.783765
                                                         0.966173      -1.009678
                          1       3    3pz               0.083015       0.016495
                                                         0.129293       0.000000
                                                         0.201369       0.101262
                                                         0.367159       0.107862
                                                         0.828886       0.783765
                                                         0.966173      -1.009678

                          1       4    4px               0.083015       0.087220
                                                         0.129293      -0.044684
                                                         0.201369      -0.000009
                                                         0.367159      -0.000060
                                                         0.828886      -0.012305
                                                         0.966173      -0.000154
                          1       4    4py               0.083015       0.087220
                                                         0.129293      -0.044684
                                                         0.201369      -0.000009
                                                         0.367159      -0.000060
                                                         0.828886      -0.012305
                                                         0.966173      -0.000154
                          1       4    4pz               0.083015       0.087220
                                                         0.129293      -0.044684
                                                         0.201369      -0.000009
                                                         0.367159      -0.000060
                                                         0.828886      -0.012305
                                                         0.966173      -0.000154

                          1       5    4dx2              0.083015       0.008953
                                                         0.129293       0.009122
                                                         0.201369       0.028843
                                                         0.367159       0.060711
                                                         0.828886      -0.031116
                                                         0.966173       0.006389
                          1       5    4dxy              0.083015       0.015506
                                                         0.129293       0.015800
                                                         0.201369       0.049958
                                                         0.367159       0.105155
                                                         0.828886      -0.053895
                                                         0.966173       0.011067
                          1       5    4dxz              0.083015       0.015506
                                                         0.129293       0.015800
                                                         0.201369       0.049958
                                                         0.367159       0.105155
                                                         0.828886      -0.053895
                                                         0.966173       0.011067
                          1       5    4dy2              0.083015       0.008953
                                                         0.129293       0.009122
                                                         0.201369       0.028843
                                                         0.367159       0.060711
                                                         0.828886      -0.031116
                                                         0.966173       0.006389
                          1       5    4dyz              0.083015       0.015506
                                                         0.129293       0.015800
                                                         0.201369       0.049958
                                                         0.367159       0.105155
                                                         0.828886      -0.053895
                                                         0.966173       0.011067
                          1       5    4dz2              0.083015       0.008953
                                                         0.129293       0.009122
                                                         0.201369       0.028843
                                                         0.367159       0.060711
                                                         0.828886      -0.031116
                                                         0.966173       0.006389

       Atomic covalent radius [Angstrom]:                                  1.330

       Atomic van der Waals radius [Angstrom]:                             1.980

     GTH Potential information for                                       GTH-PBE

       Description:                       Goedecker-Teter-Hutter pseudopotential
                                           Goedecker et al., PRB 54, 1703 (1996)
                                          Hartwigsen et al., PRB 58, 3641 (1998)
                                                      Krack, TCA 114, 145 (2005)

       Gaussian exponent of the core charge distribution:               1.594388
       Electronic configuration (s p d ...):                               2   5

       Parameters of the local part of the GTH pseudopotential:

                          rloc        C1          C2          C3          C4
                        0.560000    8.207102

       Parameters of the non-local part of the GTH (SOC) pseudopotential:

                   l      r(l)      h(i,j,l)
                                    k(i,j,l)
                   0    0.531928    2.308146    1.003909   -0.959156
                                    1.003909   -2.856109    2.476530
                                   -0.959156    2.476530   -1.965685
                   1    0.589182    0.906482    0.425071
                                    0.425071   -0.502950
                                    0.275693   -0.106307
                                   -0.106307    0.125784
                   2    0.739721    0.479195
                                    0.012901


 MOLECULE KIND INFORMATION


 All atoms are their own molecule, skipping detailed information


 TOTAL NUMBERS AND MAXIMUM NUMBERS

  Total number of            - Atomic kinds:                                   1
                             - Atoms:                                          8
                             - Shell sets:                                     8
                             - Shells:                                        40
                             - Primitive Cartesian functions:                 48
                             - Cartesian basis functions:                    112
                             - Spherical basis functions:                    104

  Maximum angular momentum of- Orbital basis functions:                        2
                             - Local part of the GTH pseudopotential:          0
                             - Non-local part of the GTH pseudopotential:      4


 MODULE QUICKSTEP: ATOMIC COORDINATES IN ANGSTROM

   Atom Kind Element         X             Y             Z       Z(eff)     Mass
      1    1 I    53      0.000000      1.658192      8.947190   7.0000 126.9045
      2    1 I    53      0.000000      0.618918      3.855285   7.0000 126.9045
      3    1 I    53      0.000000      3.935302      6.328525   7.0000 126.9045
      4    1 I    53      0.000000      2.896028      1.236620   7.0000 126.9045
      5    1 I    53      4.288505      3.935302      8.947190   7.0000 126.9045
      6    1 I    53      4.288505      2.896028      3.855285   7.0000 126.9045
      7    1 I    53      4.288505      1.658192      6.328525   7.0000 126.9045
      8    1 I    53      4.288505      0.618918      1.236620   7.0000 126.9045



 SCF PARAMETERS         Density guess:                                    ATOMIC
                        --------------------------------------------------------
                        max_scf:                                             500
                        max_scf_history:                                       0
                        max_diis:                                              4
                        --------------------------------------------------------
                        eps_scf:                                        1.00E-09
                        eps_scf_history:                                0.00E+00
                        eps_diis:                                       1.00E-01
                        eps_eigval:                                     1.00E-05
                        --------------------------------------------------------
                        level_shift [a.u.]:                             0.000000
                        added MOs                                        76    0
                        --------------------------------------------------------
                        Mixing method:                            BROYDEN_MIXING
                                                charge density mixing in g-space
                        --------------------------------------------------------
                        No outer SCF

 PW_GRID| Information for grid number                                          1
 PW_GRID| Grid distributed over                                     8 processors
 PW_GRID| Real space group dimensions                                     8    1
 PW_GRID| the grid is blocked:                                                NO
 PW_GRID| Cutoff [a.u.]                                                    500.0
 PW_GRID| spherical cutoff:                                                   NO
 PW_GRID|   Bounds   1            -90      89                Points:         180
 PW_GRID|   Bounds   2            -45      44                Points:          90
 PW_GRID|   Bounds   3           -100      99                Points:         200
 PW_GRID| Volume element (a.u.^3)  0.8285E-03     Volume (a.u.^3)      2684.4593
 PW_GRID| Grid span                                                    FULLSPACE
 PW_GRID|   Distribution                         Average         Max         Min
 PW_GRID|   G-Vectors                           405000.0      405000      405000
 PW_GRID|   G-Rays                                2250.0        2250        2250
 PW_GRID|   Real Space Points                   405000.0      414000      396000

 PW_GRID| Information for grid number                                          2
 PW_GRID| Number of the reference grid                                         1
 PW_GRID| Grid distributed over                                     8 processors
 PW_GRID| Real space group dimensions                                     8    1
 PW_GRID| the grid is blocked:                                                NO
 PW_GRID| Cutoff [a.u.]                                                    166.7
 PW_GRID| spherical cutoff:                                                   NO
 PW_GRID|   Bounds   1            -48      47                Points:          96
 PW_GRID|   Bounds   2            -27      26                Points:          54
 PW_GRID|   Bounds   3            -60      59                Points:         120
 PW_GRID| Volume element (a.u.^3)  0.4315E-02     Volume (a.u.^3)      2684.4593
 PW_GRID| Grid span                                                    FULLSPACE
 PW_GRID|   Distribution                         Average         Max         Min
 PW_GRID|   G-Vectors                            77760.0       77952       77664
 PW_GRID|   G-Rays                                 810.0         812         809
 PW_GRID|   Real Space Points                    77760.0       77760       77760

 PW_GRID| Information for grid number                                          3
 PW_GRID| Number of the reference grid                                         1
 PW_GRID| Grid distributed over                                     8 processors
 PW_GRID| Real space group dimensions                                     8    1
 PW_GRID| the grid is blocked:                                                NO
 PW_GRID| Cutoff [a.u.]                                                     55.6
 PW_GRID| spherical cutoff:                                                   NO
 PW_GRID|   Bounds   1            -30      29                Points:          60
 PW_GRID|   Bounds   2            -15      14                Points:          30
 PW_GRID|   Bounds   3            -36      35                Points:          72
 PW_GRID| Volume element (a.u.^3)  0.2071E-01     Volume (a.u.^3)      2684.4593
 PW_GRID| Grid span                                                    FULLSPACE
 PW_GRID|   Distribution                         Average         Max         Min
 PW_GRID|   G-Vectors                            16200.0       16320       16080
 PW_GRID|   G-Rays                                 270.0         272         268
 PW_GRID|   Real Space Points                    16200.0       17280       15120

 PW_GRID| Information for grid number                                          4
 PW_GRID| Number of the reference grid                                         1
 PW_GRID| Grid distributed over                                     8 processors
 PW_GRID| Real space group dimensions                                     8    1
 PW_GRID| the grid is blocked:                                                NO
 PW_GRID| Cutoff [a.u.]                                                     18.5
 PW_GRID| spherical cutoff:                                                   NO
 PW_GRID|   Bounds   1            -16      15                Points:          32
 PW_GRID|   Bounds   2             -9       8                Points:          18
 PW_GRID|   Bounds   3            -20      19                Points:          40
 PW_GRID| Volume element (a.u.^3)  0.1165         Volume (a.u.^3)      2684.4593
 PW_GRID| Grid span                                                    FULLSPACE
 PW_GRID|   Distribution                         Average         Max         Min
 PW_GRID|   G-Vectors                             2880.0        2944        2784
 PW_GRID|   G-Rays                                  90.0          92          87
 PW_GRID|   Real Space Points                     2880.0        2880        2880

 POISSON| Solver                                                        PERIODIC
 POISSON| Periodicity                                                        XYZ

 RS_GRID| Information for grid number                                          1
 RS_GRID|   Bounds   1            -90      89                Points:         180
 RS_GRID|   Bounds   2            -45      44                Points:          90
 RS_GRID|   Bounds   3           -100      99                Points:         200
 RS_GRID| Real space fully replicated
 RS_GRID| Group size                                                           1

 RS_GRID| Information for grid number                                          2
 RS_GRID|   Bounds   1            -48      47                Points:          96
 RS_GRID|   Bounds   2            -27      26                Points:          54
 RS_GRID|   Bounds   3            -60      59                Points:         120
 RS_GRID| Real space fully replicated
 RS_GRID| Group size                                                           1

 RS_GRID| Information for grid number                                          3
 RS_GRID|   Bounds   1            -30      29                Points:          60
 RS_GRID|   Bounds   2            -15      14                Points:          30
 RS_GRID|   Bounds   3            -36      35                Points:          72
 RS_GRID| Real space fully replicated
 RS_GRID| Group size                                                           1

 RS_GRID| Information for grid number                                          4
 RS_GRID|   Bounds   1            -16      15                Points:          32
 RS_GRID|   Bounds   2             -9       8                Points:          18
 RS_GRID|   Bounds   3            -20      19                Points:          40
 RS_GRID| Real space fully replicated
 RS_GRID| Group size                                                           1

 Number of electrons:                                                         56
 Number of occupied orbitals:                                                 28
 Number of molecular orbitals:                                               104

 Number of orbital functions:                                                104
 Number of independent orbital functions:                                    104

 Extrapolation method: initial_guess

 Atomic guess: The first density matrix is obtained in terms of atomic orbitals
               and electronic configurations assigned to each atomic kind

 Guess for atomic kind: I

 Electronic structure
    Total number of core electrons                                         46.00
    Total number of valence electrons                                       7.00
    Total number of electrons                                              53.00
    Multiplicity                                                   not specified
    S   [  2.00  2.00  2.00  2.00] 2.00
    P   [  6.00  6.00  6.00] 5.00
    D   [ 10.00 10.00]


 *******************************************************************************
                  Iteration          Convergence                     Energy [au]
 *******************************************************************************
                          1        0.532977                     -11.165083844287
                          2        0.284718                     -11.260341603461
                          3        0.110093E-01                 -11.284753208907
                          4        0.682721E-03                 -11.284790423047
                          5        0.407487E-03                 -11.284790516377
                          6        0.294730E-03                 -11.284790541002
                          7        0.278103E-05                 -11.284790568014
                          8        0.219861E-08                 -11.284790568016

 Energy components [Hartree]           Total Energy ::          -11.284790568016
                                        Band Energy ::           -2.415752492967
                                     Kinetic Energy ::            3.290365082758
                                   Potential Energy ::          -14.575155650775
                                      Virial (-V/T) ::            4.429646949255
                                        Core Energy ::          -18.664021069512
                                          XC Energy ::           -2.143541182076
                                     Coulomb Energy ::            9.522771683572
                       Total Pseudopotential Energy ::          -22.032893536170
                       Local Pseudopotential Energy ::          -22.653046683157
                    Nonlocal Pseudopotential Energy ::            0.620153146987
                                        Confinement ::            0.785073838996

 Orbital energies  State     L     Occupation   Energy[a.u.]          Energy[eV]

                       1     0          2.000      -0.613887          -16.704713

                       1     1          5.000      -0.237596           -6.465308


 Total Electron Density at R=0:                                         0.000923
 Re-scaling the density matrix to get the right number of electrons
                  # Electrons              Trace(P)               Scaling factor
                           56                56.000                        1.000


 SCF WAVEFUNCTION OPTIMIZATION

  Step     Update method      Time    Convergence         Total energy    Change
  ------------------------------------------------------------------------------
     1 NoMix/Diag. 0.50E-01    2.1     0.58823722       -91.9905664749 -9.20E+01
     2 Broy./Diag. 0.50E-01    2.1     0.00079887       -92.4353645949 -4.45E-01
     3 Broy./Diag. 0.50E-01    2.1     0.02577971       -92.1867299267  2.49E-01
     4 Broy./Diag. 0.50E-01    2.1     0.00036502       -92.0451340249  1.42E-01
     5 Broy./Diag. 0.50E-01    2.2     0.00969599       -91.8959485672  1.49E-01
     6 Broy./Diag. 0.50E-01    2.2     0.00018721       -91.8068300687  8.91E-02
     7 Broy./Diag. 0.50E-01    2.2     0.00426803       -91.7709149093  3.59E-02
     8 Broy./Diag. 0.50E-01    2.2     0.00010664       -91.7393618803  3.16E-02
     9 Broy./Diag. 0.50E-01    2.2     0.00156960       -91.7299874383  9.37E-03
    10 Broy./Diag. 0.50E-01    2.2     0.00002226       -91.7269259846  3.06E-03
    11 Broy./Diag. 0.50E-01    2.2     0.00041041       -91.7213542089  5.57E-03
    12 Broy./Diag. 0.50E-01    2.2     0.00000898       -91.7202656400  1.09E-03
    13 Broy./Diag. 0.50E-01    2.2     0.00006180       -91.7203093464 -4.37E-05
    14 Broy./Diag. 0.50E-01    2.2     0.00000349       -91.7201826714  1.27E-04
    15 Broy./Diag. 0.50E-01    2.2     0.00002415       -91.7206336694 -4.51E-04
    16 Broy./Diag. 0.50E-01    2.2     0.00001453       -91.7210397998 -4.06E-04
    17 Broy./Diag. 0.50E-01    2.2     0.00001625       -91.7214725221 -4.33E-04
    18 Broy./Diag. 0.50E-01    2.2     0.00000469       -91.7217187403 -2.46E-04
    19 Broy./Diag. 0.50E-01    2.2     0.00000272       -91.7217992894 -8.05E-05
    20 Broy./Diag. 0.50E-01    2.2     0.00000349       -91.7218683530 -6.91E-05
    21 Broy./Diag. 0.50E-01    2.2     0.00000427       -91.7219143551 -4.60E-05
    22 Broy./Diag. 0.50E-01    2.2     0.00000370       -91.7219287937 -1.44E-05
    23 Broy./Diag. 0.50E-01    2.2     0.00000059       -91.7219240146  4.78E-06
    24 Broy./Diag. 0.50E-01    2.2     0.00000104       -91.7219228300  1.18E-06
    25 Broy./Diag. 0.50E-01    2.3     0.00000056       -91.7219250072 -2.18E-06
    26 Broy./Diag. 0.50E-01    2.2     0.00000100       -91.7219220599  2.95E-06
    27 Broy./Diag. 0.50E-01    2.2     0.00000061       -91.7219107427  1.13E-05
    28 Broy./Diag. 0.50E-01    2.2     0.00000025       -91.7219032849  7.46E-06
    29 Broy./Diag. 0.50E-01    2.2     0.00000061       -91.7219082538 -4.97E-06
    30 Broy./Diag. 0.50E-01    2.2     0.00000048       -91.7219159374 -7.68E-06
    31 Broy./Diag. 0.50E-01    2.2     0.00000053       -91.7219229898 -7.05E-06
    32 Broy./Diag. 0.50E-01    2.2     0.00000021       -91.7219281254 -5.14E-06
    33 Broy./Diag. 0.50E-01    2.2     0.00000025       -91.7219359999 -7.87E-06
    34 Broy./Diag. 0.50E-01    2.2     0.00000072       -91.7219579953 -2.20E-05
    35 Broy./Diag. 0.50E-01    2.2     0.00000010       -91.7219628761 -4.88E-06
    36 Broy./Diag. 0.50E-01    2.2     0.00000028       -91.7219659441 -3.07E-06
    37 Broy./Diag. 0.50E-01    2.2     0.00000008       -91.7219680800 -2.14E-06
    38 Broy./Diag. 0.50E-01    2.2     0.00000019       -91.7219709915 -2.91E-06
    39 Broy./Diag. 0.50E-01    2.2     0.00000005       -91.7219714348 -4.43E-07
    40 Broy./Diag. 0.50E-01    2.2     0.00000008       -91.7219701850  1.25E-06
    41 Broy./Diag. 0.50E-01    2.2     0.00000010       -91.7219690934  1.09E-06
    42 Broy./Diag. 0.50E-01    2.2     0.00000005       -91.7219682875  8.06E-07
    43 Broy./Diag. 0.50E-01    2.2     0.00000006       -91.7219670818  1.21E-06
    44 Broy./Diag. 0.50E-01    2.2     0.00000005       -91.7219653553  1.73E-06
    45 Broy./Diag. 0.50E-01    2.2     8.7463E-09       -91.7219648878  4.67E-07
    46 Broy./Diag. 0.50E-01    2.2     0.00000012       -91.7219643960  4.92E-07
    47 Broy./Diag. 0.50E-01    2.2     0.00000002       -91.7219641402  2.56E-07
    48 Broy./Diag. 0.50E-01    2.3     0.00000002       -91.7219640954  4.48E-08
    49 Broy./Diag. 0.50E-01    2.2     5.6839E-09       -91.7219641523 -5.69E-08
    50 Broy./Diag. 0.50E-01    2.2     0.00000004       -91.7219646971 -5.45E-07
    51 Broy./Diag. 0.50E-01    2.2     6.1311E-09       -91.7219650245 -3.27E-07
    52 Broy./Diag. 0.50E-01    2.2     4.4414E-09       -91.7219650766 -5.21E-08
    53 Broy./Diag. 0.50E-01    2.2     3.7301E-09       -91.7219651630 -8.64E-08
    54 Broy./Diag. 0.50E-01    2.2     2.5926E-09       -91.7219652166 -5.36E-08
    55 Broy./Diag. 0.50E-01    2.2     2.5684E-09       -91.7219652634 -4.68E-08
    56 Broy./Diag. 0.50E-01    2.2     2.1424E-09       -91.7219652389  2.44E-08
    57 Broy./Diag. 0.50E-01    2.2     1.4307E-09       -91.7219652111  2.78E-08
    58 Broy./Diag. 0.50E-01    2.2     7.5033E-09       -91.7219651067  1.04E-07
    59 Broy./Diag. 0.50E-01    2.2     3.5271E-09       -91.7219650071  9.96E-08
    60 Broy./Diag. 0.50E-01    2.3     3.7202E-09       -91.7219649034  1.04E-07
    61 Broy./Diag. 0.50E-01    2.2     4.2365E-10       -91.7219648643  3.92E-08

  *** SCF run converged in    61 steps ***


  Electronic density on regular grids:        -56.0000000000       -0.0000000000
  Core density on regular grids:               56.0000000000        0.0000000000
  Total charge density on r-space grids:       -0.0000000000
  Total charge density g-space grids:          -0.0000000000

  Overlap energy of the core charge distribution:               0.00000000154846
  Self energy of the core charge distribution:               -197.46635424171470
  Core Hamiltonian energy:                                     39.36833168859386
  Hartree energy:                                              84.32064346587359
  Exchange-correlation energy:                                -17.94458577856477

  Total energy:                                               -91.72196486426355

 !-----------------------------------------------------------------------------!
                     Mulliken Population Analysis

 #  Atom  Element  Kind  Atomic population                           Net charge
       1     I        1          7.000000                              0.000000
       2     I        1          7.000000                              0.000000
       3     I        1          7.000000                             -0.000000
       4     I        1          7.000000                             -0.000000
       5     I        1          7.000000                              0.000000
       6     I        1          7.000000                              0.000000
       7     I        1          7.000000                             -0.000000
       8     I        1          7.000000                             -0.000000
 # Total charge                             56.000000                  0.000000

 !-----------------------------------------------------------------------------!

 !-----------------------------------------------------------------------------!
                           Hirshfeld Charges

  #Atom  Element  Kind  Ref Charge     Population                    Net charge
      1       I      1       7.000          7.000                         0.000
      2       I      1       7.000          7.000                         0.000
      3       I      1       7.000          7.000                         0.000
      4       I      1       7.000          7.000                         0.000
      5       I      1       7.000          7.000                        -0.000
      6       I      1       7.000          7.000                        -0.000
      7       I      1       7.000          7.000                        -0.000
      8       I      1       7.000          7.000                        -0.000

  Total Charge                                                           -0.000
 !-----------------------------------------------------------------------------!

 KPOINTS| Band Structure Calculation
 KPOINTS| Number of k-point sets                                               1
 KPOINTS| Number of added MOs/bands                                           -1
 KPOINTS| Number of k-points in set    1                                     148
 KPOINTS| In units of b-vector [2pi/Bohr]
 KPOINTS| Special point     1 not specifi     0.000000     0.000000     0.000000
 KPOINTS| Special point     2 not specifi     0.500000     0.500000     0.000000
 KPOINTS| Special point     3 not specifi     0.320485     0.679515     0.000000
 KPOINTS| Special point     4 not specifi     0.000000     0.000000     0.000000
 KPOINTS| Time for k-point line                                            1.071

 ENERGY| Total FORCE_EVAL ( QS ) energy [hartree]            -91.721964864263555

 -------------------------------------------------------------------------------
 -                                                                             -
 -                                DBCSR STATISTICS                             -
 -                                                                             -
 -------------------------------------------------------------------------------
 COUNTER                                    TOTAL       BLAS       SMM       ACC
 flops inhomo. stacks                           0       0.0%      0.0%      0.0%
 flops total                         0.000000E+00       0.0%      0.0%      0.0%
 flops max/rank                      0.000000E+00       0.0%      0.0%      0.0%
 matmuls inhomo. stacks                         0       0.0%      0.0%      0.0%
 matmuls total                                  0       0.0%      0.0%      0.0%
 number of processed stacks                     0       0.0%      0.0%      0.0%
 average stack size                                     0.0       0.0       0.0
 marketing flops                     0.000000E+00
 -------------------------------------------------------------------------------
 -                                                                             -
 -                      DBCSR MESSAGE PASSING PERFORMANCE                      -
 -                                                                             -
 -------------------------------------------------------------------------------
 ROUTINE             CALLS      AVE VOLUME [Bytes]
 MP_Bcast                1                     12.
 MP_Allreduce           19                     21.
 MP_Alltoall       1303056                   5702.
 -------------------------------------------------------------------------------

 -------------------------------------------------------------------------------
 -                                                                             -
 -                                DBM STATISTICS                               -
 -                                                                             -
 -------------------------------------------------------------------------------
    M  x    N  x    K                                          COUNT     PERCENT
 -------------------------------------------------------------------------------

 -------------------------------------------------------------------------------
 -                                                                             -
 -                                GRID STATISTICS                              -
 -                                                                             -
 -------------------------------------------------------------------------------
 LP    KERNEL             BACKEND                              COUNT     PERCENT
 4     collocate ortho    CPU                                1379376      50.41%
 4     integrate ortho    CPU                                1357128      49.59%
 0     collocate general  CPU                                     16       0.00%
 0     integrate general  CPU                                      8       0.00%
 -------------------------------------------------------------------------------

 MEMORY| Estimated peak process memory [MiB]                                 861

 -------------------------------------------------------------------------------
 ----                             MULTIGRID INFO                            ----
 -------------------------------------------------------------------------------
 count for grid        1:              0          cutoff [a.u.]          500.00
 count for grid        2:          10584          cutoff [a.u.]          166.67
 count for grid        3:          34224          cutoff [a.u.]           55.56
 count for grid        4:          30776          cutoff [a.u.]           18.52
 total gridlevel count  :          75584

 -------------------------------------------------------------------------------
 -                                                                             -
 -                         MESSAGE PASSING PERFORMANCE                         -
 -                                                                             -
 -------------------------------------------------------------------------------

 ROUTINE             CALLS      AVE VOLUME [Bytes]
 MP_Group                6
 MP_Bcast           565964                    901.
 MP_Allreduce        49032                    285.
 MP_Sync                 4
 MP_Alltoall          1103               18136538.
 MP_SendRecv          1750                1042145.
 MP_ISendRecv         1715                1033179.
 MP_Wait            390727
 MP_comm_split           4
 MP_ISend           413324                   2479.
 MP_IRecv           660608                   1553.
 -------------------------------------------------------------------------------


 -------------------------------------------------------------------------------
 -                                                                             -
 -                           R E F E R E N C E S                               -
 -                                                                             -
 -------------------------------------------------------------------------------
 
 CP2K version 2025.1 (Development Version), the CP2K developers group (2025).
 CP2K is freely available from https://www.cp2k.org/ .
 
 T. D. Kuehne, M. Iannuzzi, M. Del Ben, V. V. Rybkin, P. Seewald, F. Stein, T. 
 Laino, R. Z. Khaliullin, O. Schuett, F. Schiffmann, D. Golze, J. Wilhelm, S. 
 Chulkov, M. H. Bani-Hashemian, V. Weber, U. Borstnik, M. Taillefumier, A. S. 
 Jakobovits, A. Lazzaro, H. Pabst, T. Mueller, R. Schade, M. Guidon, S. 
 Andermatt, N. Holmberg, G. K. Schenter, A. Hehn, A. Bussy, F. Belleflamme, G. 
 Tabacchi, A. Gloess, M. Lass, I. Bethune, C. J. Mundy, C. Plessl, M. Watkins, 
 J. VandeVondele, M. Krack, J. Hutter.
 J. Chem. Phys. 152, 194103 (2020).
 CP2K: An electronic structure and molecular dynamics software package - 
 Quickstep: Efficient and accurate electronic structure calculations.
 https://doi.org/10.1063/5.0007045

 O. Schuett, P. Messmer, J. Hutter, J. VandeVondele.
 Electronic Structure Calculations on Graphics Processing Units, 173-190 (2016).
 GPU-Accelerated Sparse Matrix-Matrix Multiplication for Linear Scaling Density 
 Functional Theory.
 https://doi.org/10.1002/9781118670712.ch8

 J. Hutter, M. Iannuzzi, F. Schiffmann, J. VandeVondele.
 WIREs Comput Mol Sci. 4, 15-25 (2014).
 CP2K: atomistic simulations of condensed matter systems.
 https://doi.org/10.1002/wcms.1159

 U. Borstnik, J. VandeVondele, V. Weber, J. Hutter.
 Parallel Comput. 40, 47-58 (2014).
 Sparse matrix multiplication: The distributed block-compressed sparse row 
 library.
 https://doi.org/10.1016/j.parco.2014.03.012

 J. VandeVondele, J. Hutter.
 J. Chem. Phys. 127, 114105 (2007).
 Gaussian basis sets for accurate calculations on molecular systems in gas and 
 condensed phases.
 https://doi.org/10.1063/1.2770708

 J. VandeVondele, M. Krack, F. Mohamed, M. Parrinello, T. Chassaing, J. Hutter.
 Comput. Phys. Commun. 167, 103-128 (2005).
 QUICKSTEP: Fast and accurate density functional calculations using a mixed 
 Gaussian and plane waves approach.
 https://doi.org/10.1016/j.cpc.2004.12.014

 M. Krack.
 Theor. Chem. Acc. 114, 145-152 (2005).
 Pseudopotentials for H to Kr optimized for gradient-corrected 
 exchange-correlation functionals.
 https://doi.org/10.1007/s00214-005-0655-y

 M. Frigo, S. G. Johnson.
 Proc. IEEE 93, 216-231 (2005).
 The design and implementation of FFTW3.
 https://doi.org/10.1109/JPROC.2004.840301

 C. Hartwigsen, S. Goedecker, J. Hutter.
 Phys. Rev. B 58, 3641-3662 (1998).
 Relativistic separable dual-space Gaussian pseudopotentials from H to Rn.
 https://doi.org/10.1103/PhysRevB.58.3641

 G. Lippert, J. Hutter, M. Parrinello.
 Mol. Phys. 92, 477-487 (1997).
 A hybrid Gaussian and plane wave density functional scheme.
 https://doi.org/10.1080/002689797170220

 S. Goedecker, M. Teter, J. Hutter.
 Phys. Rev. B 54, 1703-1710 (1996).
 Separable dual-space Gaussian pseudopotentials.
 https://doi.org/10.1103/PhysRevB.54.1703

 J. P. Perdew, K. Burke, M. Ernzerhof.
 Phys. Rev. Lett. 77, 3865-3868 (1996).
 Generalized gradient approximation made simple.
 https://doi.org/10.1103/PhysRevLett.77.3865


 -------------------------------------------------------------------------------
 -                                                                             -
 -                                T I M I N G                                  -
 -                                                                             -
 -------------------------------------------------------------------------------
 SUBROUTINE                       CALLS  ASD         SELF TIME        TOTAL TIME
                                MAXIMUM       AVERAGE  MAXIMUM  AVERAGE  MAXIMUM
 CP2K                                 1  1.0    0.010    0.013  136.531  136.532
 qs_energies                          1  2.0    0.020    0.152  136.143  136.217
 scf_env_do_scf                       1  3.0    0.000    0.000  134.656  134.656
 scf_env_do_scf_inner_loop           61  4.0    0.016    0.019  134.655  134.656
 do_general_diag_kp                  62  6.0    0.369    0.388  110.488  111.644
 qs_scf_new_mos_kp                   61  5.0    0.001    0.001  109.585  110.751
 dbcsr_complete_redistribute      95328  8.3    3.914    4.075   30.456   34.557
 copy_dbcsr_to_fm                 64096  7.0    0.704    0.742   31.942   32.398
 kpoint_density_transform            61  7.0    0.130    0.139   28.459   28.480
 dbcsr_desymmetrize_deep         127152  7.5    2.261    2.354   17.419   25.596
 rskp_transform                   31528  7.0   22.269   24.923   22.269   24.923
 mp_alltoall_i22                 222480  8.8    8.568   20.462    8.568   20.462
 copy_fm_to_dbcsr                 31232  8.0    0.196    0.206   11.383   14.968
 qs_ks_update_qs_env                 61  5.0    0.000    0.000   11.935   12.480
 cp_fm_start_copy_general         94288  7.3    2.109    2.730   12.078   12.174
 transform_dmat                   15616  8.0   10.821   12.125   10.821   12.125
 rebuild_ks_matrix                   61  6.0    0.000    0.000   11.447   11.992
 qs_ks_build_kohn_sham_matrix        61  7.0    0.032    0.033   11.447   11.991
 dbcsr_finalize                  227376  8.8    1.129    1.224    8.077    8.554
 cp_cfm_geeig                      1989  6.9    0.017    0.019    7.969    8.056
 mp_alltoall_d11v                667440  9.4    7.050    7.492    7.050    7.492
 qs_rho_update_rho_low               62  5.0    0.000    0.000    7.136    7.146
 calculate_rho_elec                  62  6.0    0.183    0.188    7.135    7.146
 mp_allgather_i                  188576  8.3    6.419    6.681    6.419    6.681
 fft_wrap_pw1pw2                   1103 10.0    0.016    0.020    6.242    6.313
 cp_cfm_heevd                      1989  7.9    0.003    0.003    6.086    6.156
 cp_cfm_heevd_base                 1989  8.9    6.083    6.153    6.083    6.153
 sum_up_and_integrate                61  8.0    0.001    0.001    5.525    6.079
 integrate_v_rspace                  61  9.0    0.033    0.052    5.516    6.071
 fft_wrap_pw1pw2_500                734 11.3    0.493    0.526    5.929    6.017
 mp_cart_sub                     128194  9.0    5.238    5.266    5.238    5.266
 fft3d_ps                          1103 12.0    2.329    2.359    4.770    4.859
 dbcsr_merge_all                  95328 10.3    2.587    2.941    4.458    4.840
 qs_vxc_create                       61  8.0    0.001    0.001    4.817    4.827
 xc_vxc_pw_create                    61  9.0    0.189    0.194    4.816    4.827
 hybrid_alltoall_any             127152  8.5    0.534    0.568    4.417    4.693
 gspace_mixing                       60  5.0    0.172    0.176    4.653    4.654
 mp_alltoall_i11v                413136  9.0    4.219    4.324    4.219    4.324
 grid_collocate_task_list            62  7.0    3.977    4.316    3.977    4.316
 grid_integrate_task_list            61 10.0    3.628    4.154    3.628    4.154
 broyden_mixing                      60  6.0    3.855    3.949    3.930    3.958
 density_rs2pw                       62  7.0    0.002    0.003    2.958    3.608
 xc_pw_derive                       366 11.0    0.002    0.002    3.109    3.139
 mp_cart_create                   64103  9.0    3.071    3.133    3.071    3.133
 xc_rho_set_and_dset_create          61 10.0    0.098    0.103    2.584    2.615
 mp_bcast_iv                     377178  8.3    2.237    2.533    2.237    2.533
 transfer_rs2pw                     250  8.0    0.003    0.003    1.836    2.514
 transfer_rs2pw_500                  64  9.0    0.665    0.771    1.504    2.204
 dbcsr_work_create               222480  8.8    1.375    1.433    2.119    2.196
 mp_alltoall_z22v                  1103 14.0    2.031    2.118    2.031    2.118
 dbcsr_create_new                351779  8.4    1.645    1.730    1.979    2.087
 xc_pw_divergence                    61 10.0    0.001    0.001    2.017    2.041
 potential_pw2rs                     61 10.0    0.009    0.009    1.856    1.865
 dbcsr_work_destroy_all          222480  9.8    1.054    1.077    1.667    1.703
 mp_sendrecv_dv                    1750 10.0    1.028    1.598    1.028    1.598
 dbcsr_iterator_start            651115  9.1    1.316    1.331    1.533    1.557
 copy_fm_to_dbcsr_bc              31232  9.0    0.434    0.450    1.482    1.548
 dbcsr_copy                       63212  7.7    0.221    0.231    1.379    1.531
 copy_dbcsr_to_fm_bc              64096  8.0    0.657    0.693    1.433    1.484
 x_to_yz                            610 13.2    0.241    0.248    1.412    1.479
 cp_fm_finish_copy_general        39188  7.8    1.351    1.389    1.421    1.455
 dbcsr_data_new                 2385076  9.8    1.330    1.406    1.330    1.406
 tree_to_linear_d                 95328 11.3    1.279    1.336    1.279    1.336
 dbcsr_data_release             3290495 10.2    1.293    1.328    1.293    1.328
 transfer_pw2rs                     245 11.0    0.002    0.003    1.254    1.255
 dbcsr_copy_into_existing         31492 10.0    0.920    1.059    1.104    1.246
 cp_cfm_triangular_multiply        5967  7.9    1.123    1.138    1.123    1.138
 mp_waitall_1                    390727  8.3    0.751    1.126    0.751    1.126
 yz_to_x                            493 12.9    0.158    0.170    1.018    1.062
 write_kpoints_restart               61  5.0    0.005    0.010    1.055    1.056
 dbcsr_destroy                   320059  8.3    0.536    0.550    0.990    1.039
 transfer_pw2rs_500                  62 11.9    0.494    0.510    0.941    0.973
 dbcsr_iterator_stop             651115  9.1    0.811    0.821    0.956    0.967
 xc_functional_eval                  61 11.0    0.001    0.001    0.837    0.867
 pbe_lda_eval                        61 12.0    0.837    0.866    0.837    0.866
 kpoint_density_matrices             61  7.0    0.040    0.042    0.770    0.785
 mp_bcast_im                     188576  8.3    0.685    0.776    0.685    0.776
 quick_finalize                  127152  9.5    0.417    0.432    0.730    0.745
 parallel_gemm_fm                  7808  8.0    0.007    0.007    0.702    0.717
 parallel_gemm_fm_gemm             7808  9.0    0.007    0.007    0.695    0.710
 cp_fm_gemm                        7808 10.0    0.687    0.703    0.687    0.703
 pw_scatter_p                       610 12.2    0.575    0.594    0.575    0.594
 cp_fm_write_unformatted           1040  6.0    0.242    0.508    0.297    0.542
 mp_comm_free                    192331  9.0    0.498    0.540    0.498    0.540
 evaluate_core_matrix_traces         61  6.0    0.000    0.000    0.488    0.488
 calculate_ptrace_kp                122  7.0    0.024    0.027    0.488    0.488
 dbcsr_dot                        31721  8.0    0.188    0.200    0.466    0.471
 mp_isend_dv                      94880  8.3    0.375    0.403    0.375    0.403
 pw_poisson_solve                    61  8.0    0.001    0.001    0.388    0.390
 dbcsr_sort_indices              255900 10.9    0.360    0.381    0.360    0.381
 cp_cfm_triangular_invert          1989  7.9    0.357    0.362    0.357    0.362
 cp_cfm_cholesky_decompose         1989  7.9    0.337    0.346    0.337    0.346
 mp_send_dv                        1040  7.0    0.051    0.307    0.051    0.307
 mp_sum_d                         32631  8.9    0.259    0.307    0.259    0.307
 dbcsr_set                       191909  8.1    0.189    0.193    0.291    0.303
 self_consistency_check              61  5.0    0.023    0.024    0.284    0.298
 mp_isendrecv_dv                   1715 13.0    0.110    0.295    0.110    0.295
 transfer_rs2pw_170                  62  9.0    0.115    0.121    0.258    0.284
 kpoint_set_mo_occupation            61  7.0    0.074    0.075    0.217    0.268
 dbcsr_reserve_all_blocks         31232 10.0    0.053    0.058    0.250    0.262
 transfer_pw2rs_170                  61 12.0    0.110    0.119    0.230    0.258
 pw_integral_ab_c1d_c1d_gs           61  9.0    0.240    0.245    0.247    0.249
 cp_sm_mix                        15860  6.0    0.079    0.085    0.230    0.248
 dbcsr_iterator_seek             651115 10.1    0.217    0.238    0.217    0.238
 pw_gather_p                        493 11.9    0.227    0.236    0.227    0.236
 fft_wrap_pw1pw2_170                123 10.5    0.020    0.023    0.217    0.234
 dbcsr_make_index_exist          351779  9.4    0.208    0.223    0.208    0.223
 dbcsr_reserve_blocks             33420 10.7    0.175    0.183    0.211    0.221
 init_scf_run                         1  3.0    0.000    0.000    0.202    0.207
 scf_env_initial_rho_setup            1  4.0    0.000    0.000    0.201    0.207
 merge_index                      95328 11.3    0.192    0.203    0.192    0.203
 pw_derive                          549 11.3    0.190    0.200    0.190    0.200
 mp_sum_dv                          356  3.7    0.086    0.199    0.086    0.199
 mp_sum_dm3                          61  8.0    0.143    0.195    0.143    0.195
 mp_irecv_iv                     377152  8.3    0.023    0.186    0.023    0.186
 dbcsr_data_copy_aa2              95328 11.3    0.162    0.181    0.162    0.181
 qs_energies_init_hamiltonians        1  3.0    0.000    0.000    0.171    0.171
 pw_copy                            915 10.5    0.159    0.170    0.159    0.170
 dbcsr_switch_data_area          127152 10.5    0.113    0.116    0.149    0.151
 restraint_control                    1  2.0    0.000    0.000    0.074    0.149
 mp_sum_i                             4  2.8    0.074    0.149    0.074    0.149
 mp_max_d                         15862  7.0    0.114    0.146    0.114    0.146
 cp_fm_cleanup_copy_general       66960  7.0    0.094    0.096    0.141    0.143
 qs_init_subsys                       1  2.0    0.001    0.002    0.137    0.137
 qs_env_setup                         1  3.0    0.000    0.000    0.134    0.135
 qs_env_rebuild_pw_env                2  3.5    0.000    0.000    0.133    0.134
 pw_env_rebuild                       1  5.0    0.001    0.001    0.133    0.134
 mp_isend_iv                     212296  8.3    0.033    0.125    0.033    0.125
 pw_grid_setup                        4  6.0    0.000    0.000    0.124    0.125
 pw_grid_setup_internal               4  7.0    0.003    0.003    0.124    0.125
 dbcsr_distribution_new           95330  8.6    0.091    0.124    0.091    0.124
 cp_cfm_scale_and_add_fm           7956  6.9    0.122    0.124    0.122    0.124
 dbcsr_zero                      191909  9.1    0.102    0.110    0.102    0.110
 parser_read_line                  7394  4.1    0.002    0.003    0.103    0.104
 pw_poisson_set                      62  9.0    0.001    0.001    0.103    0.104
 dbcsr_get_data_size_used        222480  9.8    0.094    0.104    0.094    0.104
 parser_read_line_low                25  6.1    0.009    0.037    0.100    0.102
 build_core_hamiltonian_matrix        1  4.0    0.001    0.001    0.086    0.099
 broadcast_input_information         25  7.1    0.030    0.040    0.091    0.097
 pw_grid_sort                         4  8.0    0.059    0.061    0.091    0.093
 qs_env_update_s_mstruct              1  4.0    0.000    0.000    0.080    0.092
 mp_irecv_im2                    188576  8.3    0.011    0.090    0.011    0.090
 cp_dbcsr_alloc_block_from_nbl     2188  5.4    0.063    0.069    0.078    0.085
 pw_copy_from_array                 610 12.2    0.072    0.082    0.072    0.082
 dbcsr_make_dbcsr_index          255900 10.9    0.077    0.080    0.077    0.080
 calculate_rho_core                   1  5.0    0.005    0.005    0.061    0.079
 scf_post_calculation_gpw             1  3.0    0.000    0.000    0.076    0.076
 write_available_results              1  4.0    0.000    0.000    0.076    0.076
 write_mo_free_results                1  5.0    0.004    0.004    0.076    0.076
 topology_control                     1  2.0    0.000    0.000    0.075    0.075
 pw_axpy                            614  9.3    0.068    0.073    0.068    0.073
 pw_copy_to_array                   493 11.9    0.064    0.072    0.064    0.072
 create_qs_kind_set                   1  2.0    0.000    0.000    0.070    0.070
 read_qs_kind                         1  3.0    0.036    0.037    0.070    0.070
 transfer_pw2rs_60                   61 12.0    0.025    0.026    0.065    0.070
 mp_sum_dm                           60  7.0    0.050    0.069    0.050    0.069
 fft_wrap_pw1pw2_60                 123 10.5    0.004    0.005    0.060    0.063
 mp_irecv_dv                      94880  8.3    0.054    0.058    0.054    0.058
 mp_isend_im2                    106148  8.3    0.014    0.057    0.014    0.057
 transfer_rs2pw_60                   62  9.0    0.020    0.020    0.055    0.056
 mixing_init                          1  5.0    0.050    0.052    0.052    0.053
 read_cell_cif                        2  4.5    0.002    0.005    0.051    0.052
 cp_cfm_to_fm                      1989  6.9    0.050    0.050    0.050    0.050
 cp_cfm_to_cfm_columns             1989  7.9    0.049    0.050    0.049    0.050
 coordinate_control                   1  3.0    0.001    0.001    0.046    0.046
 coordinate_control_READ_COORDI       1  4.0    0.000    0.000    0.045    0.046
 read_coordinate_cif                  1  5.0    0.002    0.002    0.045    0.046
 pw_zero                            306 10.4    0.038    0.041    0.038    0.041
 mp_bcast_i_src                     100  8.1    0.033    0.039    0.033    0.039
 calculate_hirshfeld_normalizat       1  6.0    0.015    0.015    0.036    0.037
 mp_recv_dv                        3120  7.0    0.004    0.034    0.004    0.034
 sort_shells                          4  9.0    0.032    0.033    0.032    0.033
 hirshfeld_integration                1  6.0    0.018    0.018    0.033    0.033
 mp_bcast_am_src                     25  8.1    0.016    0.018    0.028    0.029
 cp_fm_to_fm_matrix                3904  8.0    0.028    0.028    0.028    0.028
 build_core_ppnl                      1  5.0    0.022    0.028    0.022    0.028
 mixing_allocate                      1  3.0    0.002    0.002    0.023    0.025
 fft_wrap_pw1pw2_20                 123 10.5    0.001    0.001    0.021    0.021
 pw_grid_assign                       4  8.0    0.019    0.019    0.019    0.020
 build_overlap_matrix_low             1  5.0    0.005    0.006    0.016    0.018
 transfer_pw2rs_20                   61 12.0    0.006    0.007    0.016    0.017
 build_kinetic_matrix_low             1  5.0    0.005    0.005    0.015    0.016
 transfer_rs2pw_20                   62  9.0    0.005    0.006    0.015    0.016
 build_core_ppl                       1  5.0    0.011    0.015    0.011    0.015
 pw_multiply_with                    61  9.0    0.014    0.015    0.014    0.015
 cp_fm_create                       484  4.2    0.014    0.014    0.014    0.014
 -------------------------------------------------------------------------------

 The number of warnings for this run is : 1
 
 -------------------------------------------------------------------------------
  **** **** ******  **  PROGRAM ENDED AT                 2025-08-04 17:43:10.101
 ***** ** ***  *** **   PROGRAM RAN ON                              i04r10c01s10
 **    ****   ******    PROGRAM RAN BY                                   di38fab
 ***** **    ** ** **   PROGRAM PROCESS ID                                 13766
  **** **  *******  **  PROGRAM STOPPED IN /hppfs/scratch/04/di38fab/09_GTH/Delt
                                           a_Set/I/aug-SZV-MOLOPT-GTH-tier-2-SR/
                                           8x8x8
