Mn                                      
   1.00000000000000     
     3.595520    0.000000    0.000000
     0.000000    3.595520    0.000000
     0.000000    0.000000    3.595520
   Mn
     4
Direct
  0.000000  0.000000  0.000000
  0.000000  0.500000  0.500000
  0.500000  0.000000  0.500000
  0.500000  0.500000  0.000000
 
   32   32   32
  802.75      768.59      670.96      526.06      362.31      213.66      106.14      47.020      24.489      17.436    
  13.810      11.959      10.979      10.367      9.9827      9.8115      9.7746      9.8115      9.9827      10.367    
  10.979      11.959      13.810      17.436      24.489      47.020      106.14      213.66      362.31      526.06    
  670.96      768.59      767.95      734.84      640.37      500.63      343.45      201.61      99.870      44.639    
  23.951      17.285      13.782      11.982      11.018      10.410      10.024      9.8477      9.8078      9.8477    
  10.024      10.410      11.018      11.982      13.782      17.285      23.951      44.639      99.870      201.61    
  343.45      500.63      640.37      734.84      668.43      638.50      553.56      429.13      291.05      168.68    
  83.144      38.537      22.615      16.867      13.715      12.065      11.158      10.575      10.197      10.016    
  9.9708      10.016      10.197      10.575      11.158      12.065      13.715      16.867      22.615      38.537    
  83.144      168.68      291.05      429.13      553.56      638.50      521.01      496.29      426.72      326.35    
  217.44      123.91      61.538      31.286      20.987      16.284      13.646      12.231      11.430      10.906    
  10.563      10.389      10.343      10.389      10.563      10.906      11.430      12.231      13.646      16.284    
  20.987      31.286      61.538      123.91      217.44      326.35      426.72      496.29      355.57      337.44    
  286.95      215.67      140.84      79.690      41.908      25.447      19.253      15.667      13.623      12.496    
  11.840      11.408      11.122      10.972      10.929      10.972      11.122      11.408      11.840      12.496    
  13.623      15.667      19.253      25.447      41.908      79.690      140.84      215.67      286.95      337.44    
  207.34      195.93      164.62      121.78      79.009      46.707      28.979      21.694      17.643      15.155    
  13.720      12.921      12.460      12.166      11.976      11.876      11.847      11.876      11.976      12.166    
  12.460      12.921      13.720      15.155      17.643      21.694      28.979      46.707      79.009      121.78    
  164.62      195.93      102.03      96.183      80.512      60.091      41.324      28.818      22.591      18.867    
  16.386      14.886      14.066      13.677      13.531      13.504      13.527      13.561      13.576      13.561    
  13.527      13.504      13.531      13.677      14.066      14.886      16.386      18.867      22.591      28.818    
  41.324      60.091      80.512      96.183      45.173      42.981      37.335      30.567      25.069      21.513    
  18.808      16.840      15.605      14.987      14.849      15.060      15.493      16.020      16.516      16.868    
  16.995      16.868      16.516      16.020      15.493      15.060      14.849      14.987      15.605      16.840    
  18.808      21.513      25.069      30.567      37.335      42.981      23.722      23.238      22.031      20.558    
  18.977      17.494      16.324      15.590      15.342      15.590      16.324      17.494      18.977      20.558    
  22.031      23.238      23.722      23.238      22.031      20.558      18.977      17.494      16.324      15.590    
  15.342      15.590      16.324      17.494      18.977      20.558      22.031      23.238      16.995      16.868    
  16.516      16.020      15.493      15.060      14.849      14.987      15.605      16.840      18.808      21.513    
  25.069      30.567      37.335      42.981      45.173      42.981      37.335      30.567      25.069      21.513    
  18.808      16.840      15.605      14.987      14.849      15.060      15.493      16.020      16.516      16.868    
  13.576      13.561      13.527      13.504      13.531      13.677      14.066      14.886      16.386      18.867    
  22.591      28.818      41.324      60.091      80.512      96.183      102.03      96.183      80.512      60.091    
  41.324      28.818      22.591      18.867      16.386      14.886      14.066      13.677      13.531      13.504    
  13.527      13.561      11.847      11.876      11.976      12.166      12.460      12.921      13.720      15.155    
  17.643      21.694      28.979      46.707      79.009      121.78      164.62      195.93      207.34      195.93    
  164.62      121.78      79.009      46.707      28.979      21.694      17.643      15.155      13.720      12.921    
  12.460      12.166      11.976      11.876      10.929      10.972      11.122      11.408      11.840      12.496    
  13.623      15.667      19.253      25.447      41.908      79.690      140.84      215.67      286.95      337.44    
  355.57      337.44      286.95      215.67      140.84      79.690      41.908      25.447      19.253      15.667    
  13.623      12.496      11.840      11.408      11.122      10.972      10.343      10.389      10.563      10.906    
  11.430      12.231      13.646      16.284      20.987      31.286      61.538      123.91      217.44      326.35    
  426.72      496.29      521.01      496.29      426.72      326.35      217.44      123.91      61.538      31.286    
  20.987      16.284      13.646      12.231      11.430      10.906      10.563      10.389      9.9708      10.016    
  10.197      10.575      11.158      12.065      13.715      16.867      22.615      38.537      83.144      168.68    
  291.05      429.13      553.56      638.50      668.43      638.50      553.56      429.13      291.05      168.68    
  83.144      38.537      22.615      16.867      13.715      12.065      11.158      10.575      10.197      10.016    
  9.8078      9.8477      10.024      10.410      11.018      11.982      13.782      17.285      23.951      44.639    
  99.870      201.61      343.45      500.63      640.37      734.84      767.95      734.84      640.37      500.63    
  343.45      201.61      99.870      44.639      23.951      17.285      13.782      11.982      11.018      10.410    
  10.024      9.8477      9.7746      9.8115      9.9827      10.367      10.979      11.959      13.810      17.436    
  24.489      47.020      106.14      213.66      362.31      526.06      670.96      768.59      802.75      768.59    
  670.96      526.06      362.31      213.66      106.14      47.020      24.489      17.436      13.810      11.959    
  10.979      10.367      9.9827      9.8115      9.8078      9.8477      10.024      10.410      11.018      11.982    
  13.782      17.285      23.951      44.639      99.870      201.61      343.45      500.63      640.37      734.84    
  767.95      734.84      640.37      500.63      343.45      201.61      99.870      44.639      23.951      17.285    
  13.782      11.982      11.018      10.410      10.024      9.8477      9.9708      10.016      10.197      10.575    
  11.158      12.065      13.715      16.867      22.615      38.537      83.144      168.68      291.05      429.13    
  553.56      638.50      668.43      638.50      553.56      429.13      291.05      168.68      83.144      38.537    
  22.615      16.867      13.715      12.065      11.158      10.575      10.197      10.016      10.343      10.389    
  10.563      10.906      11.430      12.231      13.646      16.284      20.987      31.286      61.538      123.91    
  217.44      326.35      426.72      496.29      521.01      496.29      426.72      326.35      217.44      123.91    
  61.538      31.286      20.987      16.284      13.646      12.231      11.430      10.906      10.563      10.389    
  10.929      10.972      11.122      11.408      11.840      12.496      13.623      15.667      19.253      25.447    
  41.908      79.690      140.84      215.67      286.95      337.44      355.57      337.44      286.95      215.67    
  140.84      79.690      41.908      25.447      19.253      15.667      13.623      12.496      11.840      11.408    
  11.122      10.972      11.847      11.876      11.976      12.166      12.460      12.921      13.720      15.155    
  17.643      21.694      28.979      46.707      79.009      121.78      164.62      195.93      207.34      195.93    
  164.62      121.78      79.009      46.707      28.979      21.694      17.643      15.155      13.720      12.921    
  12.460      12.166      11.976      11.876      13.576      13.561      13.527      13.504      13.531      13.677    
  14.066      14.886      16.386      18.867      22.591      28.818      41.324      60.091      80.512      96.183    
  102.03      96.183      80.512      60.091      41.324      28.818      22.591      18.867      16.386      14.886    
  14.066      13.677      13.531      13.504      13.527      13.561      16.995      16.868      16.516      16.020    
  15.493      15.060      14.849      14.987      15.605      16.840      18.808      21.513      25.069      30.567    
  37.335      42.981      45.173      42.981      37.335      30.567      25.069      21.513      18.808      16.840    
  15.605      14.987      14.849      15.060      15.493      16.020      16.516      16.868      23.722      23.238    
  22.031      20.558      18.977      17.494      16.324      15.590      15.342      15.590      16.324      17.494    
  18.977      20.558      22.031      23.238      23.722      23.238      22.031      20.558      18.977      17.494    
  16.324      15.590      15.342      15.590      16.324      17.494      18.977      20.558      22.031      23.238    
  45.173      42.981      37.335      30.567      25.069      21.513      18.808      16.840      15.605      14.987    
  14.849      15.060      15.493      16.020      16.516      16.868      16.995      16.868      16.516      16.020    
  15.493      15.060      14.849      14.987      15.605      16.840      18.808      21.513      25.069      30.567    
  37.335      42.981      102.03      96.183      80.512      60.091      41.324      28.818      22.591      18.867    
  16.386      14.886      14.066      13.677      13.531      13.504      13.527      13.561      13.576      13.561    
  13.527      13.504      13.531      13.677      14.066      14.886      16.386      18.867      22.591      28.818    
  41.324      60.091      80.512      96.183      207.34      195.93      164.62      121.78      79.009      46.707    
  28.979      21.694      17.643      15.155      13.720      12.921      12.460      12.166      11.976      11.876    
  11.847      11.876      11.976      12.166      12.460      12.921      13.720      15.155      17.643      21.694    
  28.979      46.707      79.009      121.78      164.62      195.93      355.57      337.44      286.95      215.67    
  140.84      79.690      41.908      25.447      19.253      15.667      13.623      12.496      11.840      11.408    
  11.122      10.972      10.929      10.972      11.122      11.408      11.840      12.496      13.623      15.667    
  19.253      25.447      41.908      79.690      140.84      215.67      286.95      337.44      521.01      496.29    
  426.72      326.35      217.44      123.91      61.538      31.286      20.987      16.284      13.646      12.231    
  11.430      10.906      10.563      10.389      10.343      10.389      10.563      10.906      11.430      12.231    
  13.646      16.284      20.987      31.286      61.538      123.91      217.44      326.35      426.72      496.29    
  668.43      638.50      553.56      429.13      291.05      168.68      83.144      38.537      22.615      16.867    
  13.715      12.065      11.158      10.575      10.197      10.016      9.9708      10.016      10.197      10.575    
  11.158      12.065      13.715      16.867      22.615      38.537      83.144      168.68      291.05      429.13    
  553.56      638.50      767.95      734.84      640.37      500.63      343.45      201.61      99.870      44.639    
  23.951      17.285      13.782      11.982      11.018      10.410      10.024      9.8477      9.8078      9.8477    
  10.024      10.410      11.018      11.982      13.782      17.285      23.951      44.639      99.870      201.61    
  343.45      500.63      640.37      734.84      768.59      735.21      640.12      499.86      342.56      200.95    
  99.540      44.530      23.919      17.271      13.777      11.981      11.019      10.411      10.027      9.8512    
  9.8115      9.8512      10.027      10.411      11.019      11.981      13.777      17.271      23.919      44.530    
  99.540      200.95      342.56      499.86      640.12      735.21      734.84      702.50      610.58      475.43    
  324.55      189.53      93.667      42.340      23.433      17.125      13.751      12.004      11.058      10.456    
  10.070      9.8902      9.8477      9.8902      10.070      10.456      11.058      12.004      13.751      17.125    
  23.433      42.340      93.667      189.53      324.55      475.43      610.58      702.50      638.50      609.35    
  526.91      406.85      274.59      158.39      78.038      36.748      22.214      16.724      13.687      12.087    
  11.199      10.623      10.247      10.063      10.016      10.063      10.247      10.623      11.199      12.087    
  13.687      16.724      22.214      36.748      78.038      158.39      274.59      406.85      526.91      609.35    
  496.29      472.33      405.07      308.59      204.67      116.23      57.956      30.145      20.680      16.163    
  13.623      12.251      11.468      10.952      10.611      10.437      10.389      10.437      10.611      10.952    
  11.468      12.251      13.623      16.163      20.680      30.145      57.956      116.23      204.67      308.59    
  405.07      472.33      337.44      319.95      271.41      203.26      132.28      74.855      39.867      24.854    
  19.011      15.568      13.602      12.511      11.871      11.447      11.165      11.015      10.972      11.015    
  11.165      11.447      11.871      12.511      13.602      15.568      19.011      24.854      39.867      74.855    
  132.28      203.26      271.41      319.95      195.93      185.00      155.13      114.50      74.292      44.298    
  28.086      21.351      17.464      15.076      13.696      12.924      12.477      12.190      12.004      11.905    
  11.876      11.905      12.004      12.190      12.477      12.924      13.696      15.076      17.464      21.351    
  28.086      44.298      74.292      114.50      155.13      185.00      96.183      90.649      75.871      56.752    
  39.372      27.944      22.213      18.636      16.255      14.816      14.029      13.655      13.516      13.490    
  13.513      13.545      13.561      13.545      13.513      13.490      13.516      13.655      14.029      14.816    
  16.255      18.636      22.213      27.944      39.372      56.752      75.871      90.649      42.981      40.946    
  35.727      29.522      24.516      21.186      18.582      16.690      15.505      14.913      14.782      14.987    
  15.408      15.919      16.401      16.743      16.868      16.743      16.401      15.919      15.408      14.987    
  14.782      14.913      15.505      16.690      18.582      21.186      24.516      29.522      35.727      40.946    
  23.238      22.795      21.687      20.289      18.758      17.326      16.198      15.491      15.252      15.491    
  16.198      17.326      18.758      20.289      21.687      22.795      23.238      22.795      21.687      20.289    
  18.758      17.326      16.198      15.491      15.252      15.491      16.198      17.326      18.758      20.289    
  21.687      22.795      16.868      16.743      16.401      15.919      15.408      14.987      14.782      14.913    
  15.505      16.690      18.582      21.186      24.516      29.522      35.727      40.946      42.981      40.946    
  35.727      29.522      24.516      21.186      18.582      16.690      15.505      14.913      14.782      14.987    
  15.408      15.919      16.401      16.743      13.561      13.545      13.513      13.490      13.516      13.655    
  14.029      14.816      16.255      18.636      22.213      27.944      39.372      56.752      75.871      90.649    
  96.183      90.649      75.871      56.752      39.372      27.944      22.213      18.636      16.255      14.816    
  14.029      13.655      13.516      13.490      13.513      13.545      11.876      11.905      12.004      12.190    
  12.477      12.924      13.696      15.076      17.464      21.351      28.086      44.298      74.292      114.50    
  155.13      185.00      195.93      185.00      155.13      114.50      74.292      44.298      28.086      21.351    
  17.464      15.076      13.696      12.924      12.477      12.190      12.004      11.905      10.972      11.015    
  11.165      11.447      11.871      12.511      13.602      15.568      19.011      24.854      39.867      74.855    
  132.28      203.26      271.41      319.95      337.44      319.95      271.41      203.26      132.28      74.855    
  39.867      24.854      19.011      15.568      13.602      12.511      11.871      11.447      11.165      11.015    
  10.389      10.437      10.611      10.952      11.468      12.251      13.623      16.163      20.680      30.145    
  57.956      116.23      204.67      308.59      405.07      472.33      496.29      472.33      405.07      308.59    
  204.67      116.23      57.956      30.145      20.680      16.163      13.623      12.251      11.468      10.952    
  10.611      10.437      10.016      10.063      10.247      10.623      11.199      12.087      13.687      16.724    
  22.214      36.748      78.038      158.39      274.59      406.85      526.91      609.35      638.50      609.35    
  526.91      406.85      274.59      158.39      78.038      36.748      22.214      16.724      13.687      12.087    
  11.199      10.623      10.247      10.063      9.8477      9.8902      10.070      10.456      11.058      12.004    
  13.751      17.125      23.433      42.340      93.667      189.53      324.55      475.43      610.58      702.50    
  734.84      702.50      610.58      475.43      324.55      189.53      93.667      42.340      23.433      17.125    
  13.751      12.004      11.058      10.456      10.070      9.8902      9.8115      9.8512      10.027      10.411    
  11.019      11.981      13.777      17.271      23.919      44.530      99.540      200.95      342.56      499.86    
  640.12      735.21      768.59      735.21      640.12      499.86      342.56      200.95      99.540      44.530    
  23.919      17.271      13.777      11.981      11.019      10.411      10.027      9.8512      9.8477      9.8902    
  10.070      10.456      11.058      12.004      13.751      17.125      23.433      42.340      93.667      189.53    
  324.55      475.43      610.58      702.50      734.84      702.50      610.58      475.43      324.55      189.53    
  93.667      42.340      23.433      17.125      13.751      12.004      11.058      10.456      10.070      9.8902    
  10.016      10.063      10.247      10.623      11.199      12.087      13.687      16.724      22.214      36.748    
  78.038      158.39      274.59      406.85      526.91      609.35      638.50      609.35      526.91      406.85    
  274.59      158.39      78.038      36.748      22.214      16.724      13.687      12.087      11.199      10.623    
  10.247      10.063      10.389      10.437      10.611      10.952      11.468      12.251      13.623      16.163    
  20.680      30.145      57.956      116.23      204.67      308.59      405.07      472.33      496.29      472.33    
  405.07      308.59      204.67      116.23      57.956      30.145      20.680      16.163      13.623      12.251    
  11.468      10.952      10.611      10.437      10.972      11.015      11.165      11.447      11.871      12.511    
  13.602      15.568      19.011      24.854      39.867      74.855      132.28      203.26      271.41      319.95    
  337.44      319.95      271.41      203.26      132.28      74.855      39.867      24.854      19.011      15.568    
  13.602      12.511      11.871      11.447      11.165      11.015      11.876      11.905      12.004      12.190    
  12.477      12.924      13.696      15.076      17.464      21.351      28.086      44.298      74.292      114.50    
  155.13      185.00      195.93      185.00      155.13      114.50      74.292      44.298      28.086      21.351    
  17.464      15.076      13.696      12.924      12.477      12.190      12.004      11.905      13.561      13.545    
  13.513      13.490      13.516      13.655      14.029      14.816      16.255      18.636      22.213      27.944    
  39.372      56.752      75.871      90.649      96.183      90.649      75.871      56.752      39.372      27.944    
  22.213      18.636      16.255      14.816      14.029      13.655      13.516      13.490      13.513      13.545    
  16.868      16.743      16.401      15.919      15.408      14.987      14.782      14.913      15.505      16.690    
  18.582      21.186      24.516      29.522      35.727      40.946      42.981      40.946      35.727      29.522    
  24.516      21.186      18.582      16.690      15.505      14.913      14.782      14.987      15.408      15.919    
  16.401      16.743      23.238      22.795      21.687      20.289      18.758      17.326      16.198      15.491    
  15.252      15.491      16.198      17.326      18.758      20.289      21.687      22.795      23.238      22.795    
  21.687      20.289      18.758      17.326      16.198      15.491      15.252      15.491      16.198      17.326    
  18.758      20.289      21.687      22.795      42.981      40.946      35.727      29.522      24.516      21.186    
  18.582      16.690      15.505      14.913      14.782      14.987      15.408      15.919      16.401      16.743    
  16.868      16.743      16.401      15.919      15.408      14.987      14.782      14.913      15.505      16.690    
  18.582      21.186      24.516      29.522      35.727      40.946      96.183      90.649      75.871      56.752    
  39.372      27.944      22.213      18.636      16.255      14.816      14.029      13.655      13.516      13.490    
  13.513      13.545      13.561      13.545      13.513      13.490      13.516      13.655      14.029      14.816    
  16.255      18.636      22.213      27.944      39.372      56.752      75.871      90.649      195.93      185.00    
  155.13      114.50      74.292      44.298      28.086      21.351      17.464      15.076      13.696      12.924    
  12.477      12.190      12.004      11.905      11.876      11.905      12.004      12.190      12.477      12.924    
  13.696      15.076      17.464      21.351      28.086      44.298      74.292      114.50      155.13      185.00    
  337.44      319.95      271.41      203.26      132.28      74.855      39.867      24.854      19.011      15.568    
  13.602      12.511      11.871      11.447      11.165      11.015      10.972      11.015      11.165      11.447    
  11.871      12.511      13.602      15.568      19.011      24.854      39.867      74.855      132.28      203.26    
  271.41      319.95      496.29      472.33      405.07      308.59      204.67      116.23      57.956      30.145    
  20.680      16.163      13.623      12.251      11.468      10.952      10.611      10.437      10.389      10.437    
  10.611      10.952      11.468      12.251      13.623      16.163      20.680      30.145      57.956      116.23    
  204.67      308.59      405.07      472.33      638.50      609.35      526.91      406.85      274.59      158.39    
  78.038      36.748      22.214      16.724      13.687      12.087      11.199      10.623      10.247      10.063    
  10.016      10.063      10.247      10.623      11.199      12.087      13.687      16.724      22.214      36.748    
  78.038      158.39      274.59      406.85      526.91      609.35      734.84      702.50      610.58      475.43    
  324.55      189.53      93.667      42.340      23.433      17.125      13.751      12.004      11.058      10.456    
  10.070      9.8902      9.8477      9.8902      10.070      10.456      11.058      12.004      13.751      17.125    
  23.433      42.340      93.667      189.53      324.55      475.43      610.58      702.50      670.96      640.12    
  553.13      426.96      288.42      166.74      82.211      38.234      22.517      16.826      13.701      12.062    
  11.161      10.581      10.206      10.027      9.9827      10.027      10.206      10.581      11.161      12.062    
  13.701      16.826      22.517      38.234      82.211      166.74      288.42      426.96      553.13      640.12    
  640.37      610.58      526.70      405.41      272.82      157.09      77.416      36.547      22.146      16.696    
  13.678      12.086      11.201      10.627      10.253      10.070      10.024      10.070      10.253      10.627    
  11.201      12.086      13.678      16.696      22.146      36.547      77.416      157.09      272.82      405.41    
  526.70      610.58      553.56      526.91      452.23      345.22      229.78      130.92      64.756      32.280    
  21.178      16.336      13.622      12.166      11.339      10.792      10.430      10.247      10.197      10.247    
  10.430      10.792      11.339      12.166      13.622      16.336      21.178      32.280      64.756      130.92    
  229.78      345.22      452.23      526.91      426.72      405.07      344.84      259.81      170.15      95.921    
  48.760      27.329      19.837      15.834      13.566      12.321      11.594      11.108      10.783      10.611    
  10.563      10.611      10.783      11.108      11.594      12.321      13.566      15.834      19.837      27.329    
  48.760      95.921      170.15      259.81      344.84      405.07      286.95      271.41      228.64      169.56    
  109.43      62.268      34.735      23.363      18.350      15.303      13.549      12.562      11.973      11.577    
  11.310      11.165      11.122      11.165      11.310      11.577      11.973      12.562      13.549      15.303    
  18.350      23.363      34.735      62.268      109.43      169.56      228.64      271.41      164.62      155.13    
  129.42      95.062      61.967      38.185      25.873      20.408      16.974      14.862      13.635      12.941    
  12.533      12.269      12.097      12.004      11.976      12.004      12.097      12.269      12.533      12.941    
  13.635      14.862      16.974      20.408      25.873      38.185      61.967      95.062      129.42      155.13    
  80.512      75.871      63.610      48.089      34.434      25.775      21.173      18.004      15.901      14.629    
  13.932      13.601      13.478      13.457      13.481      13.513      13.527      13.513      13.481      13.457    
  13.478      13.601      13.932      14.629      15.901      18.004      21.173      25.775      34.434      48.089    
  63.610      75.871      37.335      35.727      31.654      26.918      23.117      20.282      17.961      16.283    
  15.233      14.712      14.601      14.790      15.174      15.642      16.084      16.401      16.516      16.401    
  16.084      15.642      15.174      14.790      14.601      14.712      15.233      16.283      17.961      20.282    
  23.117      26.918      31.654      35.727      22.031      21.687      20.788      19.541      18.155      16.866    
  15.854      15.222      15.009      15.222      15.854      16.866      18.155      19.541      20.788      21.687    
  22.031      21.687      20.788      19.541      18.155      16.866      15.854      15.222      15.009      15.222    
  15.854      16.866      18.155      19.541      20.788      21.687      16.516      16.401      16.084      15.642    
  15.174      14.790      14.601      14.712      15.233      16.283      17.961      20.282      23.117      26.918    
  31.654      35.727      37.335      35.727      31.654      26.918      23.117      20.282      17.961      16.283    
  15.233      14.712      14.601      14.790      15.174      15.642      16.084      16.401      13.527      13.513    
  13.481      13.457      13.478      13.601      13.932      14.629      15.901      18.004      21.173      25.775    
  34.434      48.089      63.610      75.871      80.512      75.871      63.610      48.089      34.434      25.775    
  21.173      18.004      15.901      14.629      13.932      13.601      13.478      13.457      13.481      13.513    
  11.976      12.004      12.097      12.269      12.533      12.941      13.635      14.862      16.974      20.408    
  25.873      38.185      61.967      95.062      129.42      155.13      164.62      155.13      129.42      95.062    
  61.967      38.185      25.873      20.408      16.974      14.862      13.635      12.941      12.533      12.269    
  12.097      12.004      11.122      11.165      11.310      11.577      11.973      12.562      13.549      15.303    
  18.350      23.363      34.735      62.268      109.43      169.56      228.64      271.41      286.95      271.41    