Mn                                      
   1.00000000000000     
     3.595520    0.000000    0.000000
     0.000000    3.595520    0.000000
     0.000000    0.000000    3.595520
   Mn
     4
Direct
  0.000000  0.000000  0.000000
  0.000000  0.500000  0.500000
  0.500000  0.000000  0.500000
  0.500000  0.500000  0.000000
 
   32   32   32
 0.80274728222E+03 0.76859379951E+03 0.67096407079E+03 0.52606041753E+03 0.36231370389E+03
 0.21365998230E+03 0.10613908859E+03 0.47019633759E+02 0.24488897187E+02 0.17436103591E+02
 0.13810190663E+02 0.11958948945E+02 0.10979037831E+02 0.10366563751E+02 0.99826876904E+01
 0.98114900047E+01 0.97745810635E+01 0.98114900047E+01 0.99826876904E+01 0.10366563751E+02
 0.10979037831E+02 0.11958948945E+02 0.13810190663E+02 0.17436103591E+02 0.24488897187E+02
 0.47019633759E+02 0.10613908859E+03 0.21365998230E+03 0.36231370389E+03 0.52606041753E+03
 0.67096407079E+03 0.76859379951E+03 0.76794726339E+03 0.73483687657E+03 0.64036839020E+03
 0.50063378454E+03 0.34345312574E+03 0.20161116730E+03 0.99869570166E+02 0.44638698618E+02
 0.23951388732E+02 0.17284506505E+02 0.13782214737E+02 0.11981749922E+02 0.11017964091E+02
 0.10409509046E+02 0.10024070353E+02 0.98477014861E+01 0.98077601565E+01 0.98477014861E+01
 0.10024070353E+02 0.10409509046E+02 0.11017964091E+02 0.11981749922E+02 0.13782214737E+02
 0.17284506505E+02 0.23951388732E+02 0.44638698618E+02 0.99869570166E+02 0.20161116730E+03
 0.34345312574E+03 0.50063378454E+03 0.64036839020E+03 0.73483687657E+03 0.66843378120E+03
 0.63850235882E+03 0.55355800986E+03 0.42913041279E+03 0.29104778740E+03 0.16867622170E+03
 0.83144299047E+02 0.38536944701E+02 0.22615472101E+02 0.16867467135E+02 0.13714994461E+02
 0.12064974364E+02 0.11158344403E+02 0.10574621132E+02 0.10197418781E+02 0.10015795624E+02
 0.99707932556E+01 0.10015795624E+02 0.10197418781E+02 0.10574621132E+02 0.11158344403E+02
 0.12064974364E+02 0.13714994461E+02 0.16867467135E+02 0.22615472101E+02 0.38536944701E+02
 0.83144299047E+02 0.16867622170E+03 0.29104778740E+03 0.42913041279E+03 0.55355800986E+03
 0.63850235882E+03 0.52101162361E+03 0.49629479425E+03 0.42671682606E+03 0.32635250225E+03
 0.21743791734E+03 0.12391150425E+03 0.61538429963E+02 0.31285692951E+02 0.20987221210E+02
 0.16284252875E+02 0.13646237888E+02 0.12230856031E+02 0.11429839274E+02 0.10906117855E+02
 0.10562717568E+02 0.10389388511E+02 0.10342997982E+02 0.10389388511E+02 0.10562717568E+02
 0.10906117855E+02 0.11429839274E+02 0.12230856031E+02 0.13646237888E+02 0.16284252875E+02
 0.20987221210E+02 0.31285692951E+02 0.61538429963E+02 0.12391150425E+03 0.21743791734E+03
 0.32635250225E+03 0.42671682606E+03 0.49629479425E+03 0.35557328074E+03 0.33744100933E+03
 0.28695143893E+03 0.21567053010E+03 0.14084100612E+03 0.79689848221E+02 0.41908088223E+02
 0.25447313588E+02 0.19252673543E+02 0.15666563821E+02 0.13623094171E+02 0.12495586437E+02
 0.11840019310E+02 0.11407882395E+02 0.11122077902E+02 0.10971782032E+02 0.10928948628E+02
 0.10971782032E+02 0.11122077902E+02 0.11407882395E+02 0.11840019310E+02 0.12495586437E+02
 0.13623094171E+02 0.15666563821E+02 0.19252673543E+02 0.25447313588E+02 0.41908088223E+02
 0.79689848221E+02 0.14084100612E+03 0.21567053010E+03 0.28695143893E+03 0.33744100933E+03
 0.20734256706E+03 0.19592932022E+03 0.16462412197E+03 0.12177628670E+03 0.79008681778E+02
 0.46707297207E+02 0.28978647690E+02 0.21693520025E+02 0.17642836818E+02 0.15154884186E+02
 0.13720135291E+02 0.12920589311E+02 0.12459683632E+02 0.12165584044E+02 0.11976002578E+02
 0.11875955301E+02 0.11846832368E+02 0.11875955301E+02 0.11976002578E+02 0.12165584044E+02
 0.12459683632E+02 0.12920589311E+02 0.13720135291E+02 0.15154884186E+02 0.17642836818E+02
 0.21693520025E+02 0.28978647690E+02 0.46707297207E+02 0.79008681778E+02 0.12177628670E+03
 0.16462412197E+03 0.19592932022E+03 0.10203070994E+03 0.96183238568E+02 0.80511691839E+02
 0.60090994401E+02 0.41324019820E+02 0.28817599023E+02 0.22590830607E+02 0.18867271963E+02
 0.16385611040E+02 0.14885578352E+02 0.14065666763E+02 0.13676680114E+02 0.13531223395E+02
 0.13504221413E+02 0.13526918584E+02 0.13560601048E+02 0.13576140746E+02 0.13560601048E+02
 0.13526918584E+02 0.13504221413E+02 0.13531223395E+02 0.13676680114E+02 0.14065666763E+02
 0.14885578352E+02 0.16385611040E+02 0.18867271963E+02 0.22590830607E+02 0.28817599023E+02
 0.41324019820E+02 0.60090994401E+02 0.80511691839E+02 0.96183238568E+02 0.45173482969E+02
 0.42981203825E+02 0.37334946890E+02 0.30567489228E+02 0.25069317764E+02 0.21513056684E+02
 0.18807892440E+02 0.16839708436E+02 0.15604820401E+02 0.14987210529E+02 0.14848883255E+02
 0.15060010134E+02 0.15493415196E+02 0.16020319303E+02 0.16515601574E+02 0.16867755227E+02
 0.16995329706E+02 0.16867755227E+02 0.16515601574E+02 0.16020319303E+02 0.15493415196E+02
 0.15060010134E+02 0.14848883255E+02 0.14987210529E+02 0.15604820401E+02 0.16839708436E+02
 0.18807892440E+02 0.21513056684E+02 0.25069317764E+02 0.30567489228E+02 0.37334946890E+02
 0.42981203825E+02 0.23722144654E+02 0.23237543784E+02 0.22031438269E+02 0.20558298880E+02
 0.18977113826E+02 0.17494244377E+02 0.16323810017E+02 0.15590275873E+02 0.15342447591E+02
 0.15590275873E+02 0.16323810017E+02 0.17494244377E+02 0.18977113826E+02 0.20558298880E+02
 0.22031438269E+02 0.23237543784E+02 0.23722144654E+02 0.23237543784E+02 0.22031438269E+02
 0.20558298880E+02 0.18977113826E+02 0.17494244377E+02 0.16323810017E+02 0.15590275873E+02
 0.15342447591E+02 0.15590275873E+02 0.16323810017E+02 0.17494244377E+02 0.18977113826E+02
 0.20558298880E+02 0.22031438269E+02 0.23237543784E+02 0.16995329706E+02 0.16867755227E+02
 0.16515601574E+02 0.16020319303E+02 0.15493415196E+02 0.15060010134E+02 0.14848883255E+02
 0.14987210529E+02 0.15604820401E+02 0.16839708436E+02 0.18807892440E+02 0.21513056684E+02
 0.25069317764E+02 0.30567489228E+02 0.37334946890E+02 0.42981203825E+02 0.45173482969E+02
 0.42981203825E+02 0.37334946890E+02 0.30567489228E+02 0.25069317764E+02 0.21513056684E+02
 0.18807892440E+02 0.16839708436E+02 0.15604820401E+02 0.14987210529E+02 0.14848883255E+02
 0.15060010134E+02 0.15493415196E+02 0.16020319303E+02 0.16515601574E+02 0.16867755227E+02
 0.13576140746E+02 0.13560601048E+02 0.13526918584E+02 0.13504221413E+02 0.13531223395E+02
 0.13676680114E+02 0.14065666763E+02 0.14885578352E+02 0.16385611040E+02 0.18867271963E+02
 0.22590830607E+02 0.28817599023E+02 0.41324019820E+02 0.60090994401E+02 0.80511691839E+02
 0.96183238568E+02 0.10203070994E+03 0.96183238568E+02 0.80511691839E+02 0.60090994401E+02
 0.41324019820E+02 0.28817599023E+02 0.22590830607E+02 0.18867271963E+02 0.16385611040E+02
 0.14885578352E+02 0.14065666763E+02 0.13676680114E+02 0.13531223395E+02 0.13504221413E+02
 0.13526918584E+02 0.13560601048E+02 0.11846832368E+02 0.11875955301E+02 0.11976002578E+02
 0.12165584044E+02 0.12459683632E+02 0.12920589311E+02 0.13720135291E+02 0.15154884186E+02
 0.17642836818E+02 0.21693520025E+02 0.28978647690E+02 0.46707297207E+02 0.79008681778E+02
 0.12177628670E+03 0.16462412197E+03 0.19592932022E+03 0.20734256706E+03 0.19592932022E+03
 0.16462412197E+03 0.12177628670E+03 0.79008681778E+02 0.46707297207E+02 0.28978647690E+02
 0.21693520025E+02 0.17642836818E+02 0.15154884186E+02 0.13720135291E+02 0.12920589311E+02
 0.12459683632E+02 0.12165584044E+02 0.11976002578E+02 0.11875955301E+02 0.10928948628E+02
 0.10971782032E+02 0.11122077902E+02 0.11407882395E+02 0.11840019310E+02 0.12495586437E+02
 0.13623094171E+02 0.15666563821E+02 0.19252673543E+02 0.25447313588E+02 0.41908088223E+02
 0.79689848221E+02 0.14084100612E+03 0.21567053010E+03 0.28695143893E+03 0.33744100933E+03
 0.35557328074E+03 0.33744100933E+03 0.28695143893E+03 0.21567053010E+03 0.14084100612E+03
 0.79689848221E+02 0.41908088223E+02 0.25447313588E+02 0.19252673543E+02 0.15666563821E+02
 0.13623094171E+02 0.12495586437E+02 0.11840019310E+02 0.11407882395E+02 0.11122077902E+02
 0.10971782032E+02 0.10342997982E+02 0.10389388511E+02 0.10562717568E+02 0.10906117855E+02
 0.11429839274E+02 0.12230856031E+02 0.13646237888E+02 0.16284252875E+02 0.20987221210E+02
 0.31285692951E+02 0.61538429963E+02 0.12391150425E+03 0.21743791734E+03 0.32635250225E+03
 0.42671682606E+03 0.49629479425E+03 0.52101162361E+03 0.49629479425E+03 0.42671682606E+03
 0.32635250225E+03 0.21743791734E+03 0.12391150425E+03 0.61538429963E+02 0.31285692951E+02
 0.20987221210E+02 0.16284252875E+02 0.13646237888E+02 0.12230856031E+02 0.11429839274E+02
 0.10906117855E+02 0.10562717568E+02 0.10389388511E+02 0.99707932556E+01 0.10015795624E+02
 0.10197418781E+02 0.10574621132E+02 0.11158344403E+02 0.12064974364E+02 0.13714994461E+02
 0.16867467135E+02 0.22615472101E+02 0.38536944701E+02 0.83144299047E+02 0.16867622170E+03
 0.29104778740E+03 0.42913041279E+03 0.55355800986E+03 0.63850235882E+03 0.66843378120E+03
 0.63850235882E+03 0.55355800986E+03 0.42913041279E+03 0.29104778740E+03 0.16867622170E+03
 0.83144299047E+02 0.38536944701E+02 0.22615472101E+02 0.16867467135E+02 0.13714994461E+02
 0.12064974364E+02 0.11158344403E+02 0.10574621132E+02 0.10197418781E+02 0.10015795624E+02
 0.98077601565E+01 0.98477014861E+01 0.10024070353E+02 0.10409509046E+02 0.11017964091E+02
 0.11981749922E+02 0.13782214737E+02 0.17284506505E+02 0.23951388732E+02 0.44638698618E+02
 0.99869570166E+02 0.20161116730E+03 0.34345312574E+03 0.50063378454E+03 0.64036839020E+03
 0.73483687657E+03 0.76794726339E+03 0.73483687657E+03 0.64036839020E+03 0.50063378454E+03
 0.34345312574E+03 0.20161116730E+03 0.99869570166E+02 0.44638698618E+02 0.23951388732E+02
 0.17284506505E+02 0.13782214737E+02 0.11981749922E+02 0.11017964091E+02 0.10409509046E+02
 0.10024070353E+02 0.98477014861E+01 0.97745810635E+01 0.98114900047E+01 0.99826876904E+01
 0.10366563751E+02 0.10979037831E+02 0.11958948945E+02 0.13810190663E+02 0.17436103591E+02
 0.24488897187E+02 0.47019633759E+02 0.10613908859E+03 0.21365998230E+03 0.36231370389E+03
 0.52606041753E+03 0.67096407079E+03 0.76859379951E+03 0.80274728222E+03 0.76859379951E+03
 0.67096407079E+03 0.52606041753E+03 0.36231370389E+03 0.21365998230E+03 0.10613908859E+03
 0.47019633759E+02 0.24488897187E+02 0.17436103591E+02 0.13810190663E+02 0.11958948945E+02
 0.10979037831E+02 0.10366563751E+02 0.99826876904E+01 0.98114900047E+01 0.98077601565E+01
 0.98477014861E+01 0.10024070353E+02 0.10409509046E+02 0.11017964091E+02 0.11981749922E+02
 0.13782214737E+02 0.17284506505E+02 0.23951388732E+02 0.44638698618E+02 0.99869570166E+02
 0.20161116730E+03 0.34345312574E+03 0.50063378454E+03 0.64036839020E+03 0.73483687657E+03
 0.76794726339E+03 0.73483687657E+03 0.64036839020E+03 0.50063378454E+03 0.34345312574E+03
 0.20161116730E+03 0.99869570166E+02 0.44638698618E+02 0.23951388732E+02 0.17284506505E+02
 0.13782214737E+02 0.11981749922E+02 0.11017964091E+02 0.10409509046E+02 0.10024070353E+02
 0.98477014861E+01 0.99707932556E+01 0.10015795624E+02 0.10197418781E+02 0.10574621132E+02
 0.11158344403E+02 0.12064974364E+02 0.13714994461E+02 0.16867467135E+02 0.22615472101E+02
 0.38536944701E+02 0.83144299047E+02 0.16867622170E+03 0.29104778740E+03 0.42913041279E+03
 0.55355800986E+03 0.63850235882E+03 0.66843378120E+03 0.63850235882E+03 0.55355800986E+03
 0.42913041279E+03 0.29104778740E+03 0.16867622170E+03 0.83144299047E+02 0.38536944701E+02
 0.22615472101E+02 0.16867467135E+02 0.13714994461E+02 0.12064974364E+02 0.11158344403E+02
 0.10574621132E+02 0.10197418781E+02 0.10015795624E+02 0.10342997982E+02 0.10389388511E+02
 0.10562717568E+02 0.10906117855E+02 0.11429839274E+02 0.12230856031E+02 0.13646237888E+02
 0.16284252875E+02 0.20987221210E+02 0.31285692951E+02 0.61538429963E+02 0.12391150425E+03
 0.21743791734E+03 0.32635250225E+03 0.42671682606E+03 0.49629479425E+03 0.52101162361E+03
 0.49629479425E+03 0.42671682606E+03 0.32635250225E+03 0.21743791734E+03 0.12391150425E+03
 0.61538429963E+02 0.31285692951E+02 0.20987221210E+02 0.16284252875E+02 0.13646237888E+02
 0.12230856031E+02 0.11429839274E+02 0.10906117855E+02 0.10562717568E+02 0.10389388511E+02
 0.10928948628E+02 0.10971782032E+02 0.11122077902E+02 0.11407882395E+02 0.11840019310E+02
 0.12495586437E+02 0.13623094171E+02 0.15666563821E+02 0.19252673543E+02 0.25447313588E+02
 0.41908088223E+02 0.79689848221E+02 0.14084100612E+03 0.21567053010E+03 0.28695143893E+03
 0.33744100933E+03 0.35557328074E+03 0.33744100933E+03 0.28695143893E+03 0.21567053010E+03
 0.14084100612E+03 0.79689848221E+02 0.41908088223E+02 0.25447313588E+02 0.19252673543E+02
 0.15666563821E+02 0.13623094171E+02 0.12495586437E+02 0.11840019310E+02 0.11407882395E+02
 0.11122077902E+02 0.10971782032E+02 0.11846832368E+02 0.11875955301E+02 0.11976002578E+02
 0.12165584044E+02 0.12459683632E+02 0.12920589311E+02 0.13720135291E+02 0.15154884186E+02
 0.17642836818E+02 0.21693520025E+02 0.28978647690E+02 0.46707297207E+02 0.79008681778E+02
 0.12177628670E+03 0.16462412197E+03 0.19592932022E+03 0.20734256706E+03 0.19592932022E+03
 0.16462412197E+03 0.12177628670E+03 0.79008681778E+02 0.46707297207E+02 0.28978647690E+02
 0.21693520025E+02 0.17642836818E+02 0.15154884186E+02 0.13720135291E+02 0.12920589311E+02
 0.12459683632E+02 0.12165584044E+02 0.11976002578E+02 0.11875955301E+02 0.13576140746E+02
 0.13560601048E+02 0.13526918584E+02 0.13504221413E+02 0.13531223395E+02 0.13676680114E+02
 0.14065666763E+02 0.14885578352E+02 0.16385611040E+02 0.18867271963E+02 0.22590830607E+02
 0.28817599023E+02 0.41324019820E+02 0.60090994401E+02 0.80511691839E+02 0.96183238568E+02
 0.10203070994E+03 0.96183238568E+02 0.80511691839E+02 0.60090994401E+02 0.41324019820E+02
 0.28817599023E+02 0.22590830607E+02 0.18867271963E+02 0.16385611040E+02 0.14885578352E+02
 0.14065666763E+02 0.13676680114E+02 0.13531223395E+02 0.13504221413E+02 0.13526918584E+02
 0.13560601048E+02 0.16995329706E+02 0.16867755227E+02 0.16515601574E+02 0.16020319303E+02
 0.15493415196E+02 0.15060010134E+02 0.14848883255E+02 0.14987210529E+02 0.15604820401E+02
 0.16839708436E+02 0.18807892440E+02 0.21513056684E+02 0.25069317764E+02 0.30567489228E+02
 0.37334946890E+02 0.42981203825E+02 0.45173482969E+02 0.42981203825E+02 0.37334946890E+02
 0.30567489228E+02 0.25069317764E+02 0.21513056684E+02 0.18807892440E+02 0.16839708436E+02
 0.15604820401E+02 0.14987210529E+02 0.14848883255E+02 0.15060010134E+02 0.15493415196E+02
 0.16020319303E+02 0.16515601574E+02 0.16867755227E+02 0.23722144654E+02 0.23237543784E+02
 0.22031438269E+02 0.20558298880E+02 0.18977113826E+02 0.17494244377E+02 0.16323810017E+02
 0.15590275873E+02 0.15342447591E+02 0.15590275873E+02 0.16323810017E+02 0.17494244377E+02
 0.18977113826E+02 0.20558298880E+02 0.22031438269E+02 0.23237543784E+02 0.23722144654E+02
 0.23237543784E+02 0.22031438269E+02 0.20558298880E+02 0.18977113826E+02 0.17494244377E+02
 0.16323810017E+02 0.15590275873E+02 0.15342447591E+02 0.15590275873E+02 0.16323810017E+02
 0.17494244377E+02 0.18977113826E+02 0.20558298880E+02 0.22031438269E+02 0.23237543784E+02
 0.45173482969E+02 0.42981203825E+02 0.37334946890E+02 0.30567489228E+02 0.25069317764E+02
 0.21513056684E+02 0.18807892440E+02 0.16839708436E+02 0.15604820401E+02 0.14987210529E+02
 0.14848883255E+02 0.15060010134E+02 0.15493415196E+02 0.16020319303E+02 0.16515601574E+02
 0.16867755227E+02 0.16995329706E+02 0.16867755227E+02 0.16515601574E+02 0.16020319303E+02
 0.15493415196E+02 0.15060010134E+02 0.14848883255E+02 0.14987210529E+02 0.15604820401E+02
 0.16839708436E+02 0.18807892440E+02 0.21513056684E+02 0.25069317764E+02 0.30567489228E+02
 0.37334946890E+02 0.42981203825E+02 0.10203070994E+03 0.96183238568E+02 0.80511691839E+02
 0.60090994401E+02 0.41324019820E+02 0.28817599023E+02 0.22590830607E+02 0.18867271963E+02
 0.16385611040E+02 0.14885578352E+02 0.14065666763E+02 0.13676680114E+02 0.13531223395E+02
 0.13504221413E+02 0.13526918584E+02 0.13560601048E+02 0.13576140746E+02 0.13560601048E+02
 0.13526918584E+02 0.13504221413E+02 0.13531223395E+02 0.13676680114E+02 0.14065666763E+02
 0.14885578352E+02 0.16385611040E+02 0.18867271963E+02 0.22590830607E+02 0.28817599023E+02
 0.41324019820E+02 0.60090994401E+02 0.80511691839E+02 0.96183238568E+02 0.20734256706E+03
 0.19592932022E+03 0.16462412197E+03 0.12177628670E+03 0.79008681778E+02 0.46707297207E+02
 0.28978647690E+02 0.21693520025E+02 0.17642836818E+02 0.15154884186E+02 0.13720135291E+02
 0.12920589311E+02 0.12459683632E+02 0.12165584044E+02 0.11976002578E+02 0.11875955301E+02
 0.11846832368E+02 0.11875955301E+02 0.11976002578E+02 0.12165584044E+02 0.12459683632E+02
 0.12920589311E+02 0.13720135291E+02 0.15154884186E+02 0.17642836818E+02 0.21693520025E+02
 0.28978647690E+02 0.46707297207E+02 0.79008681778E+02 0.12177628670E+03 0.16462412197E+03
 0.19592932022E+03 0.35557328074E+03 0.33744100933E+03 0.28695143893E+03 0.21567053010E+03
 0.14084100612E+03 0.79689848221E+02 0.41908088223E+02 0.25447313588E+02 0.19252673543E+02
 0.15666563821E+02 0.13623094171E+02 0.12495586437E+02 0.11840019310E+02 0.11407882395E+02
 0.11122077902E+02 0.10971782032E+02 0.10928948628E+02 0.10971782032E+02 0.11122077902E+02
 0.11407882395E+02 0.11840019310E+02 0.12495586437E+02 0.13623094171E+02 0.15666563821E+02
 0.19252673543E+02 0.25447313588E+02 0.41908088223E+02 0.79689848221E+02 0.14084100612E+03
 0.21567053010E+03 0.28695143893E+03 0.33744100933E+03 0.52101162361E+03 0.49629479425E+03
 0.42671682606E+03 0.32635250225E+03 0.21743791734E+03 0.12391150425E+03 0.61538429963E+02
 0.31285692951E+02 0.20987221210E+02 0.16284252875E+02 0.13646237888E+02 0.12230856031E+02
 0.11429839274E+02 0.10906117855E+02 0.10562717568E+02 0.10389388511E+02 0.10342997982E+02
 0.10389388511E+02 0.10562717568E+02 0.10906117855E+02 0.11429839274E+02 0.12230856031E+02
 0.13646237888E+02 0.16284252875E+02 0.20987221210E+02 0.31285692951E+02 0.61538429963E+02
 0.12391150425E+03 0.21743791734E+03 0.32635250225E+03 0.42671682606E+03 0.49629479425E+03
 0.66843378120E+03 0.63850235882E+03 0.55355800986E+03 0.42913041279E+03 0.29104778740E+03
 0.16867622170E+03 0.83144299047E+02 0.38536944701E+02 0.22615472101E+02 0.16867467135E+02
 0.13714994461E+02 0.12064974364E+02 0.11158344403E+02 0.10574621132E+02 0.10197418781E+02
 0.10015795624E+02 0.99707932556E+01 0.10015795624E+02 0.10197418781E+02 0.10574621132E+02
 0.11158344403E+02 0.12064974364E+02 0.13714994461E+02 0.16867467135E+02 0.22615472101E+02
 0.38536944701E+02 0.83144299047E+02 0.16867622170E+03 0.29104778740E+03 0.42913041279E+03
 0.55355800986E+03 0.63850235882E+03 0.76794726339E+03 0.73483687657E+03 0.64036839020E+03
 0.50063378454E+03 0.34345312574E+03 0.20161116730E+03 0.99869570166E+02 0.44638698618E+02
 0.23951388732E+02 0.17284506505E+02 0.13782214737E+02 0.11981749922E+02 0.11017964091E+02
 0.10409509046E+02 0.10024070353E+02 0.98477014861E+01 0.98077601565E+01 0.98477014861E+01
 0.10024070353E+02 0.10409509046E+02 0.11017964091E+02 0.11981749922E+02 0.13782214737E+02
 0.17284506505E+02 0.23951388732E+02 0.44638698618E+02 0.99869570166E+02 0.20161116730E+03
 0.34345312574E+03 0.50063378454E+03 0.64036839020E+03 0.73483687657E+03 0.76859379951E+03
 0.73520858525E+03 0.64012215469E+03 0.49986393070E+03 0.34255606270E+03 0.20094725886E+03
 0.99540396519E+02 0.44530077435E+02 0.23919414676E+02 0.17271216429E+02 0.13777487323E+02
 0.11980782434E+02 0.11018748953E+02 0.10411451352E+02 0.10026953519E+02 0.98512150900E+01
 0.98114900047E+01 0.98512150900E+01 0.10026953519E+02 0.10411451352E+02 0.11018748953E+02
 0.11980782434E+02 0.13777487323E+02 0.17271216429E+02 0.23919414676E+02 0.44530077435E+02
 0.99540396519E+02 0.20094725886E+03 0.34255606270E+03 0.49986393070E+03 0.64012215469E+03
 0.73520858525E+03 0.73483687657E+03 0.70250354841E+03 0.61058005300E+03 0.47543447893E+03
 0.32454745354E+03 0.18953290834E+03 0.93667203077E+02 0.42340380813E+02 0.23432587145E+02
 0.17125288924E+02 0.13750999189E+02 0.12003979141E+02 0.11058396003E+02 0.10455786631E+02
 0.10070435485E+02 0.98901743845E+01 0.98477014861E+01 0.98901743845E+01 0.10070435485E+02
 0.10455786631E+02 0.11058396003E+02 0.12003979141E+02 0.13750999189E+02 0.17125288924E+02
 0.23432587145E+02 0.42340380813E+02 0.93667203077E+02 0.18953290834E+03 0.32454745354E+03
 0.47543447893E+03 0.61058005300E+03 0.70250354841E+03 0.63850235882E+03 0.60935460013E+03
 0.52691198001E+03 0.40685227403E+03 0.27459457481E+03 0.15839224153E+03 0.78038437951E+02
 0.36747922978E+02 0.22213623819E+02 0.16723879803E+02 0.13687377074E+02 0.12087284682E+02
 0.11199157964E+02 0.10622504740E+02 0.10246794212E+02 0.10062683015E+02 0.10015795624E+02
 0.10062683015E+02 0.10246794212E+02 0.10622504740E+02 0.11199157964E+02 0.12087284682E+02
 0.13687377074E+02 0.16723879803E+02 0.22213623819E+02 0.36747922978E+02 0.78038437951E+02
 0.15839224153E+03 0.27459457481E+03 0.40685227403E+03 0.52691198001E+03 0.60935460013E+03
 0.49629479425E+03 0.47232564061E+03 0.40506537514E+03 0.30858921256E+03 0.20466514440E+03
 0.11623371663E+03 0.57955730694E+02 0.30144935246E+02 0.20679659228E+02 0.16162615303E+02
 0.13622510292E+02 0.12251130503E+02 0.11468013834E+02 0.10952103345E+02 0.10611347731E+02
 0.10436951470E+02 0.10389388511E+02 0.10436951470E+02 0.10611347731E+02 0.10952103345E+02
 0.11468013834E+02 0.12251130503E+02 0.13622510292E+02 0.16162615303E+02 0.20679659228E+02
 0.30144935246E+02 0.57955730694E+02 0.11623371663E+03 0.20466514440E+03 0.30858921256E+03
 0.40506537514E+03 0.47232564061E+03 0.33744100933E+03 0.31995393813E+03 0.27140998262E+03
 0.20326139369E+03 0.13227531550E+03 0.74854585069E+02 0.39867002925E+02 0.24853862838E+02
 0.19011046454E+02 0.15568249189E+02 0.13601561478E+02 0.12510545063E+02 0.11871383781E+02
 0.11447294662E+02 0.11165054992E+02 0.11015066273E+02 0.10971782032E+02 0.11015066273E+02
 0.11165054992E+02 0.11447294662E+02 0.11871383781E+02 0.12510545063E+02 0.13601561478E+02
 0.15568249189E+02 0.19011046454E+02 0.24853862838E+02 0.39867002925E+02 0.74854585069E+02
 0.13227531550E+03 0.20326139369E+03 0.27140998262E+03 0.31995393813E+03 0.19592932022E+03
 0.18500433919E+03 0.15513329791E+03 0.11449563119E+03 0.74292396399E+02 0.44298208138E+02
 0.28086259396E+02 0.21350529170E+02 0.17463546953E+02 0.15075759236E+02 0.13696065889E+02
 0.12924148363E+02 0.12476682290E+02 0.12189723118E+02 0.12003850648E+02 0.11904990315E+02
 0.11875955301E+02 0.11904990315E+02 0.12003850648E+02 0.12189723118E+02 0.12476682290E+02
 0.12924148363E+02 0.13696065889E+02 0.15075759236E+02 0.17463546953E+02 0.21350529170E+02
 0.28086259396E+02 0.44298208138E+02 0.74292396399E+02 0.11449563119E+03 0.15513329791E+03
 0.18500433919E+03 0.96183238568E+02 0.90649056624E+02 0.75870708137E+02 0.56751837164E+02
 0.39371770247E+02 0.27944437110E+02 0.22212996321E+02 0.18636412851E+02 0.16255250792E+02
 0.14816048827E+02 0.14028992247E+02 0.13655264003E+02 0.13515515503E+02 0.13490009563E+02
 0.13512536983E+02 0.13545471480E+02 0.13560601048E+02 0.13545471480E+02 0.13512536983E+02
 0.13490009563E+02 0.13515515503E+02 0.13655264003E+02 0.14028992247E+02 0.14816048827E+02
 0.16255250792E+02 0.18636412851E+02 0.22212996321E+02 0.27944437110E+02 0.39371770247E+02
 0.56751837164E+02 0.75870708137E+02 0.90649056624E+02 0.42981203825E+02 0.40945816366E+02
 0.35726608076E+02 0.29521976619E+02 0.24515519773E+02 0.21185722353E+02 0.18581725701E+02
 0.16690262968E+02 0.15504673851E+02 0.14912678568E+02 0.14781738484E+02 0.14987351853E+02
 0.15407695425E+02 0.15919123753E+02 0.16400630478E+02 0.16743464311E+02 0.16867755227E+02
 0.16743464311E+02 0.16400630478E+02 0.15919123753E+02 0.15407695425E+02 0.14987351853E+02
 0.14781738484E+02 0.14912678568E+02 0.15504673851E+02 0.16690262968E+02 0.18581725701E+02
 0.21185722353E+02 0.24515519773E+02 0.29521976619E+02 0.35726608076E+02 0.40945816366E+02
 0.23237543784E+02 0.22795116394E+02 0.21686503285E+02 0.20288928938E+02 0.18758416105E+02
 0.17326392095E+02 0.16197850292E+02 0.15491103649E+02 0.15252378836E+02 0.15491103649E+02
 0.16197850292E+02 0.17326392095E+02 0.18758416105E+02 0.20288928938E+02 0.21686503285E+02
 0.22795116394E+02 0.23237543784E+02 0.22795116394E+02 0.21686503285E+02 0.20288928938E+02
 0.18758416105E+02 0.17326392095E+02 0.16197850292E+02 0.15491103649E+02 0.15252378836E+02
 0.15491103649E+02 0.16197850292E+02 0.17326392095E+02 0.18758416105E+02 0.20288928938E+02
 0.21686503285E+02 0.22795116394E+02 0.16867755227E+02 0.16743464311E+02 0.16400630478E+02
 0.15919123753E+02 0.15407695425E+02 0.14987351853E+02 0.14781738484E+02 0.14912678568E+02
 0.15504673851E+02 0.16690262968E+02 0.18581725701E+02 0.21185722353E+02 0.24515519773E+02
 0.29521976619E+02 0.35726608076E+02 0.40945816366E+02 0.42981203825E+02 0.40945816366E+02
 0.35726608076E+02 0.29521976619E+02 0.24515519773E+02 0.21185722353E+02 0.18581725701E+02
 0.16690262968E+02 0.15504673851E+02 0.14912678568E+02 0.14781738484E+02 0.14987351853E+02
 0.15407695425E+02 0.15919123753E+02 0.16400630478E+02 0.16743464311E+02 0.13560601048E+02
 0.13545471480E+02 0.13512536983E+02 0.13490009563E+02 0.13515515503E+02 0.13655264003E+02
 0.14028992247E+02 0.14816048827E+02 0.16255250792E+02 0.18636412851E+02 0.22212996321E+02
 0.27944437110E+02 0.39371770247E+02 0.56751837164E+02 0.75870708137E+02 0.90649056624E+02
 0.96183238568E+02 0.90649056624E+02 0.75870708137E+02 0.56751837164E+02 0.39371770247E+02
 0.27944437110E+02 0.22212996321E+02 0.18636412851E+02 0.16255250792E+02 0.14816048827E+02
 0.14028992247E+02 0.13655264003E+02 0.13515515503E+02 0.13490009563E+02 0.13512536983E+02
 0.13545471480E+02 0.11875955301E+02 0.11904990315E+02 0.12003850648E+02 0.12189723118E+02
 0.12476682290E+02 0.12924148363E+02 0.13696065889E+02 0.15075759236E+02 0.17463546953E+02
 0.21350529170E+02 0.28086259396E+02 0.44298208138E+02 0.74292396399E+02 0.11449563119E+03
 0.15513329791E+03 0.18500433919E+03 0.19592932022E+03 0.18500433919E+03 0.15513329791E+03
 0.11449563119E+03 0.74292396399E+02 0.44298208138E+02 0.28086259396E+02 0.21350529170E+02
 0.17463546953E+02 0.15075759236E+02 0.13696065889E+02 0.12924148363E+02 0.12476682290E+02
 0.12189723118E+02 0.12003850648E+02 0.11904990315E+02 0.10971782032E+02 0.11015066273E+02
 0.11165054992E+02 0.11447294662E+02 0.11871383781E+02 0.12510545063E+02 0.13601561478E+02
 0.15568249189E+02 0.19011046454E+02 0.24853862838E+02 0.39867002925E+02 0.74854585069E+02
 0.13227531550E+03 0.20326139369E+03 0.27140998262E+03 0.31995393813E+03 0.33744100933E+03
 0.31995393813E+03 0.27140998262E+03 0.20326139369E+03 0.13227531550E+03 0.74854585069E+02
 0.39867002925E+02 0.24853862838E+02 0.19011046454E+02 0.15568249189E+02 0.13601561478E+02
 0.12510545063E+02 0.11871383781E+02 0.11447294662E+02 0.11165054992E+02 0.11015066273E+02
 0.10389388511E+02 0.10436951470E+02 0.10611347731E+02 0.10952103345E+02 0.11468013834E+02
 0.12251130503E+02 0.13622510292E+02 0.16162615303E+02 0.20679659228E+02 0.30144935246E+02
 0.57955730694E+02 0.11623371663E+03 0.20466514440E+03 0.30858921256E+03 0.40506537514E+03
 0.47232564061E+03 0.49629479425E+03 0.47232564061E+03 0.40506537514E+03 0.30858921256E+03
 0.20466514440E+03 0.11623371663E+03 0.57955730694E+02 0.30144935246E+02 0.20679659228E+02
 0.16162615303E+02 0.13622510292E+02 0.12251130503E+02 0.11468013834E+02 0.10952103345E+02
 0.10611347731E+02 0.10436951470E+02 0.10015795624E+02 0.10062683015E+02 0.10246794212E+02
 0.10622504740E+02 0.11199157964E+02 0.12087284682E+02 0.13687377074E+02 0.16723879803E+02
 0.22213623819E+02 0.36747922978E+02 0.78038437951E+02 0.15839224153E+03 0.27459457481E+03
 0.40685227403E+03 0.52691198001E+03 0.60935460013E+03 0.63850235882E+03 0.60935460013E+03
 0.52691198001E+03 0.40685227403E+03 0.27459457481E+03 0.15839224153E+03 0.78038437951E+02
 0.36747922978E+02 0.22213623819E+02 0.16723879803E+02 0.13687377074E+02 0.12087284682E+02
 0.11199157964E+02 0.10622504740E+02 0.10246794212E+02 0.10062683015E+02 0.98477014861E+01
 0.98901743845E+01 0.10070435485E+02 0.10455786631E+02 0.11058396003E+02 0.12003979141E+02
 0.13750999189E+02 0.17125288924E+02 0.23432587145E+02 0.42340380813E+02 0.93667203077E+02
 0.18953290834E+03 0.32454745354E+03 0.47543447893E+03 0.61058005300E+03 0.70250354841E+03
 0.73483687657E+03 0.70250354841E+03 0.61058005300E+03 0.47543447893E+03 0.32454745354E+03
 0.18953290834E+03 0.93667203077E+02 0.42340380813E+02 0.23432587145E+02 0.17125288924E+02
 0.13750999189E+02 0.12003979141E+02 0.11058396003E+02 0.10455786631E+02 0.10070435485E+02
 0.98901743845E+01 0.98114900047E+01 0.98512150900E+01 0.10026953519E+02 0.10411451352E+02
 0.11018748953E+02 0.11980782434E+02 0.13777487323E+02 0.17271216429E+02 0.23919414676E+02
 0.44530077435E+02 0.99540396519E+02 0.20094725886E+03 0.34255606270E+03 0.49986393070E+03
 0.64012215469E+03 0.73520858525E+03 0.76859379951E+03 0.73520858525E+03 0.64012215469E+03
 0.49986393070E+03 0.34255606270E+03 0.20094725886E+03 0.99540396519E+02 0.44530077435E+02
 0.23919414676E+02 0.17271216429E+02 0.13777487323E+02 0.11980782434E+02 0.11018748953E+02
 0.10411451352E+02 0.10026953519E+02 0.98512150900E+01 0.98477014861E+01 0.98901743845E+01
 0.10070435485E+02 0.10455786631E+02 0.11058396003E+02 0.12003979141E+02 0.13750999189E+02
 0.17125288924E+02 0.23432587145E+02 0.42340380813E+02 0.93667203077E+02 0.18953290834E+03
 0.32454745354E+03 0.47543447893E+03 0.61058005300E+03 0.70250354841E+03 0.73483687657E+03
 0.70250354841E+03 0.61058005300E+03 0.47543447893E+03 0.32454745354E+03 0.18953290834E+03
 0.93667203077E+02 0.42340380813E+02 0.23432587145E+02 0.17125288924E+02 0.13750999189E+02
 0.12003979141E+02 0.11058396003E+02 0.10455786631E+02 0.10070435485E+02 0.98901743845E+01
 0.10015795624E+02 0.10062683015E+02 0.10246794212E+02 0.10622504740E+02 0.11199157964E+02
 0.12087284682E+02 0.13687377074E+02 0.16723879803E+02 0.22213623819E+02 0.36747922978E+02
 0.78038437951E+02 0.15839224153E+03 0.27459457481E+03 0.40685227403E+03 0.52691198001E+03
 0.60935460013E+03 0.63850235882E+03 0.60935460013E+03 0.52691198001E+03 0.40685227403E+03
 0.27459457481E+03 0.15839224153E+03 0.78038437951E+02 0.36747922978E+02 0.22213623819E+02