   4   4   1   0
  0.1162051E+02  0.3595520E-09  0.3595520E-09  0.3595520E-09  0.5000000E-15
  1.000000000000000E-004
  CAR 
 Mn                                      
     37.92512599    -43.09851550  301      9.50450429      1.00000000
    -43.099  0.0000E+00  0.0000E+00  0.0000E+00  0.0000E+00
    -42.828  0.0000E+00  0.0000E+00  0.0000E+00  0.0000E+00
    -42.558  0.0000E+00  0.0000E+00  0.0000E+00  0.0000E+00
    -42.288  0.0000E+00  0.0000E+00  0.0000E+00  0.0000E+00
    -42.018  0.0000E+00  0.0000E+00  0.0000E+00  0.0000E+00
    -41.748  0.0000E+00  0.0000E+00  0.0000E+00  0.0000E+00
    -41.478  0.0000E+00  0.0000E+00  0.0000E+00  0.0000E+00
    -41.208  0.0000E+00  0.0000E+00  0.0000E+00  0.0000E+00
    -40.938  0.0000E+00  0.0000E+00  0.0000E+00  0.0000E+00
    -40.668  0.0000E+00  0.0000E+00  0.0000E+00  0.0000E+00
    -40.398  0.0000E+00  0.0000E+00  0.0000E+00  0.0000E+00
    -40.128  0.0000E+00  0.0000E+00  0.0000E+00  0.0000E+00
    -39.858  0.0000E+00  0.0000E+00  0.0000E+00  0.0000E+00
    -39.587  0.7217E-07  0.7217E-07  0.1949E-07  0.1949E-07
    -39.317  0.1033E+02  0.1033E+02  0.2790E+01  0.2790E+01
    -39.047  0.1105E+02  0.1105E+02  0.5774E+01  0.5774E+01
    -38.777  0.8371E+00  0.8371E+00  0.6000E+01  0.6000E+01
    -38.507  0.0000E+00  0.0000E+00  0.6000E+01  0.6000E+01
    -38.237  0.0000E+00  0.0000E+00  0.6000E+01  0.6000E+01
    -37.967  0.0000E+00  0.0000E+00  0.6000E+01  0.6000E+01
    -37.697  0.0000E+00  0.0000E+00  0.6000E+01  0.6000E+01
    -37.427  0.3947E-01  0.3947E-01  0.6011E+01  0.6011E+01
    -37.157  0.1590E+02  0.1590E+02  0.1031E+02  0.1031E+02
    -36.887  0.6274E+01  0.6274E+01  0.1200E+02  0.1200E+02
    -36.617  0.0000E+00  0.0000E+00  0.1200E+02  0.1200E+02
    -36.347  0.0000E+00  0.0000E+00  0.1200E+02  0.1200E+02
    -36.076  0.0000E+00  0.0000E+00  0.1200E+02  0.1200E+02
    -35.806  0.0000E+00  0.0000E+00  0.1200E+02  0.1200E+02
    -35.536  0.0000E+00  0.0000E+00  0.1200E+02  0.1200E+02
    -35.266  0.0000E+00  0.0000E+00  0.1200E+02  0.1200E+02
    -34.996  0.0000E+00  0.0000E+00  0.1200E+02  0.1200E+02
    -34.726  0.0000E+00  0.0000E+00  0.1200E+02  0.1200E+02
    -34.456  0.0000E+00  0.0000E+00  0.1200E+02  0.1200E+02
    -34.186  0.0000E+00  0.0000E+00  0.1200E+02  0.1200E+02
    -33.916  0.0000E+00  0.0000E+00  0.1200E+02  0.1200E+02
    -33.646  0.0000E+00  0.0000E+00  0.1200E+02  0.1200E+02
    -33.376  0.0000E+00  0.0000E+00  0.1200E+02  0.1200E+02
    -33.106  0.0000E+00  0.0000E+00  0.1200E+02  0.1200E+02
    -32.836  0.0000E+00  0.0000E+00  0.1200E+02  0.1200E+02
    -32.565  0.0000E+00  0.0000E+00  0.1200E+02  0.1200E+02
    -32.295  0.0000E+00  0.0000E+00  0.1200E+02  0.1200E+02
    -32.025  0.0000E+00  0.0000E+00  0.1200E+02  0.1200E+02
    -31.755  0.0000E+00  0.0000E+00  0.1200E+02  0.1200E+02
    -31.485  0.0000E+00  0.0000E+00  0.1200E+02  0.1200E+02
    -31.215  0.0000E+00  0.0000E+00  0.1200E+02  0.1200E+02
    -30.945  0.0000E+00  0.0000E+00  0.1200E+02  0.1200E+02
    -30.675  0.0000E+00  0.0000E+00  0.1200E+02  0.1200E+02
    -30.405  0.0000E+00  0.0000E+00  0.1200E+02  0.1200E+02
    -30.135  0.0000E+00  0.0000E+00  0.1200E+02  0.1200E+02
    -29.865  0.0000E+00  0.0000E+00  0.1200E+02  0.1200E+02
    -29.595  0.0000E+00  0.0000E+00  0.1200E+02  0.1200E+02
    -29.324  0.0000E+00  0.0000E+00  0.1200E+02  0.1200E+02
    -29.054  0.0000E+00  0.0000E+00  0.1200E+02  0.1200E+02
    -28.784  0.0000E+00  0.0000E+00  0.1200E+02  0.1200E+02
    -28.514  0.0000E+00  0.0000E+00  0.1200E+02  0.1200E+02
    -28.244  0.0000E+00  0.0000E+00  0.1200E+02  0.1200E+02
    -27.974  0.0000E+00  0.0000E+00  0.1200E+02  0.1200E+02
    -27.704  0.0000E+00  0.0000E+00  0.1200E+02  0.1200E+02
    -27.434  0.0000E+00  0.0000E+00  0.1200E+02  0.1200E+02
    -27.164  0.0000E+00  0.0000E+00  0.1200E+02  0.1200E+02
    -26.894  0.0000E+00  0.0000E+00  0.1200E+02  0.1200E+02
    -26.624  0.0000E+00  0.0000E+00  0.1200E+02  0.1200E+02
    -26.354  0.0000E+00  0.0000E+00  0.1200E+02  0.1200E+02
    -26.084  0.0000E+00  0.0000E+00  0.1200E+02  0.1200E+02
    -25.813  0.0000E+00  0.0000E+00  0.1200E+02  0.1200E+02
    -25.543  0.0000E+00  0.0000E+00  0.1200E+02  0.1200E+02
    -25.273  0.0000E+00  0.0000E+00  0.1200E+02  0.1200E+02
    -25.003  0.0000E+00  0.0000E+00  0.1200E+02  0.1200E+02
    -24.733  0.0000E+00  0.0000E+00  0.1200E+02  0.1200E+02
    -24.463  0.0000E+00  0.0000E+00  0.1200E+02  0.1200E+02
    -24.193  0.0000E+00  0.0000E+00  0.1200E+02  0.1200E+02
    -23.923  0.0000E+00  0.0000E+00  0.1200E+02  0.1200E+02
    -23.653  0.0000E+00  0.0000E+00  0.1200E+02  0.1200E+02
    -23.383  0.0000E+00  0.0000E+00  0.1200E+02  0.1200E+02
    -23.113  0.0000E+00  0.0000E+00  0.1200E+02  0.1200E+02
    -22.843  0.0000E+00  0.0000E+00  0.1200E+02  0.1200E+02
    -22.573  0.0000E+00  0.0000E+00  0.1200E+02  0.1200E+02
    -22.302  0.0000E+00  0.0000E+00  0.1200E+02  0.1200E+02
    -22.032  0.0000E+00  0.0000E+00  0.1200E+02  0.1200E+02
    -21.762  0.0000E+00  0.0000E+00  0.1200E+02  0.1200E+02
    -21.492  0.0000E+00  0.0000E+00  0.1200E+02  0.1200E+02
    -21.222  0.0000E+00  0.0000E+00  0.1200E+02  0.1200E+02
    -20.952  0.0000E+00  0.0000E+00  0.1200E+02  0.1200E+02
    -20.682  0.0000E+00  0.0000E+00  0.1200E+02  0.1200E+02
    -20.412  0.0000E+00  0.0000E+00  0.1200E+02  0.1200E+02
    -20.142  0.0000E+00  0.0000E+00  0.1200E+02  0.1200E+02
    -19.872  0.0000E+00  0.0000E+00  0.1200E+02  0.1200E+02
    -19.602  0.0000E+00  0.0000E+00  0.1200E+02  0.1200E+02
    -19.332  0.0000E+00  0.0000E+00  0.1200E+02  0.1200E+02
    -19.062  0.0000E+00  0.0000E+00  0.1200E+02  0.1200E+02
    -18.791  0.0000E+00  0.0000E+00  0.1200E+02  0.1200E+02
    -18.521  0.0000E+00  0.0000E+00  0.1200E+02  0.1200E+02
    -18.251  0.0000E+00  0.0000E+00  0.1200E+02  0.1200E+02
    -17.981  0.0000E+00  0.0000E+00  0.1200E+02  0.1200E+02
    -17.711  0.0000E+00  0.0000E+00  0.1200E+02  0.1200E+02
    -17.441  0.0000E+00  0.0000E+00  0.1200E+02  0.1200E+02
    -17.171  0.0000E+00  0.0000E+00  0.1200E+02  0.1200E+02
    -16.901  0.0000E+00  0.0000E+00  0.1200E+02  0.1200E+02
    -16.631  0.0000E+00  0.0000E+00  0.1200E+02  0.1200E+02
    -16.361  0.0000E+00  0.0000E+00  0.1200E+02  0.1200E+02
    -16.091  0.0000E+00  0.0000E+00  0.1200E+02  0.1200E+02
    -15.821  0.0000E+00  0.0000E+00  0.1200E+02  0.1200E+02
    -15.550  0.0000E+00  0.0000E+00  0.1200E+02  0.1200E+02
    -15.280  0.0000E+00  0.0000E+00  0.1200E+02  0.1200E+02
    -15.010  0.0000E+00  0.0000E+00  0.1200E+02  0.1200E+02
    -14.740  0.0000E+00  0.0000E+00  0.1200E+02  0.1200E+02
    -14.470  0.0000E+00  0.0000E+00  0.1200E+02  0.1200E+02
    -14.200  0.0000E+00  0.0000E+00  0.1200E+02  0.1200E+02
    -13.930  0.0000E+00  0.0000E+00  0.1200E+02  0.1200E+02
    -13.660  0.0000E+00  0.0000E+00  0.1200E+02  0.1200E+02
    -13.390  0.0000E+00  0.0000E+00  0.1200E+02  0.1200E+02
    -13.120  0.0000E+00  0.0000E+00  0.1200E+02  0.1200E+02
    -12.850  0.0000E+00  0.0000E+00  0.1200E+02  0.1200E+02
    -12.580  0.0000E+00  0.0000E+00  0.1200E+02  0.1200E+02
    -12.310  0.0000E+00  0.0000E+00  0.1200E+02  0.1200E+02
    -12.039  0.0000E+00  0.0000E+00  0.1200E+02  0.1200E+02
    -11.769  0.0000E+00  0.0000E+00  0.1200E+02  0.1200E+02
    -11.499  0.0000E+00  0.0000E+00  0.1200E+02  0.1200E+02
    -11.229  0.0000E+00  0.0000E+00  0.1200E+02  0.1200E+02
    -10.959  0.0000E+00  0.0000E+00  0.1200E+02  0.1200E+02
    -10.689  0.0000E+00  0.0000E+00  0.1200E+02  0.1200E+02
    -10.419  0.0000E+00  0.0000E+00  0.1200E+02  0.1200E+02
    -10.149  0.0000E+00  0.0000E+00  0.1200E+02  0.1200E+02
     -9.879  0.0000E+00  0.0000E+00  0.1200E+02  0.1200E+02
     -9.609  0.0000E+00  0.0000E+00  0.1200E+02  0.1200E+02
     -9.339  0.0000E+00  0.0000E+00  0.1200E+02  0.1200E+02
     -9.069  0.0000E+00  0.0000E+00  0.1200E+02  0.1200E+02
     -8.799  0.0000E+00  0.0000E+00  0.1200E+02  0.1200E+02
     -8.528  0.0000E+00  0.0000E+00  0.1200E+02  0.1200E+02
     -8.258  0.0000E+00  0.0000E+00  0.1200E+02  0.1200E+02
     -7.988  0.0000E+00  0.0000E+00  0.1200E+02  0.1200E+02
     -7.718  0.0000E+00  0.0000E+00  0.1200E+02  0.1200E+02
     -7.448  0.0000E+00  0.0000E+00  0.1200E+02  0.1200E+02
     -7.178  0.0000E+00  0.0000E+00  0.1200E+02  0.1200E+02
     -6.908  0.0000E+00  0.0000E+00  0.1200E+02  0.1200E+02
     -6.638  0.0000E+00  0.0000E+00  0.1200E+02  0.1200E+02
     -6.368  0.0000E+00  0.0000E+00  0.1200E+02  0.1200E+02
     -6.098  0.0000E+00  0.0000E+00  0.1200E+02  0.1200E+02
     -5.828  0.0000E+00  0.0000E+00  0.1200E+02  0.1200E+02
     -5.558  0.0000E+00  0.0000E+00  0.1200E+02  0.1200E+02
     -5.287  0.0000E+00  0.0000E+00  0.1200E+02  0.1200E+02
     -5.017  0.0000E+00  0.0000E+00  0.1200E+02  0.1200E+02
     -4.747  0.0000E+00  0.0000E+00  0.1200E+02  0.1200E+02
     -4.477  0.0000E+00  0.0000E+00  0.1200E+02  0.1200E+02
     -4.207  0.0000E+00  0.0000E+00  0.1200E+02  0.1200E+02
     -3.937  0.0000E+00  0.0000E+00  0.1200E+02  0.1200E+02
     -3.667  0.0000E+00  0.0000E+00  0.1200E+02  0.1200E+02
     -3.397  0.0000E+00  0.0000E+00  0.1200E+02  0.1200E+02
     -3.127  0.0000E+00  0.0000E+00  0.1200E+02  0.1200E+02
     -2.857  0.0000E+00  0.0000E+00  0.1200E+02  0.1200E+02
     -2.587  0.0000E+00  0.0000E+00  0.1200E+02  0.1200E+02
     -2.317  0.0000E+00  0.0000E+00  0.1200E+02  0.1200E+02
     -2.047  0.0000E+00  0.0000E+00  0.1200E+02  0.1200E+02
     -1.776  0.0000E+00  0.0000E+00  0.1200E+02  0.1200E+02
     -1.506  0.0000E+00  0.0000E+00  0.1200E+02  0.1200E+02
     -1.236  0.0000E+00  0.0000E+00  0.1200E+02  0.1200E+02
     -0.966  0.0000E+00  0.0000E+00  0.1200E+02  0.1200E+02
     -0.696  0.0000E+00  0.0000E+00  0.1200E+02  0.1200E+02
     -0.426  0.0000E+00  0.0000E+00  0.1200E+02  0.1200E+02
     -0.156  0.0000E+00  0.0000E+00  0.1200E+02  0.1200E+02
      0.114  0.0000E+00  0.0000E+00  0.1200E+02  0.1200E+02
      0.384  0.0000E+00  0.0000E+00  0.1200E+02  0.1200E+02
      0.654  0.0000E+00  0.0000E+00  0.1200E+02  0.1200E+02
      0.924  0.0000E+00  0.0000E+00  0.1200E+02  0.1200E+02
      1.194  0.8029E-18  0.8029E-18  0.1200E+02  0.1200E+02
      1.464  0.1972E-02  0.1972E-02  0.1200E+02  0.1200E+02
      1.735  0.4355E-01  0.4355E-01  0.1201E+02  0.1201E+02
      2.005  0.9212E-01  0.9212E-01  0.1204E+02  0.1204E+02
      2.275  0.7142E-01  0.7142E-01  0.1206E+02  0.1206E+02
      2.545  0.1959E+00  0.1959E+00  0.1211E+02  0.1211E+02
      2.815  0.1808E+00  0.1808E+00  0.1216E+02  0.1216E+02
      3.085  0.7868E-01  0.7868E-01  0.1218E+02  0.1218E+02
      3.355  0.2670E+00  0.2670E+00  0.1225E+02  0.1225E+02
      3.625  0.3107E+00  0.3107E+00  0.1234E+02  0.1234E+02
      3.895  0.1630E+00  0.1630E+00  0.1238E+02  0.1238E+02
      4.165  0.4207E+00  0.4207E+00  0.1249E+02  0.1249E+02
      4.435  0.3357E+00  0.3357E+00  0.1258E+02  0.1258E+02
      4.705  0.4222E+00  0.4222E+00  0.1270E+02  0.1270E+02
      4.976  0.6659E+00  0.6659E+00  0.1288E+02  0.1288E+02
      5.246  0.8710E+00  0.8710E+00  0.1311E+02  0.1311E+02
      5.516  0.2026E+01  0.2026E+01  0.1366E+02  0.1366E+02
      5.786  0.2161E+01  0.2161E+01  0.1424E+02  0.1424E+02
      6.056  0.2241E+01  0.2241E+01  0.1485E+02  0.1485E+02
      6.326  0.2939E+01  0.2939E+01  0.1564E+02  0.1564E+02
      6.596  0.3194E+01  0.3194E+01  0.1651E+02  0.1651E+02
      6.866  0.3178E+01  0.3178E+01  0.1736E+02  0.1736E+02
      7.136  0.2662E+01  0.2662E+01  0.1808E+02  0.1808E+02
      7.406  0.2619E+01  0.2619E+01  0.1879E+02  0.1879E+02
      7.676  0.2767E+01  0.2767E+01  0.1954E+02  0.1954E+02
      7.946  0.3390E+01  0.3390E+01  0.2045E+02  0.2045E+02
      8.216  0.2763E+01  0.2763E+01  0.2120E+02  0.2120E+02
      8.487  0.4510E+01  0.4510E+01  0.2242E+02  0.2242E+02
      8.757  0.3466E+01  0.3466E+01  0.2335E+02  0.2335E+02
      9.027  0.3925E+01  0.3925E+01  0.2441E+02  0.2441E+02
      9.297  0.3457E+01  0.3457E+01  0.2535E+02  0.2535E+02
      9.567  0.3197E+01  0.3197E+01  0.2621E+02  0.2621E+02
      9.837  0.1851E+01  0.1851E+01  0.2671E+02  0.2671E+02
     10.107  0.1570E+01  0.1570E+01  0.2713E+02  0.2713E+02
     10.377  0.1800E+01  0.1800E+01  0.2762E+02  0.2762E+02
     10.647  0.3377E+01  0.3377E+01  0.2853E+02  0.2853E+02
     10.917  0.4123E+01  0.4123E+01  0.2965E+02  0.2965E+02
     11.187  0.3697E+01  0.3697E+01  0.3064E+02  0.3064E+02
     11.457  0.3765E+01  0.3765E+01  0.3166E+02  0.3166E+02
     11.727  0.4378E+01  0.4378E+01  0.3284E+02  0.3284E+02
     11.998  0.1603E+01  0.1603E+01  0.3328E+02  0.3328E+02
     12.268  0.1302E+01  0.1302E+01  0.3363E+02  0.3363E+02
     12.538  0.6165E+00  0.6165E+00  0.3379E+02  0.3379E+02
     12.808  0.5177E+00  0.5177E+00  0.3393E+02  0.3393E+02
     13.078  0.7993E+00  0.7993E+00  0.3415E+02  0.3415E+02
     13.348  0.4569E+00  0.4569E+00  0.3427E+02  0.3427E+02
     13.618  0.6264E+00  0.6264E+00  0.3444E+02  0.3444E+02
     13.888  0.5549E+00  0.5549E+00  0.3459E+02  0.3459E+02
     14.158  0.5669E+00  0.5669E+00  0.3475E+02  0.3475E+02
     14.428  0.8819E+00  0.8819E+00  0.3498E+02  0.3498E+02
     14.698  0.3861E+00  0.3861E+00  0.3509E+02  0.3509E+02
     14.968  0.4879E+00  0.4879E+00  0.3522E+02  0.3522E+02
     15.239  0.1687E+00  0.1687E+00  0.3527E+02  0.3527E+02
     15.509  0.5908E+00  0.5908E+00  0.3543E+02  0.3543E+02
     15.779  0.3166E+00  0.3166E+00  0.3551E+02  0.3551E+02
     16.049  0.4136E+00  0.4136E+00  0.3562E+02  0.3562E+02
     16.319  0.4866E+00  0.4866E+00  0.3575E+02  0.3575E+02
     16.589  0.2868E-04  0.2868E-04  0.3575E+02  0.3575E+02
     16.859  0.2441E+00  0.2441E+00  0.3582E+02  0.3582E+02
     17.129  0.2765E+00  0.2765E+00  0.3589E+02  0.3589E+02
     17.399  0.3396E+00  0.3396E+00  0.3599E+02  0.3599E+02
     17.669  0.7817E-02  0.7817E-02  0.3599E+02  0.3599E+02
     17.939  0.6078E+00  0.6078E+00  0.3615E+02  0.3615E+02
     18.209  0.6058E+00  0.6058E+00  0.3632E+02  0.3632E+02
     18.479  0.1177E+01  0.1177E+01  0.3663E+02  0.3663E+02
     18.750  0.6866E+00  0.6866E+00  0.3682E+02  0.3682E+02
     19.020  0.3567E+00  0.3567E+00  0.3692E+02  0.3692E+02
     19.290  0.9781E+00  0.9781E+00  0.3718E+02  0.3718E+02
     19.560  0.2284E+00  0.2284E+00  0.3724E+02  0.3724E+02
     19.830  0.5179E+00  0.5179E+00  0.3738E+02  0.3738E+02
     20.100  0.5775E+00  0.5775E+00  0.3754E+02  0.3754E+02
     20.370  0.2571E+00  0.2571E+00  0.3761E+02  0.3761E+02
     20.640  0.7039E+00  0.7039E+00  0.3780E+02  0.3780E+02
     20.910  0.6759E+00  0.6759E+00  0.3798E+02  0.3798E+02
     21.180  0.7242E+00  0.7242E+00  0.3818E+02  0.3818E+02
     21.450  0.7358E+00  0.7358E+00  0.3837E+02  0.3837E+02
     21.720  0.5945E+00  0.5945E+00  0.3853E+02  0.3853E+02
     21.990  0.9108E+00  0.9108E+00  0.3878E+02  0.3878E+02
     22.261  0.8148E+00  0.8148E+00  0.3900E+02  0.3900E+02
     22.531  0.8870E+00  0.8870E+00  0.3924E+02  0.3924E+02
     22.801  0.1389E+01  0.1389E+01  0.3962E+02  0.3962E+02
     23.071  0.7119E+00  0.7119E+00  0.3981E+02  0.3981E+02
     23.341  0.5359E+00  0.5359E+00  0.3995E+02  0.3995E+02
     23.611  0.9461E+00  0.9461E+00  0.4021E+02  0.4021E+02
     23.881  0.1026E+01  0.1026E+01  0.4048E+02  0.4048E+02
     24.151  0.7161E+00  0.7161E+00  0.4068E+02  0.4068E+02
     24.421  0.8170E+00  0.8170E+00  0.4090E+02  0.4090E+02
     24.691  0.1627E+01  0.1627E+01  0.4134E+02  0.4134E+02
     24.961  0.6021E+00  0.6021E+00  0.4150E+02  0.4150E+02
     25.231  0.8311E+00  0.8311E+00  0.4173E+02  0.4173E+02
     25.502  0.1194E+01  0.1194E+01  0.4205E+02  0.4205E+02
     25.772  0.1172E+01  0.1172E+01  0.4236E+02  0.4236E+02
     26.042  0.9352E+00  0.9352E+00  0.4262E+02  0.4262E+02
     26.312  0.9185E+00  0.9185E+00  0.4286E+02  0.4286E+02
     26.582  0.6681E+00  0.6681E+00  0.4305E+02  0.4305E+02
     26.852  0.9719E+00  0.9719E+00  0.4331E+02  0.4331E+02
     27.122  0.6339E+00  0.6339E+00  0.4348E+02  0.4348E+02
     27.392  0.8482E+00  0.8482E+00  0.4371E+02  0.4371E+02
     27.662  0.1453E+01  0.1453E+01  0.4410E+02  0.4410E+02
     27.932  0.5927E+00  0.5927E+00  0.4426E+02  0.4426E+02
     28.202  0.1284E+01  0.1284E+01  0.4461E+02  0.4461E+02
     28.472  0.8306E+00  0.8306E+00  0.4483E+02  0.4483E+02
     28.742  0.7753E+00  0.7753E+00  0.4504E+02  0.4504E+02
     29.013  0.4293E+00  0.4293E+00  0.4516E+02  0.4516E+02
     29.283  0.7016E+00  0.7016E+00  0.4535E+02  0.4535E+02
     29.553  0.1520E+01  0.1520E+01  0.4576E+02  0.4576E+02
     29.823  0.7338E+00  0.7338E+00  0.4596E+02  0.4596E+02
     30.093  0.6089E+00  0.6089E+00  0.4612E+02  0.4612E+02
     30.363  0.6511E+00  0.6511E+00  0.4630E+02  0.4630E+02
     30.633  0.4771E+00  0.4771E+00  0.4642E+02  0.4642E+02
     30.903  0.6267E+00  0.6267E+00  0.4659E+02  0.4659E+02
     31.173  0.8375E+00  0.8375E+00  0.4682E+02  0.4682E+02
     31.443  0.1441E+01  0.1441E+01  0.4721E+02  0.4721E+02
     31.713  0.1021E+01  0.1021E+01  0.4748E+02  0.4748E+02
     31.983  0.7207E+00  0.7207E+00  0.4768E+02  0.4768E+02
     32.253  0.2278E+00  0.2278E+00  0.4774E+02  0.4774E+02
     32.524  0.1947E-01  0.1947E-01  0.4775E+02  0.4775E+02
     32.794  0.6524E+00  0.6524E+00  0.4792E+02  0.4792E+02
     33.064  0.1745E+00  0.1745E+00  0.4797E+02  0.4797E+02
     33.334  0.8422E-01  0.8422E-01  0.4799E+02  0.4799E+02
     33.604  0.1458E-04  0.1457E-04  0.4799E+02  0.4799E+02
     33.874  0.3372E-04  0.3372E-04  0.4799E+02  0.4799E+02
     34.144  0.1447E-01  0.1447E-01  0.4800E+02  0.4800E+02
     34.414  0.1442E-01  0.1442E-01  0.4800E+02  0.4800E+02
     34.684  0.0000E+00  0.0000E+00  0.4800E+02  0.4800E+02
     34.954  0.0000E+00  0.0000E+00  0.4800E+02  0.4800E+02
     35.224  0.0000E+00  0.0000E+00  0.4800E+02  0.4800E+02
     35.494  0.0000E+00  0.0000E+00  0.4800E+02  0.4800E+02
     35.764  0.0000E+00  0.0000E+00  0.4800E+02  0.4800E+02
     36.035  0.0000E+00  0.0000E+00  0.4800E+02  0.4800E+02
     36.305  0.0000E+00  0.0000E+00  0.4800E+02  0.4800E+02
     36.575  0.0000E+00  0.0000E+00  0.4800E+02  0.4800E+02
     36.845  0.0000E+00  0.0000E+00  0.4800E+02  0.4800E+02
     37.115  0.0000E+00  0.0000E+00  0.4800E+02  0.4800E+02
     37.385  0.0000E+00  0.0000E+00  0.4800E+02  0.4800E+02
     37.655  0.0000E+00  0.0000E+00  0.4800E+02  0.4800E+02
     37.925  0.0000E+00  0.0000E+00  0.4800E+02  0.4800E+02
     37.92512599    -43.09851550  301      9.50450429      1.00000000
    -43.099  0.0000E+00  0.0000E+00  0.0000E+00  0.0000E+00  0.0000E+00  0.0000E+00  0.0000E+00  0.0000E+00  0.0000E+00  0.0000E+00  0.0000E+00  0.0000E+00  0.0000E+00  0.0000E+00  0.0000E+00  0.0000E+00  0.0000E+00  0.0000E+00
    -42.828  0.0000E+00  0.0000E+00  0.0000E+00  0.0000E+00  0.0000E+00  0.0000E+00  0.0000E+00  0.0000E+00  0.0000E+00  0.0000E+00  0.0000E+00  0.0000E+00  0.0000E+00  0.0000E+00  0.0000E+00  0.0000E+00  0.0000E+00  0.0000E+00
    -42.558  0.0000E+00  0.0000E+00  0.0000E+00  0.0000E+00  0.0000E+00  0.0000E+00  0.0000E+00  0.0000E+00  0.0000E+00  0.0000E+00  0.0000E+00  0.0000E+00  0.0000E+00  0.0000E+00  0.0000E+00  0.0000E+00  0.0000E+00  0.0000E+00
    -42.288  0.0000E+00  0.0000E+00  0.0000E+00  0.0000E+00  0.0000E+00  0.0000E+00  0.0000E+00  0.0000E+00  0.0000E+00  0.0000E+00  0.0000E+00  0.0000E+00  0.0000E+00  0.0000E+00  0.0000E+00  0.0000E+00  0.0000E+00  0.0000E+00
    -42.018  0.0000E+00  0.0000E+00  0.0000E+00  0.0000E+00  0.0000E+00  0.0000E+00  0.0000E+00  0.0000E+00  0.0000E+00  0.0000E+00  0.0000E+00  0.0000E+00  0.0000E+00  0.0000E+00  0.0000E+00  0.0000E+00  0.0000E+00  0.0000E+00
    -41.748  0.0000E+00  0.0000E+00  0.0000E+00  0.0000E+00  0.0000E+00  0.0000E+00  0.0000E+00  0.0000E+00  0.0000E+00  0.0000E+00  0.0000E+00  0.0000E+00  0.0000E+00  0.0000E+00  0.0000E+00  0.0000E+00  0.0000E+00  0.0000E+00
    -41.478  0.0000E+00  0.0000E+00  0.0000E+00  0.0000E+00  0.0000E+00  0.0000E+00  0.0000E+00  0.0000E+00  0.0000E+00  0.0000E+00  0.0000E+00  0.0000E+00  0.0000E+00  0.0000E+00  0.0000E+00  0.0000E+00  0.0000E+00  0.0000E+00
    -41.208  0.0000E+00  0.0000E+00  0.0000E+00  0.0000E+00  0.0000E+00  0.0000E+00  0.0000E+00  0.0000E+00  0.0000E+00  0.0000E+00  0.0000E+00  0.0000E+00  0.0000E+00  0.0000E+00  0.0000E+00  0.0000E+00  0.0000E+00  0.0000E+00
    -40.938  0.0000E+00  0.0000E+00  0.0000E+00  0.0000E+00  0.0000E+00  0.0000E+00  0.0000E+00  0.0000E+00  0.0000E+00  0.0000E+00  0.0000E+00  0.0000E+00  0.0000E+00  0.0000E+00  0.0000E+00  0.0000E+00  0.0000E+00  0.0000E+00
    -40.668  0.0000E+00  0.0000E+00  0.0000E+00  0.0000E+00  0.0000E+00  0.0000E+00  0.0000E+00  0.0000E+00  0.0000E+00  0.0000E+00  0.0000E+00  0.0000E+00  0.0000E+00  0.0000E+00  0.0000E+00  0.0000E+00  0.0000E+00  0.0000E+00
    -40.398  0.0000E+00  0.0000E+00  0.0000E+00  0.0000E+00  0.0000E+00  0.0000E+00  0.0000E+00  0.0000E+00  0.0000E+00  0.0000E+00  0.0000E+00  0.0000E+00  0.0000E+00  0.0000E+00  0.0000E+00  0.0000E+00  0.0000E+00  0.0000E+00
    -40.128  0.0000E+00  0.0000E+00  0.0000E+00  0.0000E+00  0.0000E+00  0.0000E+00  0.0000E+00  0.0000E+00  0.0000E+00  0.0000E+00  0.0000E+00  0.0000E+00  0.0000E+00  0.0000E+00  0.0000E+00  0.0000E+00  0.0000E+00  0.0000E+00
    -39.858  0.0000E+00  0.0000E+00  0.0000E+00  0.0000E+00  0.0000E+00  0.0000E+00  0.0000E+00  0.0000E+00  0.0000E+00  0.0000E+00  0.0000E+00  0.0000E+00  0.0000E+00  0.0000E+00  0.0000E+00  0.0000E+00  0.0000E+00  0.0000E+00
    -39.587  0.3333E-13  0.2801E-11  0.2851E-07  0.3870E-09  0.3423E-08  0.9889E-11  0.3423E-08  0.9889E-11  0.5304E-13  0.5285E-12  0.5304E-13  0.5285E-12  0.1164E-13  0.6504E-13  0.2296E-13  0.1963E-13  0.9864E-14  0.7646E-13
    -39.317  0.4056E-04  0.3561E-03  0.3162E+01  0.1403E-01  0.9668E+00  0.6945E-02  0.9668E+00  0.6945E-02  0.1039E-04  0.1994E-03  0.1039E-04  0.1994E-03  0.1194E-04  0.7155E-04  0.4843E-04  0.9902E-05  0.1234E-04  0.6449E-04
    -39.047  0.2226E-03  0.1275E-03  0.4948E+00  0.6048E-02  0.2491E+01  0.3528E-02  0.2491E+01  0.3528E-02  0.1619E-05  0.1417E-03  0.1619E-05  0.1417E-03  0.4990E-04  0.5804E-04  0.2972E-03  0.1125E-04  0.5424E-04  0.4965E-04
    -38.777  0.3803E-05  0.6106E-06  0.9524E-05  0.3669E-04  0.2084E+00  0.1200E-03  0.2084E+00  0.1200E-03  0.5398E-08  0.5122E-05  0.5398E-08  0.5122E-05  0.1099E-05  0.4080E-05  0.5463E-05  0.8409E-07  0.1184E-05  0.3246E-05
    -38.507  0.0000E+00  0.0000E+00  0.0000E+00  0.0000E+00  0.0000E+00  0.0000E+00  0.0000E+00  0.0000E+00  0.0000E+00  0.0000E+00  0.0000E+00  0.0000E+00  0.0000E+00  0.0000E+00  0.0000E+00  0.0000E+00  0.0000E+00  0.0000E+00
    -38.237  0.0000E+00  0.0000E+00  0.0000E+00  0.0000E+00  0.0000E+00  0.0000E+00  0.0000E+00  0.0000E+00  0.0000E+00  0.0000E+00  0.0000E+00  0.0000E+00  0.0000E+00  0.0000E+00  0.0000E+00  0.0000E+00  0.0000E+00  0.0000E+00
    -37.967  0.0000E+00  0.0000E+00  0.0000E+00  0.0000E+00  0.0000E+00  0.0000E+00  0.0000E+00  0.0000E+00  0.0000E+00  0.0000E+00  0.0000E+00  0.0000E+00  0.0000E+00  0.0000E+00  0.0000E+00  0.0000E+00  0.0000E+00  0.0000E+00
    -37.697  0.0000E+00  0.0000E+00  0.0000E+00  0.0000E+00  0.0000E+00  0.0000E+00  0.0000E+00  0.0000E+00  0.0000E+00  0.0000E+00  0.0000E+00  0.0000E+00  0.0000E+00  0.0000E+00  0.0000E+00  0.0000E+00  0.0000E+00  0.0000E+00
    -37.427  0.3046E-05  0.1186E-06  0.7163E-04  0.1681E-04  0.1125E-04  0.9715E-02  0.1125E-04  0.9715E-02  0.3259E-06  0.3839E-08  0.3259E-06  0.3839E-08  0.4317E-06  0.4786E-07  0.1792E-06  0.1638E-06  0.5635E-06  0.5571E-07
    -37.157  0.5005E-03  0.1632E-03  0.2025E-01  0.3628E+01  0.1033E-01  0.2113E+01  0.1033E-01  0.2113E+01  0.3409E-03  0.6801E-05  0.3409E-03  0.6801E-05  0.1268E-03  0.4493E-04  0.1256E-04  0.2453E-03  0.1168E-03  0.5003E-04
    -36.887  0.2728E-04  0.8703E-04  0.1474E-02  0.3031E-01  0.1475E-02  0.1545E+01  0.1475E-02  0.1545E+01  0.6208E-04  0.8889E-07  0.6208E-04  0.8889E-07  0.3063E-04  0.2380E-04  0.1226E-05  0.1377E-03  0.2436E-04  0.2702E-04
    -36.617  0.0000E+00  0.0000E+00  0.0000E+00  0.0000E+00  0.0000E+00  0.0000E+00  0.0000E+00  0.0000E+00  0.0000E+00  0.0000E+00  0.0000E+00  0.0000E+00  0.0000E+00  0.0000E+00  0.0000E+00  0.0000E+00  0.0000E+00  0.0000E+00
    -36.347  0.0000E+00  0.0000E+00  0.0000E+00  0.0000E+00  0.0000E+00  0.0000E+00  0.0000E+00  0.0000E+00  0.0000E+00  0.0000E+00  0.0000E+00  0.0000E+00  0.0000E+00  0.0000E+00  0.0000E+00  0.0000E+00  0.0000E+00  0.0000E+00
    -36.076  0.0000E+00  0.0000E+00  0.0000E+00  0.0000E+00  0.0000E+00  0.0000E+00  0.0000E+00  0.0000E+00  0.0000E+00  0.0000E+00  0.0000E+00  0.0000E+00  0.0000E+00  0.0000E+00  0.0000E+00  0.0000E+00  0.0000E+00  0.0000E+00
    -35.806  0.0000E+00  0.0000E+00  0.0000E+00  0.0000E+00  0.0000E+00  0.0000E+00  0.0000E+00  0.0000E+00  0.0000E+00  0.0000E+00  0.0000E+00  0.0000E+00  0.0000E+00  0.0000E+00  0.0000E+00  0.0000E+00  0.0000E+00  0.0000E+00
    -35.536  0.0000E+00  0.0000E+00  0.0000E+00  0.0000E+00  0.0000E+00  0.0000E+00  0.0000E+00  0.0000E+00  0.0000E+00  0.0000E+00  0.0000E+00  0.0000E+00  0.0000E+00  0.0000E+00  0.0000E+00  0.0000E+00  0.0000E+00  0.0000E+00
    -35.266  0.0000E+00  0.0000E+00  0.0000E+00  0.0000E+00  0.0000E+00  0.0000E+00  0.0000E+00  0.0000E+00  0.0000E+00  0.0000E+00  0.0000E+00  0.0000E+00  0.0000E+00  0.0000E+00  0.0000E+00  0.0000E+00  0.0000E+00  0.0000E+00
    -34.996  0.0000E+00  0.0000E+00  0.0000E+00  0.0000E+00  0.0000E+00  0.0000E+00  0.0000E+00  0.0000E+00  0.0000E+00  0.0000E+00  0.0000E+00  0.0000E+00  0.0000E+00  0.0000E+00  0.0000E+00  0.0000E+00  0.0000E+00  0.0000E+00
    -34.726  0.0000E+00  0.0000E+00  0.0000E+00  0.0000E+00  0.0000E+00  0.0000E+00  0.0000E+00  0.0000E+00  0.0000E+00  0.0000E+00  0.0000E+00  0.0000E+00  0.0000E+00  0.0000E+00  0.0000E+00  0.0000E+00  0.0000E+00  0.0000E+00
    -34.456  0.0000E+00  0.0000E+00  0.0000E+00  0.0000E+00  0.0000E+00  0.0000E+00  0.0000E+00  0.0000E+00  0.0000E+00  0.0000E+00  0.0000E+00  0.0000E+00  0.0000E+00  0.0000E+00  0.0000E+00  0.0000E+00  0.0000E+00  0.0000E+00
    -34.186  0.0000E+00  0.0000E+00  0.0000E+00  0.0000E+00  0.0000E+00  0.0000E+00  0.0000E+00  0.0000E+00  0.0000E+00  0.0000E+00  0.0000E+00  0.0000E+00  0.0000E+00  0.0000E+00  0.0000E+00  0.0000E+00  0.0000E+00  0.0000E+00
    -33.916  0.0000E+00  0.0000E+00  0.0000E+00  0.0000E+00  0.0000E+00  0.0000E+00  0.0000E+00  0.0000E+00  0.0000E+00  0.0000E+00  0.0000E+00  0.0000E+00  0.0000E+00  0.0000E+00  0.0000E+00  0.0000E+00  0.0000E+00  0.0000E+00
    -33.646  0.0000E+00  0.0000E+00  0.0000E+00  0.0000E+00  0.0000E+00  0.0000E+00  0.0000E+00  0.0000E+00  0.0000E+00  0.0000E+00  0.0000E+00  0.0000E+00  0.0000E+00  0.0000E+00  0.0000E+00  0.0000E+00  0.0000E+00  0.0000E+00
    -33.376  0.0000E+00  0.0000E+00  0.0000E+00  0.0000E+00  0.0000E+00  0.0000E+00  0.0000E+00  0.0000E+00  0.0000E+00  0.0000E+00  0.0000E+00  0.0000E+00  0.0000E+00  0.0000E+00  0.0000E+00  0.0000E+00  0.0000E+00  0.0000E+00
    -33.106  0.0000E+00  0.0000E+00  0.0000E+00  0.0000E+00  0.0000E+00  0.0000E+00  0.0000E+00  0.0000E+00  0.0000E+00  0.0000E+00  0.0000E+00  0.0000E+00  0.0000E+00  0.0000E+00  0.0000E+00  0.0000E+00  0.0000E+00  0.0000E+00
    -32.836  0.0000E+00  0.0000E+00  0.0000E+00  0.0000E+00  0.0000E+00  0.0000E+00  0.0000E+00  0.0000E+00  0.0000E+00  0.0000E+00  0.0000E+00  0.0000E+00  0.0000E+00  0.0000E+00  0.0000E+00  0.0000E+00  0.0000E+00  0.0000E+00
    -32.565  0.0000E+00  0.0000E+00  0.0000E+00  0.0000E+00  0.0000E+00  0.0000E+00  0.0000E+00  0.0000E+00  0.0000E+00  0.0000E+00  0.0000E+00  0.0000E+00  0.0000E+00  0.0000E+00  0.0000E+00  0.0000E+00  0.0000E+00  0.0000E+00
    -32.295  0.0000E+00  0.0000E+00  0.0000E+00  0.0000E+00  0.0000E+00  0.0000E+00  0.0000E+00  0.0000E+00  0.0000E+00  0.0000E+00  0.0000E+00  0.0000E+00  0.0000E+00  0.0000E+00  0.0000E+00  0.0000E+00  0.0000E+00  0.0000E+00
    -32.025  0.0000E+00  0.0000E+00  0.0000E+00  0.0000E+00  0.0000E+00  0.0000E+00  0.0000E+00  0.0000E+00  0.0000E+00  0.0000E+00  0.0000E+00  0.0000E+00  0.0000E+00  0.0000E+00  0.0000E+00  0.0000E+00  0.0000E+00  0.0000E+00
    -31.755  0.0000E+00  0.0000E+00  0.0000E+00  0.0000E+00  0.0000E+00  0.0000E+00  0.0000E+00  0.0000E+00  0.0000E+00  0.0000E+00  0.0000E+00  0.0000E+00  0.0000E+00  0.0000E+00  0.0000E+00  0.0000E+00  0.0000E+00  0.0000E+00
    -31.485  0.0000E+00  0.0000E+00  0.0000E+00  0.0000E+00  0.0000E+00  0.0000E+00  0.0000E+00  0.0000E+00  0.0000E+00  0.0000E+00  0.0000E+00  0.0000E+00  0.0000E+00  0.0000E+00  0.0000E+00  0.0000E+00  0.0000E+00  0.0000E+00
    -31.215  0.0000E+00  0.0000E+00  0.0000E+00  0.0000E+00  0.0000E+00  0.0000E+00  0.0000E+00  0.0000E+00  0.0000E+00  0.0000E+00  0.0000E+00  0.0000E+00  0.0000E+00  0.0000E+00  0.0000E+00  0.0000E+00  0.0000E+00  0.0000E+00
    -30.945  0.0000E+00  0.0000E+00  0.0000E+00  0.0000E+00  0.0000E+00  0.0000E+00  0.0000E+00  0.0000E+00  0.0000E+00  0.0000E+00  0.0000E+00  0.0000E+00  0.0000E+00  0.0000E+00  0.0000E+00  0.0000E+00  0.0000E+00  0.0000E+00
    -30.675  0.0000E+00  0.0000E+00  0.0000E+00  0.0000E+00  0.0000E+00  0.0000E+00  0.0000E+00  0.0000E+00  0.0000E+00  0.0000E+00  0.0000E+00  0.0000E+00  0.0000E+00  0.0000E+00  0.0000E+00  0.0000E+00  0.0000E+00  0.0000E+00
    -30.405  0.0000E+00  0.0000E+00  0.0000E+00  0.0000E+00  0.0000E+00  0.0000E+00  0.0000E+00  0.0000E+00  0.0000E+00  0.0000E+00  0.0000E+00  0.0000E+00  0.0000E+00  0.0000E+00  0.0000E+00  0.0000E+00  0.0000E+00  0.0000E+00
    -30.135  0.0000E+00  0.0000E+00  0.0000E+00  0.0000E+00  0.0000E+00  0.0000E+00  0.0000E+00  0.0000E+00  0.0000E+00  0.0000E+00  0.0000E+00  0.0000E+00  0.0000E+00  0.0000E+00  0.0000E+00  0.0000E+00  0.0000E+00  0.0000E+00
    -29.865  0.0000E+00  0.0000E+00  0.0000E+00  0.0000E+00  0.0000E+00  0.0000E+00  0.0000E+00  0.0000E+00  0.0000E+00  0.0000E+00  0.0000E+00  0.0000E+00  0.0000E+00  0.0000E+00  0.0000E+00  0.0000E+00  0.0000E+00  0.0000E+00
    -29.595  0.0000E+00  0.0000E+00  0.0000E+00  0.0000E+00  0.0000E+00  0.0000E+00  0.0000E+00  0.0000E+00  0.0000E+00  0.0000E+00  0.0000E+00  0.0000E+00  0.0000E+00  0.0000E+00  0.0000E+00  0.0000E+00  0.0000E+00  0.0000E+00