    4    4    1    2
  0.1162051E+02  0.3595520E-09  0.3595520E-09  0.3595520E-09  0.5000000E-15
  1.000000000000000E-004
  CAR 
 Mn                                      
     52     75     48
 
  0.0000000E+00  0.0000000E+00  0.0000000E+00  0.1953125E-02
      1        -39.415623      -39.415623   1.000000   1.000000
      2        -39.359370      -39.359370   1.000000   1.000000
      3        -39.359370      -39.359370   1.000000   1.000000
      4        -39.317721      -39.317721   1.000000   1.000000
      5        -39.080074      -39.080074   1.000000   1.000000
      6        -39.080074      -39.080074   1.000000   1.000000
      7        -37.326437      -37.326437   1.000000   1.000000
      8        -37.326437      -37.326437   1.000000   1.000000
      9        -37.253470      -37.253470   1.000000   1.000000
     10        -37.222423      -37.222423   1.000000   1.000000
     11        -37.046798      -37.046798   1.000000   1.000000
     12        -37.046798      -37.046798   1.000000   1.000000
     13          1.485860        1.485860   1.000000   1.000000
     14          4.922757        4.922757   1.000000   1.000000
     15          5.155901        5.155901   1.000000   1.000000
     16          5.533922        5.533922   1.000000   1.000000
     17          5.935662        5.935662   1.000000   1.000000
     18          5.935662        5.935662   1.000000   1.000000
     19          5.936568        5.936568   1.000000   1.000000
     20          8.316533        8.316533   1.000000   1.000000
     21          8.316533        8.316533   1.000000   1.000000
     22          8.791085        8.791085   1.000000   1.000000
     23          9.472221        9.472221   0.819407   0.819407
     24         10.206489       10.206489   0.000000   0.000000
     25         10.696527       10.696527   0.000000   0.000000
     26         10.738068       10.738068   0.000000   0.000000
     27         11.580008       11.580008   0.000000   0.000000
     28         11.580008       11.580008   0.000000   0.000000
     29         11.701166       11.701166   0.000000   0.000000
     30         11.740386       11.740386   0.000000   0.000000
     31         11.740386       11.740386   0.000000   0.000000
     32         11.978945       11.978945   0.000000   0.000000
     33         12.305800       12.305800   0.000000   0.000000
     34         12.677605       12.677605   0.000000   0.000000
     35         12.691918       12.691918   0.000000   0.000000
     36         12.691918       12.691918   0.000000   0.000000
     37         20.900469       20.900469   0.000000   0.000000
     38         20.941387       20.941387   0.000000   0.000000
     39         21.016018       21.016018   0.000000   0.000000
     40         24.150529       24.150529   0.000000   0.000000
     41         24.511481       24.511481   0.000000   0.000000
     42         24.511481       24.511481   0.000000   0.000000
     43         24.537564       24.537564   0.000000   0.000000
     44         24.537564       24.537564   0.000000   0.000000
     45         24.852663       24.852663   0.000000   0.000000
     46         30.254844       30.254844   0.000000   0.000000
     47         30.254844       30.254844   0.000000   0.000000
     48         30.256755       30.256755   0.000000   0.000000
 
  0.1250000E+00  0.1511029E-32  0.0000000E+00  0.7812500E-02
      1        -39.410670      -39.410670   1.000000   1.000000
      2        -39.348607      -39.348607   1.000000   1.000000
      3        -39.348180      -39.348180   1.000000   1.000000
      4        -39.319915      -39.319915   1.000000   1.000000
      5        -39.090574      -39.090574   1.000000   1.000000
      6        -39.090235      -39.090235   1.000000   1.000000
      7        -37.318066      -37.318066   1.000000   1.000000
      8        -37.315714      -37.315714   1.000000   1.000000
      9        -37.253620      -37.253620   1.000000   1.000000
     10        -37.224699      -37.224699   1.000000   1.000000
     11        -37.060029      -37.060029   1.000000   1.000000
     12        -37.057463      -37.057463   1.000000   1.000000
     13          1.692895        1.692895   1.000000   1.000000
     14          5.019082        5.019082   1.000000   1.000000
     15          5.282148        5.282148   1.000000   1.000000
     16          5.600670        5.600670   1.000000   1.000000
     17          6.015998        6.015998   1.000000   1.000000
     18          6.026747        6.026747   1.000000   1.000000
     19          6.031014        6.031014   1.000000   1.000000
     20          8.214721        8.214721   1.000000   1.000000
     21          8.344737        8.344737   1.000000   1.000000
     22          8.870127        8.870127   1.000000   1.000000
     23          9.384057        9.384057   0.999671   0.999671
     24         10.187148       10.187148   0.000000   0.000000
     25         10.217753       10.217753   0.000000   0.000000
     26         10.637836       10.637836   0.000000   0.000000
     27         10.866016       10.866016   0.000000   0.000000
     28         11.423029       11.423029   0.000000   0.000000
     29         11.531960       11.531960   0.000000   0.000000
     30         11.583331       11.583331   0.000000   0.000000
     31         11.706969       11.706969   0.000000   0.000000
     32         11.728609       11.728609   0.000000   0.000000
     33         11.850238       11.850238   0.000000   0.000000
     34         12.063853       12.063853   0.000000   0.000000
     35         13.740728       13.740728   0.000000   0.000000
     36         13.778014       13.778014   0.000000   0.000000
     37         20.934108       20.934108   0.000000   0.000000
     38         20.949165       20.949165   0.000000   0.000000
     39         21.946056       21.946056   0.000000   0.000000
     40         23.709411       23.709411   0.000000   0.000000
     41         23.795940       23.795940   0.000000   0.000000
     42         24.077324       24.077324   0.000000   0.000000
     43         24.101074       24.101074   0.000000   0.000000
     44         24.902350       24.902350   0.000000   0.000000
     45         24.941152       24.941152   0.000000   0.000000
     46         30.241640       30.241640   0.000000   0.000000
     47         30.249601       30.249601   0.000000   0.000000
     48         31.114535       31.114539   0.000000   0.000000
 
  0.0000000E+00  0.1250000E+00  0.0000000E+00  0.3906250E-02
      1        -39.411588      -39.411588   1.000000   1.000000
      2        -39.357226      -39.357226   1.000000   1.000000
      3        -39.357226      -39.357226   1.000000   1.000000
      4        -39.318203      -39.318203   1.000000   1.000000
      5        -39.079118      -39.079118   1.000000   1.000000
      6        -39.079118      -39.079118   1.000000   1.000000
      7        -37.328515      -37.328515   1.000000   1.000000
      8        -37.328515      -37.328515   1.000000   1.000000
      9        -37.260198      -37.260198   1.000000   1.000000
     10        -37.223008      -37.223008   1.000000   1.000000
     11        -37.047503      -37.047503   1.000000   1.000000
     12        -37.047503      -37.047503   1.000000   1.000000
     13          1.691911        1.691911   1.000000   1.000000
     14          5.026291        5.026291   1.000000   1.000000
     15          5.199521        5.199521   1.000000   1.000000
     16          5.693824        5.693824   1.000000   1.000000
     17          6.008362        6.008362   1.000000   1.000000
     18          6.022550        6.022550   1.000000   1.000000
     19          6.022550        6.022550   1.000000   1.000000
     20          8.376578        8.376578   1.000000   1.000000
     21          8.376578        8.376578   1.000000   1.000000
     22          8.688817        8.688817   1.000000   1.000000
     23          9.485770        9.485770   0.701908   0.701908
     24         10.060481       10.060481   0.000000   0.000000
     25         10.558612       10.558612   0.000000   0.000000
     26         10.690603       10.690603   0.000000   0.000000
     27         10.690603       10.690603   0.000000   0.000000
     28         10.696825       10.696825   0.000000   0.000000
     29         11.598869       11.598869   0.000000   0.000000
     30         11.598869       11.598869   0.000000   0.000000
     31         11.603214       11.603214   0.000000   0.000000
     32         11.961435       11.961435   0.000000   0.000000
     33         11.987940       11.987940   0.000000   0.000000
     34         12.306227       12.306227   0.000000   0.000000
     35         13.728220       13.728220   0.000000   0.000000
     36         13.728220       13.728220   0.000000   0.000000
     37         20.869572       20.869572   0.000000   0.000000
     38         21.022485       21.022485   0.000000   0.000000
     39         21.927498       21.927498   0.000000   0.000000
     40         23.723216       23.723216   0.000000   0.000000
     41         23.819075       23.819075   0.000000   0.000000
     42         23.819075       23.819075   0.000000   0.000000
     43         24.425021       24.425021   0.000000   0.000000
     44         24.875458       24.875458   0.000000   0.000000
     45         24.875458       24.875458   0.000000   0.000000
     46         30.153323       30.153323   0.000000   0.000000
     47         30.341916       30.341916   0.000000   0.000000
     48         31.115595       31.115595   0.000000   0.000000
 
  0.2500000E+00  0.3022058E-32  0.0000000E+00  0.7812500E-02
      1        -39.397132      -39.397132   1.000000   1.000000
      2        -39.327460      -39.327460   1.000000   1.000000
      3        -39.318292      -39.318292   1.000000   1.000000
      4        -39.317107      -39.317107   1.000000   1.000000
      5        -39.120912      -39.120912   1.000000   1.000000
      6        -39.119823      -39.119823   1.000000   1.000000
      7        -37.294029      -37.294029   1.000000   1.000000
      8        -37.285684      -37.285684   1.000000   1.000000
      9        -37.253625      -37.253625   1.000000   1.000000
     10        -37.231424      -37.231424   1.000000   1.000000
     11        -37.097007      -37.097007   1.000000   1.000000
     12        -37.088201      -37.088201   1.000000   1.000000
     13          2.293105        2.293105   1.000000   1.000000
     14          5.196089        5.196089   1.000000   1.000000
     15          5.620940        5.620940   1.000000   1.000000
     16          5.785011        5.785011   1.000000   1.000000
     17          6.248710        6.248710   1.000000   1.000000
     18          6.297863        6.297863   1.000000   1.000000
     19          6.313724        6.313724   1.000000   1.000000
     20          7.929613        7.929613   1.000000   1.000000
     21          8.333211        8.333211   1.000000   1.000000
     22          9.103997        9.103997   1.000000   1.000000
     23          9.110114        9.110114   1.000000   1.000000
     24          9.210674        9.210674   1.000000   1.000000
     25          9.968906        9.968906   0.000000   0.000000
     26         10.010605       10.010605   0.000000   0.000000
     27         10.286403       10.286403   0.000000   0.000000
     28         10.925890       10.925890   0.000000   0.000000
     29         11.014287       11.014287   0.000000   0.000000
     30         11.149738       11.149738   0.000000   0.000000
     31         11.409764       11.409764   0.000000   0.000000
     32         11.499966       11.499966   0.000000   0.000000
     33         11.593238       11.593238   0.000000   0.000000
     34         11.699382       11.699382   0.000000   0.000000
     35         15.293265       15.293265   0.000000   0.000000
     36         15.302317       15.302317   0.000000   0.000000
     37         20.920143       20.920143   0.000000   0.000000
     38         20.936692       20.936692   0.000000   0.000000
     39         22.253552       22.253552   0.000000   0.000000
     40         22.269282       22.269282   0.000000   0.000000
     41         23.225611       23.225611   0.000000   0.000000
     42         23.232991       23.232991   0.000000   0.000000
     43         24.176033       24.176033   0.000000   0.000000
     44         25.895654       25.895654   0.000000   0.000000
     45         25.928078       25.928078   0.000000   0.000000
     46         30.219530       30.219530   0.000000   0.000000
     47         30.235694       30.235694   0.000000   0.000000
     48         32.705599       32.705599   0.000000   0.000000
 
  0.0000000E+00  0.2500000E+00  0.0000000E+00  0.3906250E-02
      1        -39.402116      -39.402116   1.000000   1.000000
      2        -39.352346      -39.352346   1.000000   1.000000
      3        -39.352346      -39.352346   1.000000   1.000000
      4        -39.320100      -39.320100   1.000000   1.000000
      5        -39.077149      -39.077149   1.000000   1.000000
      6        -39.077149      -39.077149   1.000000   1.000000
      7        -37.334041      -37.334041   1.000000   1.000000
      8        -37.334041      -37.334041   1.000000   1.000000
      9        -37.276894      -37.276894   1.000000   1.000000
     10        -37.225246      -37.225246   1.000000   1.000000
     11        -37.049556      -37.049556   1.000000   1.000000
     12        -37.049556      -37.049556   1.000000   1.000000
     13          2.288176        2.288176   1.000000   1.000000
     14          5.251124        5.251124   1.000000   1.000000
     15          5.293986        5.293986   1.000000   1.000000
     16          6.144433        6.144433   1.000000   1.000000
     17          6.207198        6.207198   1.000000   1.000000
     18          6.275278        6.275278   1.000000   1.000000
     19          6.275278        6.275278   1.000000   1.000000
     20          8.417148        8.417148   1.000000   1.000000
     21          8.541619        8.541619   1.000000   1.000000
     22          8.541619        8.541619   1.000000   1.000000
     23          9.519083        9.519083   0.340043   0.340043
     24          9.525303        9.525303   0.278173   0.278173
     25          9.577284        9.577284   0.019770   0.019770
     26          9.577284        9.577284   0.019770   0.019770
     27         10.054114       10.054114   0.000000   0.000000
     28         10.697524       10.697524   0.000000   0.000000
     29         10.798167       10.798167   0.000000   0.000000
     30         11.246007       11.246007   0.000000   0.000000
     31         11.246007       11.246007   0.000000   0.000000
     32         11.342825       11.342825   0.000000   0.000000
     33         11.917734       11.917734   0.000000   0.000000
     34         12.307058       12.307058   0.000000   0.000000
     35         15.286245       15.286245   0.000000   0.000000
     36         15.286245       15.286245   0.000000   0.000000
     37         20.783505       20.783505   0.000000   0.000000
     38         21.055915       21.055915   0.000000   0.000000
     39         22.288578       22.288578   0.000000   0.000000
     40         22.288578       22.288578   0.000000   0.000000
     41         22.864334       22.864334   0.000000   0.000000
     42         23.603260       23.603260   0.000000   0.000000
     43         24.147872       24.147872   0.000000   0.000000
     44         25.898991       25.898991   0.000000   0.000000
     45         25.898991       25.898991   0.000000   0.000000
     46         30.062305       30.062305   0.000000   0.000000
     47         30.401370       30.401370   0.000000   0.000000
     48         32.681524       32.681524   0.000000   0.000000
 
  0.3750000E+00  0.1451600E-32  0.0000000E+00  0.7812500E-02
      1        -39.378140      -39.378140   1.000000   1.000000
      2        -39.340470      -39.340470   1.000000   1.000000
      3        -39.272969      -39.272969   1.000000   1.000000
      4        -39.271421      -39.271421   1.000000   1.000000
      5        -39.166236      -39.166236   1.000000   1.000000
      6        -39.164395      -39.164395   1.000000   1.000000
      7        -37.255497      -37.255497   1.000000   1.000000
      8        -37.251846      -37.251846   1.000000   1.000000
      9        -37.240765      -37.240765   1.000000   1.000000
     10        -37.239977      -37.239977   1.000000   1.000000
     11        -37.148743      -37.148743   1.000000   1.000000
     12        -37.133920      -37.133920   1.000000   1.000000
     13          3.211262        3.211262   1.000000   1.000000
     14          5.037887        5.037887   1.000000   1.000000
     15          6.034836        6.034836   1.000000   1.000000
     16          6.080666        6.080666   1.000000   1.000000
     17          6.608206        6.608206   1.000000   1.000000
     18          6.740803        6.740803   1.000000   1.000000
     19          6.782767        6.782767   1.000000   1.000000
     20          7.516806        7.516806   1.000000   1.000000
     21          7.966123        7.966123   1.000000   1.000000
     22          8.253512        8.253512   1.000000   1.000000
     23          8.729833        8.729833   1.000000   1.000000
     24          8.951382        8.951382   1.000000   1.000000
     25          9.482367        9.482367   0.734387   0.734387
     26          9.705277        9.705277   0.000000   0.000000
     27         10.435955       10.435955   0.000000   0.000000
     28         10.490660       10.490660   0.000000   0.000000
     29         10.559369       10.559369   0.000000   0.000000
     30         10.667169       10.667169   0.000000   0.000000
     31         11.024361       11.024361   0.000000   0.000000
     32         11.058836       11.058836   0.000000   0.000000
     33         11.610055       11.610055   0.000000   0.000000
     34         11.664982       11.664982   0.000000   0.000000
     35         16.972329       16.972329   0.000000   0.000000
     36         16.973235       16.973235   0.000000   0.000000
     37         20.514781       20.514781   0.000000   0.000000
     38         20.516505       20.516505   0.000000   0.000000
     39         20.915884       20.915884   0.000000   0.000000
     40         20.927903       20.927903   0.000000   0.000000
     41         22.543849       22.543849   0.000000   0.000000
     42         22.547226       22.547226   0.000000   0.000000
     43         26.707310       26.707310   0.000000   0.000000
     44         27.414515       27.414515   0.000000   0.000000
     45         27.459411       27.459411   0.000000   0.000000
     46         30.203993       30.203993   0.000000   0.000000
     47         30.217456       30.217456   0.000000   0.000000
     48         30.920884       30.920884   0.000000   0.000000
 
  0.0000000E+00  0.3750000E+00  0.0000000E+00  0.3906250E-02
      1        -39.392547      -39.392547   1.000000   1.000000
      2        -39.347397      -39.347397   1.000000   1.000000
      3        -39.347397      -39.347397   1.000000   1.000000
      4        -39.322353      -39.322353   1.000000   1.000000
      5        -39.075263      -39.075263   1.000000   1.000000
      6        -39.075263      -39.075263   1.000000   1.000000
      7        -37.339562      -37.339562   1.000000   1.000000
      8        -37.339562      -37.339562   1.000000   1.000000
      9        -37.293560      -37.293560   1.000000   1.000000
     10        -37.227885      -37.227885   1.000000   1.000000
     11        -37.051687      -37.051687   1.000000   1.000000
     12        -37.051687      -37.051687   1.000000   1.000000
     13          3.192485        3.192485   1.000000   1.000000
     14          5.043974        5.043974   1.000000   1.000000
     15          5.593816        5.593816   1.000000   1.000000
     16          6.467079        6.467079   1.000000   1.000000
     17          6.649522        6.649522   1.000000   1.000000
     18          6.649522        6.649522   1.000000   1.000000
     19          6.770105        6.770105   1.000000   1.000000
     20          8.085152        8.085152   1.000000   1.000000
     21          8.653180        8.653180   1.000000   1.000000
     22          8.665263        8.665263   1.000000   1.000000
     23          8.665263        8.665263   1.000000   1.000000
     24          8.751158        8.751158   1.000000   1.000000
     25          8.751158        8.751158   1.000000   1.000000
     26          9.366442        9.366442   0.999953   0.999953
     27          9.553672        9.553672   0.082163   0.082163
     28         10.150240       10.150240   0.000000   0.000000
     29         10.698255       10.698255   0.000000   0.000000
     30         10.860075       10.860075   0.000000   0.000000
     31         10.860075       10.860075   0.000000   0.000000
     32         11.042761       11.042761   0.000000   0.000000
     33         11.872847       11.872847   0.000000   0.000000
     34         12.307933       12.307933   0.000000   0.000000
     35         16.973665       16.973665   0.000000   0.000000
     36         16.973665       16.973665   0.000000   0.000000
     37         20.532386       20.532386   0.000000   0.000000
     38         20.532386       20.532386   0.000000   0.000000
     39         20.676537       20.676537   0.000000   0.000000
     40         21.148938       21.148938   0.000000   0.000000
     41         22.116663       22.116663   0.000000   0.000000
     42         22.979455       22.979455   0.000000   0.000000
     43         26.676586       26.676586   0.000000   0.000000
     44         27.425501       27.425501   0.000000   0.000000
     45         27.425501       27.425501   0.000000   0.000000
     46         30.001082       30.001082   0.000000   0.000000
     47         30.432564       30.432564   0.000000   0.000000
     48         30.899757       30.899757   0.000000   0.000000
 
  0.5000000E+00  0.6044117E-32  0.0000000E+00  0.3906250E-02
      1        -39.358066      -39.358066   1.000000   1.000000
      2        -39.358066      -39.358066   1.000000   1.000000
      3        -39.219610      -39.219610   1.000000   1.000000
      4        -39.219610      -39.219610   1.000000   1.000000
      5        -39.217514      -39.217514   1.000000   1.000000
      6        -39.217514      -39.217514   1.000000   1.000000
      7        -37.247295      -37.247295   1.000000   1.000000
      8        -37.247295      -37.247295   1.000000   1.000000
      9        -37.204696      -37.204696   1.000000   1.000000
     10        -37.204696      -37.204696   1.000000   1.000000
     11        -37.187476      -37.187476   1.000000   1.000000
     12        -37.187476      -37.187476   1.000000   1.000000
     13          4.260418        4.260418   1.000000   1.000000
     14          4.260418        4.260418   1.000000   1.000000
     15          6.253101        6.253101   1.000000   1.000000
     16          6.253101        6.253101   1.000000   1.000000
     17          7.051458        7.051458   1.000000   1.000000
     18          7.051458        7.051458   1.000000   1.000000
     19          7.329784        7.329784   1.000000   1.000000
     20          7.329784        7.329784   1.000000   1.000000
     21          7.433405        7.433405   1.000000   1.000000
     22          7.433405        7.433405   1.000000   1.000000
     23          8.529468        8.529468   1.000000   1.000000
     24          8.529468        8.529468   1.000000   1.000000
     25          9.981837        9.981837   0.000000   0.000000
     26          9.981837        9.981837   0.000000   0.000000
     27          9.996431        9.996431   0.000000   0.000000
     28          9.996431        9.996431   0.000000   0.000000
     29         10.612280       10.612280   0.000000   0.000000
     30         10.612280       10.612280   0.000000   0.000000
     31         10.793760       10.793760   0.000000   0.000000
     32         10.793760       10.793760   0.000000   0.000000
     33         11.634097       11.634097   0.000000   0.000000
     34         11.634097       11.634097   0.000000   0.000000
     35         18.726568       18.726568   0.000000   0.000000
     36         18.726568       18.726568   0.000000   0.000000
     37         18.728927       18.728927   0.000000   0.000000
     38         18.728927       18.728927   0.000000   0.000000
     39         20.923183       20.923183   0.000000   0.000000
     40         20.923183       20.923183   0.000000   0.000000
     41         22.293173       22.293173   0.000000   0.000000
     42         22.293173       22.293173   0.000000   0.000000
     43         29.007843       29.007843   0.000000   0.000000
     44         29.007843       29.007843   0.000000   0.000000
     45         29.280229       29.280229   0.000000   0.000000
     46         29.280229       29.280229   0.000000   0.000000
     47         29.327561       29.327561   0.000000   0.000000
     48         29.327561       29.327561   0.000000   0.000000
 
  0.0000000E+00  0.5000000E+00  0.0000000E+00  0.1953125E-02
      1        -39.388322      -39.388322   1.000000   1.000000
      2        -39.345396      -39.345396   1.000000   1.000000
      3        -39.345396      -39.345396   1.000000   1.000000
      4        -39.323156      -39.323156   1.000000   1.000000
      5        -39.074410      -39.074410   1.000000   1.000000
      6        -39.074410      -39.074410   1.000000   1.000000
      7        -37.341910      -37.341910   1.000000   1.000000
      8        -37.341910      -37.341910   1.000000   1.000000
      9        -37.300329      -37.300329   1.000000   1.000000
     10        -37.228835      -37.228835   1.000000   1.000000
     11        -37.052477      -37.052477   1.000000   1.000000
     12        -37.052477      -37.052477   1.000000   1.000000
     13          4.037163        4.037163   1.000000   1.000000
     14          4.477386        4.477386   1.000000   1.000000
     15          5.730209        5.730209   1.000000   1.000000
     16          6.611499        6.611499   1.000000   1.000000
     17          6.905362        6.905362   1.000000   1.000000
     18          6.905362        6.905362   1.000000   1.000000
     19          7.165573        7.165573   1.000000   1.000000
     20          7.911327        7.911327   1.000000   1.000000
     21          8.227907        8.227907   1.000000   1.000000
     22          8.227907        8.227907   1.000000   1.000000
     23          8.269003        8.269003   1.000000   1.000000
     24          8.860456        8.860456   1.000000   1.000000
     25          8.860456        8.860456   1.000000   1.000000
     26          8.943027        8.943027   1.000000   1.000000
     27          9.568386        9.568386   0.035394   0.035394
     28          9.961334        9.961334   0.000000   0.000000
     29         10.680969       10.680969   0.000000   0.000000
     30         10.680969       10.680969   0.000000   0.000000
     31         10.698542       10.698542   0.000000   0.000000
     32         10.904098       10.904098   0.000000   0.000000
     33         11.853886       11.853886   0.000000   0.000000
     34         12.308270       12.308270   0.000000   0.000000
     35         18.702568       18.702568   0.000000   0.000000
     36         18.702568       18.702568   0.000000   0.000000
     37         18.771695       18.771695   0.000000   0.000000
     38         18.771695       18.771695   0.000000   0.000000
     39         20.624538       20.624538   0.000000   0.000000
     40         21.253469       21.253469   0.000000   0.000000
     41         21.775396       21.775396   0.000000   0.000000
     42         22.764323       22.764323   0.000000   0.000000
     43         28.818608       28.818608   0.000000   0.000000
     44         29.112682       29.112682   0.000000   0.000000
     45         29.112682       29.112682   0.000000   0.000000
     46         29.142559       29.142559   0.000000   0.000000
     47         29.495029       29.495029   0.000000   0.000000
     48         29.495029       29.495029   0.000000   0.000000
 
  0.1250000E+00  0.1250000E+00  0.0000000E+00  0.1562500E-01
      1        -39.407284      -39.407284   1.000000   1.000000
      2        -39.346722      -39.346722   1.000000   1.000000
      3        -39.346578      -39.346578   1.000000   1.000000
      4        -39.320758      -39.320758   1.000000   1.000000
      5        -39.089826      -39.089826   1.000000   1.000000
      6        -39.089680      -39.089680   1.000000   1.000000
      7        -37.319692      -37.319692   1.000000   1.000000
      8        -37.317846      -37.317846   1.000000   1.000000
      9        -37.259696      -37.259696   1.000000   1.000000
     10        -37.225160      -37.225160   1.000000   1.000000
     11        -37.060287      -37.060287   1.000000   1.000000
     12        -37.058310      -37.058310   1.000000   1.000000
     13          1.895258        1.895258   1.000000   1.000000
     14          5.122357        5.122357   1.000000   1.000000
     15          5.328943        5.328943   1.000000   1.000000
     16          5.757482        5.757482   1.000000   1.000000
     17          6.099222        6.099222   1.000000   1.000000
     18          6.099376        6.099376   1.000000   1.000000
     19          6.106141        6.106141   1.000000   1.000000
     20          8.238225        8.238225   1.000000   1.000000
     21          8.383776        8.383776   1.000000   1.000000
     22          8.812019        8.812019   1.000000   1.000000
     23          9.392929        9.392929   0.999200   0.999200