PROCAR lm decomposed
# of k-points:   75         # of bands:   48         # of ions:    4

 k-point     1 :    0.00000000 0.00000000 0.00000000     weight = 0.00195312

band     1 # energy  -39.41562271 # occ.  1.00000000
 
ion      s     py     pz     px    dxy    dyz    dz2    dxz  x2-y2    tot
    1  0.000  0.488  0.000  0.000  0.000  0.000  0.000  0.000  0.000  0.488
    2  0.000  0.008  0.000  0.000  0.000  0.000  0.000  0.000  0.000  0.008
    3  0.000  0.488  0.000  0.000  0.000  0.000  0.000  0.000  0.000  0.488
    4  0.000  0.008  0.000  0.000  0.000  0.000  0.000  0.000  0.000  0.008
tot    0.000  0.991  0.000  0.000  0.000  0.000  0.000  0.000  0.000  0.991
 
band     2 # energy  -39.35937013 # occ.  1.00000000
 
ion      s     py     pz     px    dxy    dyz    dz2    dxz  x2-y2    tot
    1  0.000  0.000  0.318  0.173  0.000  0.000  0.000  0.000  0.000  0.492
    2  0.000  0.000  0.002  0.001  0.000  0.000  0.000  0.000  0.000  0.003
    3  0.000  0.000  0.318  0.173  0.000  0.000  0.000  0.000  0.000  0.492
    4  0.000  0.000  0.002  0.001  0.000  0.000  0.000  0.000  0.000  0.003
tot    0.000  0.000  0.641  0.349  0.000  0.000  0.000  0.000  0.000  0.990
 
band     3 # energy  -39.35937013 # occ.  1.00000000
 
ion      s     py     pz     px    dxy    dyz    dz2    dxz  x2-y2    tot
    1  0.000  0.000  0.173  0.318  0.000  0.000  0.000  0.000  0.000  0.492
    2  0.000  0.000  0.001  0.002  0.000  0.000  0.000  0.000  0.000  0.003
    3  0.000  0.000  0.173  0.318  0.000  0.000  0.000  0.000  0.000  0.492
    4  0.000  0.000  0.001  0.002  0.000  0.000  0.000  0.000  0.000  0.003
tot    0.000  0.000  0.349  0.641  0.000  0.000  0.000  0.000  0.000  0.990
 
band     4 # energy  -39.31772094 # occ.  1.00000000
 
ion      s     py     pz     px    dxy    dyz    dz2    dxz  x2-y2    tot
    1  0.000  0.497  0.000  0.000  0.000  0.000  0.000  0.000  0.000  0.497
    2  0.000  0.000  0.000  0.000  0.000  0.000  0.000  0.000  0.000  0.000
    3  0.000  0.497  0.000  0.000  0.000  0.000  0.000  0.000  0.000  0.497
    4  0.000  0.000  0.000  0.000  0.000  0.000  0.000  0.000  0.000  0.000
tot    0.000  0.995  0.000  0.000  0.000  0.000  0.000  0.000  0.000  0.995
 
band     5 # energy  -39.08007444 # occ.  1.00000000
 
ion      s     py     pz     px    dxy    dyz    dz2    dxz  x2-y2    tot
    1  0.000  0.000  0.179  0.318  0.000  0.000  0.000  0.000  0.000  0.497
    2  0.000  0.000  0.000  0.001  0.000  0.000  0.000  0.000  0.000  0.001
    3  0.000  0.000  0.179  0.318  0.000  0.000  0.000  0.000  0.000  0.497
    4  0.000  0.000  0.000  0.001  0.000  0.000  0.000  0.000  0.000  0.001
tot    0.000  0.000  0.359  0.638  0.000  0.000  0.000  0.000  0.000  0.996
 
band     6 # energy  -39.08007444 # occ.  1.00000000
 
ion      s     py     pz     px    dxy    dyz    dz2    dxz  x2-y2    tot
    1  0.000  0.000  0.318  0.179  0.000  0.000  0.000  0.000  0.000  0.497
    2  0.000  0.000  0.001  0.000  0.000  0.000  0.000  0.000  0.000  0.001
    3  0.000  0.000  0.318  0.179  0.000  0.000  0.000  0.000  0.000  0.497
    4  0.000  0.000  0.001  0.000  0.000  0.000  0.000  0.000  0.000  0.001
tot    0.000  0.000  0.638  0.359  0.000  0.000  0.000  0.000  0.000  0.996
 
band     7 # energy  -37.32643677 # occ.  1.00000000
 
ion      s     py     pz     px    dxy    dyz    dz2    dxz  x2-y2    tot
    1  0.000  0.000  0.003  0.001  0.000  0.000  0.000  0.000  0.000  0.004
    2  0.000  0.000  0.418  0.074  0.000  0.000  0.000  0.000  0.000  0.492
    3  0.000  0.000  0.003  0.001  0.000  0.000  0.000  0.000  0.000  0.004
    4  0.000  0.000  0.418  0.074  0.000  0.000  0.000  0.000  0.000  0.492
tot    0.000  0.000  0.842  0.149  0.000  0.000  0.000  0.000  0.000  0.992
 
band     8 # energy  -37.32643677 # occ.  1.00000000
 
ion      s     py     pz     px    dxy    dyz    dz2    dxz  x2-y2    tot
    1  0.000  0.000  0.001  0.003  0.000  0.000  0.000  0.000  0.000  0.004
    2  0.000  0.000  0.074  0.418  0.000  0.000  0.000  0.000  0.000  0.492
    3  0.000  0.000  0.001  0.003  0.000  0.000  0.000  0.000  0.000  0.004
    4  0.000  0.000  0.074  0.418  0.000  0.000  0.000  0.000  0.000  0.492
tot    0.000  0.000  0.149  0.842  0.000  0.000  0.000  0.000  0.000  0.992
 
band     9 # energy  -37.25346987 # occ.  1.00000000
 
ion      s     py     pz     px    dxy    dyz    dz2    dxz  x2-y2    tot
    1  0.000  0.009  0.000  0.000  0.000  0.000  0.000  0.000  0.000  0.009
    2  0.000  0.488  0.000  0.000  0.000  0.000  0.000  0.000  0.000  0.488
    3  0.000  0.009  0.000  0.000  0.000  0.000  0.000  0.000  0.000  0.009
    4  0.000  0.488  0.000  0.000  0.000  0.000  0.000  0.000  0.000  0.488
tot    0.000  0.994  0.000  0.000  0.000  0.000  0.000  0.000  0.000  0.994
 
band    10 # energy  -37.22242266 # occ.  1.00000000
 
ion      s     py     pz     px    dxy    dyz    dz2    dxz  x2-y2    tot
    1  0.000  0.000  0.000  0.000  0.000  0.000  0.000  0.000  0.000  0.000
    2  0.000  0.497  0.000  0.000  0.000  0.000  0.000  0.000  0.000  0.497
    3  0.000  0.000  0.000  0.000  0.000  0.000  0.000  0.000  0.000  0.000
    4  0.000  0.497  0.000  0.000  0.000  0.000  0.000  0.000  0.000  0.497
tot    0.000  0.995  0.000  0.000  0.000  0.000  0.000  0.000  0.000  0.995
 
band    11 # energy  -37.04679752 # occ.  1.00000000
 
ion      s     py     pz     px    dxy    dyz    dz2    dxz  x2-y2    tot
    1  0.000  0.000  0.001  0.000  0.000  0.000  0.000  0.000  0.000  0.001
    2  0.000  0.000  0.335  0.162  0.000  0.000  0.000  0.000  0.000  0.497
    3  0.000  0.000  0.001  0.000  0.000  0.000  0.000  0.000  0.000  0.001
    4  0.000  0.000  0.335  0.162  0.000  0.000  0.000  0.000  0.000  0.497
tot    0.000  0.000  0.672  0.325  0.000  0.000  0.000  0.000  0.000  0.997
 
band    12 # energy  -37.04679752 # occ.  1.00000000
 
ion      s     py     pz     px    dxy    dyz    dz2    dxz  x2-y2    tot
    1  0.000  0.000  0.000  0.001  0.000  0.000  0.000  0.000  0.000  0.001
    2  0.000  0.000  0.162  0.335  0.000  0.000  0.000  0.000  0.000  0.497
    3  0.000  0.000  0.000  0.001  0.000  0.000  0.000  0.000  0.000  0.001
    4  0.000  0.000  0.162  0.335  0.000  0.000  0.000  0.000  0.000  0.497
tot    0.000  0.000  0.325  0.672  0.000  0.000  0.000  0.000  0.000  0.997
 
band    13 # energy    1.48586005 # occ.  1.00000000
 
ion      s     py     pz     px    dxy    dyz    dz2    dxz  x2-y2    tot
    1  0.153  0.000  0.000  0.000  0.000  0.000  0.000  0.000  0.000  0.153
    2  0.139  0.000  0.000  0.000  0.000  0.000  0.000  0.000  0.000  0.139
    3  0.153  0.000  0.000  0.000  0.000  0.000  0.000  0.000  0.000  0.153
    4  0.139  0.000  0.000  0.000  0.000  0.000  0.000  0.000  0.000  0.139
tot    0.583  0.000  0.000  0.000  0.000  0.000  0.000  0.000  0.000  0.583
 
band    14 # energy    4.92275726 # occ.  1.00000000
 
ion      s     py     pz     px    dxy    dyz    dz2    dxz  x2-y2    tot
    1  0.000  0.000  0.000  0.000  0.000  0.000  0.237  0.000  0.079  0.316
    2  0.023  0.000  0.000  0.000  0.000  0.000  0.015  0.000  0.044  0.081
    3  0.000  0.000  0.000  0.000  0.000  0.000  0.237  0.000  0.079  0.316
    4  0.023  0.000  0.000  0.000  0.000  0.000  0.015  0.000  0.044  0.081
tot    0.046  0.000  0.000  0.000  0.000  0.000  0.504  0.000  0.245  0.795
 
band    15 # energy    5.15590127 # occ.  1.00000000
 
ion      s     py     pz     px    dxy    dyz    dz2    dxz  x2-y2    tot
    1  0.011  0.000  0.000  0.000  0.000  0.000  0.063  0.000  0.188  0.262
    2  0.014  0.000  0.000  0.000  0.000  0.000  0.030  0.000  0.090  0.133
    3  0.011  0.000  0.000  0.000  0.000  0.000  0.063  0.000  0.188  0.262
    4  0.014  0.000  0.000  0.000  0.000  0.000  0.030  0.000  0.090  0.133
tot    0.051  0.000  0.000  0.000  0.000  0.000  0.185  0.000  0.555  0.791
 
band    16 # energy    5.53392237 # occ.  1.00000000
 
ion      s     py     pz     px    dxy    dyz    dz2    dxz  x2-y2    tot
    1  0.028  0.000  0.000  0.000  0.000  0.000  0.037  0.000  0.110  0.175
    2  0.000  0.000  0.000  0.000  0.000  0.000  0.160  0.000  0.053  0.214
    3  0.028  0.000  0.000  0.000  0.000  0.000  0.037  0.000  0.110  0.175
    4  0.000  0.000  0.000  0.000  0.000  0.000  0.160  0.000  0.053  0.214
tot    0.057  0.000  0.000  0.000  0.000  0.000  0.394  0.000  0.327  0.777
 
band    17 # energy    5.93566151 # occ.  1.00000000
 
ion      s     py     pz     px    dxy    dyz    dz2    dxz  x2-y2    tot
    1  0.000  0.000  0.000  0.000  0.173  0.115  0.000  0.000  0.000  0.288
    2  0.000  0.000  0.000  0.000  0.092  0.061  0.000  0.000  0.000  0.153
    3  0.000  0.000  0.000  0.000  0.173  0.115  0.000  0.000  0.000  0.288
    4  0.000  0.000  0.000  0.000  0.092  0.061  0.000  0.000  0.000  0.153
tot    0.000  0.000  0.000  0.000  0.530  0.353  0.000  0.000  0.000  0.883
 
band    18 # energy    5.93566151 # occ.  1.00000000
 
ion      s     py     pz     px    dxy    dyz    dz2    dxz  x2-y2    tot
    1  0.000  0.000  0.000  0.000  0.115  0.173  0.000  0.000  0.000  0.288
    2  0.000  0.000  0.000  0.000  0.061  0.092  0.000  0.000  0.000  0.153
    3  0.000  0.000  0.000  0.000  0.115  0.173  0.000  0.000  0.000  0.288
    4  0.000  0.000  0.000  0.000  0.061  0.092  0.000  0.000  0.000  0.153
tot    0.000  0.000  0.000  0.000  0.353  0.530  0.000  0.000  0.000  0.883
 
band    19 # energy    5.93656806 # occ.  1.00000000
 
ion      s     py     pz     px    dxy    dyz    dz2    dxz  x2-y2    tot
    1  0.000  0.000  0.000  0.000  0.000  0.000  0.000  0.325  0.000  0.325
    2  0.000  0.000  0.000  0.000  0.000  0.000  0.000  0.117  0.000  0.117
    3  0.000  0.000  0.000  0.000  0.000  0.000  0.000  0.325  0.000  0.325
    4  0.000  0.000  0.000  0.000  0.000  0.000  0.000  0.117  0.000  0.117
tot    0.000  0.000  0.000  0.000  0.000  0.000  0.000  0.884  0.000  0.884
 
band    20 # energy    8.31653258 # occ.  1.00000000
 
ion      s     py     pz     px    dxy    dyz    dz2    dxz  x2-y2    tot
    1  0.000  0.000  0.000  0.000  0.357  0.013  0.000  0.000  0.000  0.370
    2  0.000  0.000  0.000  0.000  0.103  0.004  0.000  0.000  0.000  0.106
    3  0.000  0.000  0.000  0.000  0.357  0.013  0.000  0.000  0.000  0.370
    4  0.000  0.000  0.000  0.000  0.103  0.004  0.000  0.000  0.000  0.106
tot    0.000  0.000  0.000  0.000  0.920  0.033  0.000  0.000  0.000  0.953
 
band    21 # energy    8.31653258 # occ.  1.00000000
 
ion      s     py     pz     px    dxy    dyz    dz2    dxz  x2-y2    tot
    1  0.000  0.000  0.000  0.000  0.013  0.357  0.000  0.000  0.000  0.370
    2  0.000  0.000  0.000  0.000  0.004  0.103  0.000  0.000  0.000  0.106
    3  0.000  0.000  0.000  0.000  0.013  0.357  0.000  0.000  0.000  0.370
    4  0.000  0.000  0.000  0.000  0.004  0.103  0.000  0.000  0.000  0.106
tot    0.000  0.000  0.000  0.000  0.033  0.920  0.000  0.000  0.000  0.953
 
band    22 # energy    8.79108503 # occ.  1.00000000
 
ion      s     py     pz     px    dxy    dyz    dz2    dxz  x2-y2    tot
    1  0.000  0.000  0.000  0.000  0.000  0.000  0.000  0.134  0.000  0.134
    2  0.000  0.000  0.000  0.000  0.000  0.000  0.000  0.338  0.000  0.338
    3  0.000  0.000  0.000  0.000  0.000  0.000  0.000  0.134  0.000  0.134
    4  0.000  0.000  0.000  0.000  0.000  0.000  0.000  0.338  0.000  0.338
tot    0.000  0.000  0.000  0.000  0.000  0.000  0.000  0.944  0.000  0.944
 
band    23 # energy    9.47222110 # occ.  0.81940669
 
ion      s     py     pz     px    dxy    dyz    dz2    dxz  x2-y2    tot
    1  0.000  0.000  0.000  0.000  0.000  0.000  0.352  0.000  0.117  0.469
    2  0.000  0.000  0.000  0.000  0.000  0.000  0.016  0.000  0.005  0.021
    3  0.000  0.000  0.000  0.000  0.000  0.000  0.352  0.000  0.117  0.469
    4  0.000  0.000  0.000  0.000  0.000  0.000  0.016  0.000  0.005  0.021
tot    0.000  0.000  0.000  0.000  0.000  0.000  0.736  0.000  0.245  0.981
 
band    24 # energy   10.20648856 # occ.  0.00000000
 
ion      s     py     pz     px    dxy    dyz    dz2    dxz  x2-y2    tot
    1  0.001  0.000  0.000  0.000  0.000  0.000  0.048  0.000  0.143  0.191
    2  0.001  0.000  0.000  0.000  0.000  0.000  0.073  0.000  0.218  0.292
    3  0.001  0.000  0.000  0.000  0.000  0.000  0.048  0.000  0.143  0.191
    4  0.001  0.000  0.000  0.000  0.000  0.000  0.073  0.000  0.218  0.292
tot    0.004  0.000  0.000  0.000  0.000  0.000  0.241  0.000  0.722  0.967
 
band    25 # energy   10.69652657 # occ.  0.00000000
 
ion      s     py     pz     px    dxy    dyz    dz2    dxz  x2-y2    tot
    1  0.000  0.000  0.000  0.000  0.000  0.000  0.000  0.496  0.000  0.496
    2  0.000  0.000  0.000  0.000  0.000  0.000  0.000  0.000  0.000  0.000
    3  0.000  0.000  0.000  0.000  0.000  0.000  0.000  0.496  0.000  0.496
    4  0.000  0.000  0.000  0.000  0.000  0.000  0.000  0.000  0.000  0.000
tot    0.000  0.000  0.000  0.000  0.000  0.000  0.000  0.992  0.000  0.992
 
band    26 # energy   10.73806822 # occ.  0.00000000
 
ion      s     py     pz     px    dxy    dyz    dz2    dxz  x2-y2    tot
    1  0.002  0.000  0.000  0.000  0.000  0.000  0.082  0.000  0.246  0.330
    2  0.000  0.000  0.000  0.000  0.000  0.000  0.120  0.000  0.040  0.160
    3  0.002  0.000  0.000  0.000  0.000  0.000  0.082  0.000  0.246  0.330
    4  0.000  0.000  0.000  0.000  0.000  0.000  0.120  0.000  0.040  0.160
tot    0.004  0.000  0.000  0.000  0.000  0.000  0.404  0.000  0.571  0.980
 
band    27 # energy   11.58000769 # occ.  0.00000000
 
ion      s     py     pz     px    dxy    dyz    dz2    dxz  x2-y2    tot
    1  0.000  0.000  0.000  0.000  0.091  0.095  0.000  0.000  0.000  0.185
    2  0.000  0.000  0.000  0.000  0.151  0.158  0.000  0.000  0.000  0.309
    3  0.000  0.000  0.000  0.000  0.091  0.095  0.000  0.000  0.000  0.185
    4  0.000  0.000  0.000  0.000  0.151  0.158  0.000  0.000  0.000  0.309
tot    0.000  0.000  0.000  0.000  0.484  0.504  0.000  0.000  0.000  0.988
 
band    28 # energy   11.58000769 # occ.  0.00000000
 
ion      s     py     pz     px    dxy    dyz    dz2    dxz  x2-y2    tot
    1  0.000  0.000  0.000  0.000  0.095  0.091  0.000  0.000  0.000  0.185
    2  0.000  0.000  0.000  0.000  0.158  0.151  0.000  0.000  0.000  0.309
    3  0.000  0.000  0.000  0.000  0.095  0.091  0.000  0.000  0.000  0.185
    4  0.000  0.000  0.000  0.000  0.158  0.151  0.000  0.000  0.000  0.309
tot    0.000  0.000  0.000  0.000  0.504  0.484  0.000  0.000  0.000  0.988
 
band    29 # energy   11.70116639 # occ.  0.00000000
 
ion      s     py     pz     px    dxy    dyz    dz2    dxz  x2-y2    tot
    1  0.000  0.000  0.000  0.000  0.000  0.000  0.075  0.000  0.025  0.100
    2  0.001  0.000  0.000  0.000  0.000  0.000  0.098  0.000  0.293  0.392
    3  0.000  0.000  0.000  0.000  0.000  0.000  0.075  0.000  0.025  0.100
    4  0.001  0.000  0.000  0.000  0.000  0.000  0.098  0.000  0.293  0.392
tot    0.002  0.000  0.000  0.000  0.000  0.000  0.345  0.000  0.636  0.984
 
band    30 # energy   11.74038590 # occ.  0.00000000
 
ion      s     py     pz     px    dxy    dyz    dz2    dxz  x2-y2    tot
    1  0.000  0.000  0.000  0.000  0.115  0.001  0.000  0.000  0.000  0.117
    2  0.000  0.000  0.000  0.000  0.373  0.005  0.000  0.000  0.000  0.377
    3  0.000  0.000  0.000  0.000  0.115  0.001  0.000  0.000  0.000  0.117
    4  0.000  0.000  0.000  0.000  0.373  0.005  0.000  0.000  0.000  0.377
tot    0.000  0.000  0.000  0.000  0.975  0.013  0.000  0.000  0.000  0.988
 
band    31 # energy   11.74038590 # occ.  0.00000000
 
ion      s     py     pz     px    dxy    dyz    dz2    dxz  x2-y2    tot
    1  0.000  0.000  0.000  0.000  0.001  0.115  0.000  0.000  0.000  0.117
    2  0.000  0.000  0.000  0.000  0.005  0.373  0.000  0.000  0.000  0.377
    3  0.000  0.000  0.000  0.000  0.001  0.115  0.000  0.000  0.000  0.117
    4  0.000  0.000  0.000  0.000  0.005  0.373  0.000  0.000  0.000  0.377
tot    0.000  0.000  0.000  0.000  0.013  0.975  0.000  0.000  0.000  0.988
 
band    32 # energy   11.97894522 # occ.  0.00000000
 
ion      s     py     pz     px    dxy    dyz    dz2    dxz  x2-y2    tot
    1  0.000  0.000  0.000  0.000  0.000  0.000  0.017  0.000  0.006  0.023
    2  0.000  0.000  0.000  0.000  0.000  0.000  0.353  0.000  0.118  0.470
    3  0.000  0.000  0.000  0.000  0.000  0.000  0.017  0.000  0.006  0.023
    4  0.000  0.000  0.000  0.000  0.000  0.000  0.353  0.000  0.118  0.470
tot    0.000  0.000  0.000  0.000  0.000  0.000  0.739  0.000  0.246  0.986
 
band    33 # energy   12.30579989 # occ.  0.00000000
 
ion      s     py     pz     px    dxy    dyz    dz2    dxz  x2-y2    tot
    1  0.000  0.000  0.000  0.000  0.000  0.000  0.000  0.000  0.000  0.000
    2  0.000  0.000  0.000  0.000  0.000  0.000  0.000  0.496  0.000  0.496
    3  0.000  0.000  0.000  0.000  0.000  0.000  0.000  0.000  0.000  0.000
    4  0.000  0.000  0.000  0.000  0.000  0.000  0.000  0.496  0.000  0.496
tot    0.000  0.000  0.000  0.000  0.000  0.000  0.000  0.992  0.000  0.992
 
band    34 # energy   12.67760478 # occ.  0.00000000
 
ion      s     py     pz     px    dxy    dyz    dz2    dxz  x2-y2    tot
    1  0.000  0.163  0.000  0.000  0.000  0.000  0.000  0.000  0.000  0.163
    2  0.000  0.146  0.000  0.000  0.000  0.000  0.000  0.000  0.000  0.146
    3  0.000  0.163  0.000  0.000  0.000  0.000  0.000  0.000  0.000  0.163
    4  0.000  0.146  0.000  0.000  0.000  0.000  0.000  0.000  0.000  0.146
tot    0.000  0.619  0.000  0.000  0.000  0.000  0.000  0.000  0.000  0.619
 
band    35 # energy   12.69191828 # occ.  0.00000000
 
ion      s     py     pz     px    dxy    dyz    dz2    dxz  x2-y2    tot
    1  0.000  0.000  0.037  0.129  0.000  0.000  0.000  0.000  0.000  0.166
    2  0.000  0.000  0.032  0.112  0.000  0.000  0.000  0.000  0.000  0.143
    3  0.000  0.000  0.037  0.129  0.000  0.000  0.000  0.000  0.000  0.166
    4  0.000  0.000  0.032  0.112  0.000  0.000  0.000  0.000  0.000  0.143
tot    0.000  0.000  0.137  0.482  0.000  0.000  0.000  0.000  0.000  0.619
 
band    36 # energy   12.69191828 # occ.  0.00000000
 
ion      s     py     pz     px    dxy    dyz    dz2    dxz  x2-y2    tot
    1  0.000  0.000  0.129  0.037  0.000  0.000  0.000  0.000  0.000  0.166
    2  0.000  0.000  0.112  0.032  0.000  0.000  0.000  0.000  0.000  0.143
    3  0.000  0.000  0.129  0.037  0.000  0.000  0.000  0.000  0.000  0.166
    4  0.000  0.000  0.112  0.032  0.000  0.000  0.000  0.000  0.000  0.143
tot    0.000  0.000  0.482  0.137  0.000  0.000  0.000  0.000  0.000  0.619
 
band    37 # energy   20.90046929 # occ.  0.00000000
 
ion      s     py     pz     px    dxy    dyz    dz2    dxz  x2-y2    tot
    1  0.000  0.000  0.000  0.000  0.000  0.000  0.130  0.000  0.043  0.173
    2  0.131  0.000  0.000  0.000  0.000  0.000  0.019  0.000  0.056  0.205
    3  0.000  0.000  0.000  0.000  0.000  0.000  0.130  0.000  0.043  0.173
    4  0.131  0.000  0.000  0.000  0.000  0.000  0.019  0.000  0.056  0.205
tot    0.262  0.000  0.000  0.000  0.000  0.000  0.297  0.000  0.198  0.757
 
band    38 # energy   20.94138732 # occ.  0.00000000
 
ion      s     py     pz     px    dxy    dyz    dz2    dxz  x2-y2    tot
    1  0.064  0.000  0.000  0.000  0.000  0.000  0.028  0.000  0.084  0.175
    2  0.070  0.000  0.000  0.000  0.000  0.000  0.034  0.000  0.102  0.206
    3  0.064  0.000  0.000  0.000  0.000  0.000  0.028  0.000  0.084  0.175
    4  0.070  0.000  0.000  0.000  0.000  0.000  0.034  0.000  0.102  0.206
tot    0.267  0.000  0.000  0.000  0.000  0.000  0.124  0.000  0.372  0.764
 
band    39 # energy   21.01601769 # occ.  0.00000000
 
ion      s     py     pz     px    dxy    dyz    dz2    dxz  x2-y2    tot
    1  0.140  0.000  0.000  0.000  0.000  0.000  0.012  0.000  0.037  0.190
    2  0.000  0.000  0.000  0.000  0.000  0.000  0.150  0.000  0.050  0.199
    3  0.140  0.000  0.000  0.000  0.000  0.000  0.012  0.000  0.037  0.190
    4  0.000  0.000  0.000  0.000  0.000  0.000  0.150  0.000  0.050  0.199
tot    0.280  0.000  0.000  0.000  0.000  0.000  0.324  0.000  0.175  0.778
 
band    40 # energy   24.15052883 # occ.  0.00000000
 
ion      s     py     pz     px    dxy    dyz    dz2    dxz  x2-y2    tot
    1  0.000  0.352  0.000  0.000  0.000  0.000  0.000  0.000  0.000  0.352
    2  0.000  0.000  0.000  0.000  0.000  0.000  0.000  0.000  0.000  0.000
    3  0.000  0.352  0.000  0.000  0.000  0.000  0.000  0.000  0.000  0.352
    4  0.000  0.000  0.000  0.000  0.000  0.000  0.000  0.000  0.000  0.000
tot    0.000  0.705  0.000  0.000  0.000  0.000  0.000  0.000  0.000  0.705
 
band    41 # energy   24.51148055 # occ.  0.00000000
 
ion      s     py     pz     px    dxy    dyz    dz2    dxz  x2-y2    tot
    1  0.000  0.000  0.008  0.178  0.000  0.000  0.000  0.000  0.000  0.185
    2  0.000  0.000  0.006  0.151  0.000  0.000  0.000  0.000  0.000  0.158
    3  0.000  0.000  0.008  0.178  0.000  0.000  0.000  0.000  0.000  0.185
    4  0.000  0.000  0.006  0.151  0.000  0.000  0.000  0.000  0.000  0.158
tot    0.000  0.000  0.028  0.658  0.000  0.000  0.000  0.000  0.000  0.686
 
band    42 # energy   24.51148055 # occ.  0.00000000
 
ion      s     py     pz     px    dxy    dyz    dz2    dxz  x2-y2    tot
    1  0.000  0.000  0.178  0.008  0.000  0.000  0.000  0.000  0.000  0.185
    2  0.000  0.000  0.151  0.006  0.000  0.000  0.000  0.000  0.000  0.158
    3  0.000  0.000  0.178  0.008  0.000  0.000  0.000  0.000  0.000  0.185
    4  0.000  0.000  0.151  0.006  0.000  0.000  0.000  0.000  0.000  0.158
tot    0.000  0.000  0.658  0.028  0.000  0.000  0.000  0.000  0.000  0.686
 
band    43 # energy   24.53756381 # occ.  0.00000000
 
ion      s     py     pz     px    dxy    dyz    dz2    dxz  x2-y2    tot
    1  0.000  0.000  0.059  0.107  0.000  0.000  0.000  0.000  0.000  0.166
    2  0.000  0.000  0.063  0.113  0.000  0.000  0.000  0.000  0.000  0.176
    3  0.000  0.000  0.059  0.107  0.000  0.000  0.000  0.000  0.000  0.166
    4  0.000  0.000  0.063  0.113  0.000  0.000  0.000  0.000  0.000  0.176
tot    0.000  0.000  0.243  0.441  0.000  0.000  0.000  0.000  0.000  0.684
 
band    44 # energy   24.53756381 # occ.  0.00000000
 
ion      s     py     pz     px    dxy    dyz    dz2    dxz  x2-y2    tot
    1  0.000  0.000  0.107  0.059  0.000  0.000  0.000  0.000  0.000  0.166
    2  0.000  0.000  0.113  0.063  0.000  0.000  0.000  0.000  0.000  0.176
    3  0.000  0.000  0.107  0.059  0.000  0.000  0.000  0.000  0.000  0.166
    4  0.000  0.000  0.113  0.063  0.000  0.000  0.000  0.000  0.000  0.176
tot    0.000  0.000  0.441  0.243  0.000  0.000  0.000  0.000  0.000  0.684
 
band    45 # energy   24.85266302 # occ.  0.00000000
 
ion      s     py     pz     px    dxy    dyz    dz2    dxz  x2-y2    tot
    1  0.000  0.000  0.000  0.000  0.000  0.000  0.000  0.000  0.000  0.000
    2  0.000  0.333  0.000  0.000  0.000  0.000  0.000  0.000  0.000  0.333
    3  0.000  0.000  0.000  0.000  0.000  0.000  0.000  0.000  0.000  0.000
    4  0.000  0.333  0.000  0.000  0.000  0.000  0.000  0.000  0.000  0.333
tot    0.000  0.666  0.000  0.000  0.000  0.000  0.000  0.000  0.000  0.666
 
band    46 # energy   30.25484387 # occ.  0.00000000
 
ion      s     py     pz     px    dxy    dyz    dz2    dxz  x2-y2    tot
    1  0.000  0.000  0.000  0.000  0.087  0.104  0.000  0.000  0.000  0.191
    2  0.000  0.000  0.000  0.000  0.088  0.105  0.000  0.000  0.000  0.193
    3  0.000  0.000  0.000  0.000  0.087  0.104  0.000  0.000  0.000  0.191
    4  0.000  0.000  0.000  0.000  0.088  0.105  0.000  0.000  0.000  0.193
tot    0.000  0.000  0.000  0.000  0.350  0.417  0.000  0.000  0.000  0.767
 
band    47 # energy   30.25484387 # occ.  0.00000000
 
ion      s     py     pz     px    dxy    dyz    dz2    dxz  x2-y2    tot
    1  0.000  0.000  0.000  0.000  0.104  0.087  0.000  0.000  0.000  0.191
    2  0.000  0.000  0.000  0.000  0.105  0.088  0.000  0.000  0.000  0.193
    3  0.000  0.000  0.000  0.000  0.104  0.087  0.000  0.000  0.000  0.191
    4  0.000  0.000  0.000  0.000  0.105  0.088  0.000  0.000  0.000  0.193
tot    0.000  0.000  0.000  0.000  0.417  0.350  0.000  0.000  0.000  0.767
 
band    48 # energy   30.25675497 # occ.  0.00000000
 
ion      s     py     pz     px    dxy    dyz    dz2    dxz  x2-y2    tot
    1  0.000  0.000  0.000  0.000  0.000  0.000  0.000  0.206  0.000  0.206
    2  0.000  0.000  0.000  0.000  0.000  0.000  0.000  0.177  0.000  0.177
    3  0.000  0.000  0.000  0.000  0.000  0.000  0.000  0.206  0.000  0.206
    4  0.000  0.000  0.000  0.000  0.000  0.000  0.000  0.177  0.000  0.177
tot    0.000  0.000  0.000  0.000  0.000  0.000  0.000  0.767  0.000  0.767
 

 k-point     2 :    0.12500000 0.00000000 0.00000000     weight = 0.00781250

band     1 # energy  -39.41066971 # occ.  1.00000000
 
ion      s     py     pz     px    dxy    dyz    dz2    dxz  x2-y2    tot
    1  0.000  0.488  0.000  0.000  0.000  0.000  0.000  0.000  0.000  0.488
    2  0.000  0.008  0.000  0.000  0.000  0.000  0.000  0.000  0.000  0.008
    3  0.000  0.488  0.000  0.000  0.000  0.000  0.000  0.000  0.000  0.488
    4  0.000  0.008  0.000  0.000  0.000  0.000  0.000  0.000  0.000  0.008
tot    0.000  0.992  0.000  0.000  0.000  0.000  0.000  0.000  0.000  0.992
 
band     2 # energy  -39.34860742 # occ.  1.00000000
 
ion      s     py     pz     px    dxy    dyz    dz2    dxz  x2-y2    tot
    1  0.000  0.000  0.492  0.000  0.000  0.000  0.000  0.000  0.000  0.492
    2  0.000  0.000  0.003  0.000  0.000  0.000  0.000  0.000  0.000  0.003
    3  0.000  0.000  0.492  0.000  0.000  0.000  0.000  0.000  0.000  0.492
    4  0.000  0.000  0.003  0.000  0.000  0.000  0.000  0.000  0.000  0.003
tot    0.000  0.000  0.991  0.000  0.000  0.000  0.000  0.000  0.000  0.991
 
band     3 # energy  -39.34818025 # occ.  1.00000000
 
ion      s     py     pz     px    dxy    dyz    dz2    dxz  x2-y2    tot
    1  0.000  0.000  0.000  0.492  0.000  0.000  0.000  0.000  0.000  0.492
    2  0.000  0.000  0.000  0.003  0.000  0.000  0.000  0.000  0.000  0.003
    3  0.000  0.000  0.000  0.492  0.000  0.000  0.000  0.000  0.000  0.492
    4  0.000  0.000  0.000  0.003  0.000  0.000  0.000  0.000  0.000  0.003
tot    0.000  0.000  0.000  0.990  0.000  0.000  0.000  0.000  0.000  0.991
 
band     4 # energy  -39.31991478 # occ.  1.00000000
 
ion      s     py     pz     px    dxy    dyz    dz2    dxz  x2-y2    tot
    1  0.000  0.497  0.000  0.000  0.000  0.000  0.000  0.000  0.000  0.497
    2  0.000  0.000  0.000  0.000  0.000  0.000  0.000  0.000  0.000  0.000
    3  0.000  0.497  0.000  0.000  0.000  0.000  0.000  0.000  0.000  0.497
    4  0.000  0.000  0.000  0.000  0.000  0.000  0.000  0.000  0.000  0.000
tot    0.000  0.995  0.000  0.000  0.000  0.000  0.000  0.000  0.000  0.995
 
band     5 # energy  -39.09057390 # occ.  1.00000000
 
ion      s     py     pz     px    dxy    dyz    dz2    dxz  x2-y2    tot
    1  0.000  0.000  0.497  0.000  0.000  0.000  0.000  0.000  0.000  0.497
    2  0.000  0.000  0.001  0.000  0.000  0.000  0.000  0.000  0.000  0.001
    3  0.000  0.000  0.497  0.000  0.000  0.000  0.000  0.000  0.000  0.497
    4  0.000  0.000  0.001  0.000  0.000  0.000  0.000  0.000  0.000  0.001
tot    0.000  0.000  0.996  0.000  0.000  0.000  0.000  0.000  0.000  0.996
 
band     6 # energy  -39.09023544 # occ.  1.00000000
 
ion      s     py     pz     px    dxy    dyz    dz2    dxz  x2-y2    tot
    1  0.000  0.000  0.000  0.497  0.000  0.000  0.000  0.000  0.000  0.497
    2  0.000  0.000  0.000  0.001  0.000  0.000  0.000  0.000  0.000  0.001
    3  0.000  0.000  0.000  0.497  0.000  0.000  0.000  0.000  0.000  0.497
    4  0.000  0.000  0.000  0.001  0.000  0.000  0.000  0.000  0.000  0.001
tot    0.000  0.000  0.000  0.996  0.000  0.000  0.000  0.000  0.000  0.996
 
band     7 # energy  -37.31806625 # occ.  1.00000000
 
ion      s     py     pz     px    dxy    dyz    dz2    dxz  x2-y2    tot
    1  0.000  0.000  0.000  0.003  0.000  0.000  0.000  0.000  0.000  0.003
    2  0.000  0.000  0.000  0.492  0.000  0.000  0.000  0.000  0.000  0.492
    3  0.000  0.000  0.000  0.003  0.000  0.000  0.000  0.000  0.000  0.003
    4  0.000  0.000  0.000  0.492  0.000  0.000  0.000  0.000  0.000  0.492
tot    0.000  0.000  0.000  0.992  0.000  0.000  0.000  0.000  0.000  0.992
 
band     8 # energy  -37.31571397 # occ.  1.00000000
 
ion      s     py     pz     px    dxy    dyz    dz2    dxz  x2-y2    tot
    1  0.000  0.000  0.004  0.000  0.000  0.000  0.000  0.000  0.000  0.004
    2  0.000  0.000  0.492  0.000  0.000  0.000  0.000  0.000  0.000  0.492
    3  0.000  0.000  0.004  0.000  0.000  0.000  0.000  0.000  0.000  0.004
    4  0.000  0.000  0.492  0.000  0.000  0.000  0.000  0.000  0.000  0.492
tot    0.000  0.000  0.992  0.000  0.000  0.000  0.000  0.000  0.000  0.992
 
band     9 # energy  -37.25362042 # occ.  1.00000000
 
ion      s     py     pz     px    dxy    dyz    dz2    dxz  x2-y2    tot
    1  0.000  0.008  0.000  0.000  0.000  0.000  0.000  0.000  0.000  0.008
    2  0.000  0.489  0.000  0.000  0.000  0.000  0.000  0.000  0.000  0.489
    3  0.000  0.008  0.000  0.000  0.000  0.000  0.000  0.000  0.000  0.008
    4  0.000  0.489  0.000  0.000  0.000  0.000  0.000  0.000  0.000  0.489
tot    0.000  0.994  0.000  0.000  0.000  0.000  0.000  0.000  0.000  0.994
 
band    10 # energy  -37.22469930 # occ.  1.00000000
 
ion      s     py     pz     px    dxy    dyz    dz2    dxz  x2-y2    tot
    1  0.000  0.000  0.000  0.000  0.000  0.000  0.000  0.000  0.000  0.000
    2  0.000  0.497  0.000  0.000  0.000  0.000  0.000  0.000  0.000  0.497
    3  0.000  0.000  0.000  0.000  0.000  0.000  0.000  0.000  0.000  0.000
    4  0.000  0.497  0.000  0.000  0.000  0.000  0.000  0.000  0.000  0.497
tot    0.000  0.995  0.000  0.000  0.000  0.000  0.000  0.000  0.000  0.995
 
band    11 # energy  -37.06002946 # occ.  1.00000000
 