C                                       
   1.00000000000000     
     2.468570    0.000000    0.000000
    -1.234285    2.137844    0.000000
     0.000000    0.000000    8.840790
   C 
     4
Direct
  0.000000  0.000000  0.250000
  0.000000  0.000000  0.750000
  0.333333  0.666667  0.250000
  0.666667  0.333333  0.750000
 
   28   28  100
 0.26409     0.26327     0.26087     0.25706     0.25208     0.24622     0.23979     0.23309     0.22646     0.22024    
 0.21474     0.21024     0.20691     0.20487     0.20418     0.20487     0.20691     0.21024     0.21474     0.22024    
 0.22646     0.23309     0.23979     0.24622     0.25208     0.25706     0.26087     0.26327     0.26327     0.26327    
 0.26167     0.25856     0.25416     0.24873     0.24259     0.23608     0.22948     0.22309     0.21723     0.21221    
 0.20826     0.20556     0.20422     0.20425     0.20565     0.20835     0.21225     0.21720     0.22300     0.22939    
 0.23604     0.24262     0.24877     0.25418     0.25857     0.26167     0.26089     0.26167     0.26088     0.25858    
 0.25489     0.25005     0.24435     0.23814     0.23173     0.22540     0.21944     0.21414     0.20973     0.20643    
 0.20441     0.20375     0.20447     0.20651     0.20978     0.21414     0.21940     0.22532     0.23168     0.23815    
 0.24440     0.25008     0.25489     0.25857     0.25708     0.25857     0.25856     0.25707     0.25420     0.25010    
 0.24500     0.23924     0.23313     0.22699     0.22108     0.21571     0.21109     0.20740     0.20482     0.20349    
 0.20349     0.20479     0.20735     0.21106     0.21574     0.22113     0.22701     0.23315     0.23927     0.24501    
 0.25006     0.25417     0.25208     0.25419     0.25488     0.25415     0.25208     0.24879     0.24443     0.23929    
 0.23368     0.22787     0.22213     0.21678     0.21209     0.20822     0.20529     0.20346     0.20283     0.20342    
 0.20519     0.20811     0.21209     0.21689     0.22222     0.22789     0.23368     0.23929     0.24439     0.24873    
 0.24618     0.24877     0.25009     0.25004     0.24871     0.24620     0.24262     0.23818     0.23321     0.22795    
 0.22258     0.21739     0.21272     0.20878     0.20565     0.20347     0.20238     0.20240     0.20348     0.20558    
 0.20872     0.21278     0.21747     0.22256     0.22789     0.23321     0.23819     0.24257     0.23971     0.24260    
 0.24444     0.24502     0.24436     0.24258     0.23975     0.23601     0.23168     0.22706     0.22228     0.21749    
 0.21299     0.20909     0.20590     0.20349     0.20201     0.20159     0.20214     0.20356     0.20588     0.20910    
 0.21303     0.21743     0.22215     0.22703     0.23176     0.23605     0.23303     0.23601     0.23820     0.23932    
 0.23926     0.23816     0.23608     0.23306     0.22934     0.22528     0.22112     0.21691     0.21281     0.20913    
 0.20605     0.20357     0.20181     0.20098     0.20108     0.20197     0.20359     0.20601     0.20916     0.21280    
 0.21678     0.22105     0.22539     0.22946     0.22646     0.22937     0.23171     0.23322     0.23368     0.23315    
 0.23176     0.22951     0.22646     0.22296     0.21933     0.21569     0.21209     0.20877     0.20596     0.20366    
 0.20185     0.20071     0.20040     0.20082     0.20185     0.20355     0.20595     0.20886     0.21209     0.21562    
 0.21938     0.22310     0.22032     0.22301     0.22532     0.22705     0.22791     0.22783     0.22698     0.22543    
 0.22314     0.22028     0.21719     0.21410     0.21102     0.20809     0.20560     0.20360     0.20199     0.20080    
 0.20022     0.20026     0.20079     0.20183     0.20348     0.20569     0.20823     0.21100     0.21406     0.21727    
 0.21485     0.21724     0.21934     0.22110     0.22224     0.22254     0.22209     0.22106     0.21945     0.21727    
 0.21480     0.21229     0.20978     0.20732     0.20514     0.20342     0.20211     0.20109     0.20045     0.20030    
 0.20051     0.20102     0.20196     0.20344     0.20530     0.20737     0.20968     0.21225     0.21031     0.21228    
 0.21406     0.21565     0.21689     0.21751     0.21741     0.21676     0.21566     0.21410     0.21221     0.21027    
 0.20841     0.20654     0.20479     0.20336     0.20233     0.20155     0.20101     0.20080     0.20090     0.20112    
 0.20151     0.20229     0.20346     0.20486     0.20643     0.20828     0.20691     0.20836     0.20972     0.21097    
 0.21209     0.21286     0.21307     0.21277     0.21209     0.21104     0.20967     0.20822     0.20691     0.20569    
 0.20451     0.20351     0.20283     0.20236     0.20199     0.20181     0.20185     0.20198     0.20209     0.20231    
 0.20283     0.20358     0.20446     0.20555     0.20480     0.20564     0.20650     0.20732     0.20812     0.20881    
 0.20916     0.20913     0.20881     0.20825     0.20740     0.20639     0.20551     0.20483     0.20425     0.20378    
 0.20355     0.20351     0.20349     0.20345     0.20348     0.20358     0.20356     0.20344     0.20342     0.20358    
 0.20382     0.20418     0.20408     0.20422     0.20452     0.20483     0.20519     0.20561     0.20593     0.20598    
 0.20586     0.20567     0.20535     0.20486     0.20441     0.20418     0.20413     0.20418     0.20441     0.20486    
 0.20535     0.20567     0.20586     0.20598     0.20593     0.20561     0.20519     0.20483     0.20452     0.20422    
 0.20480     0.20418     0.20382     0.20358     0.20342     0.20344     0.20356     0.20358     0.20348     0.20345    
 0.20349     0.20351     0.20355     0.20378     0.20425     0.20483     0.20551     0.20639     0.20740     0.20825    
 0.20881     0.20913     0.20916     0.20881     0.20812     0.20732     0.20650     0.20564     0.20691     0.20555    
 0.20446     0.20358     0.20283     0.20231     0.20209     0.20198     0.20185     0.20181     0.20199     0.20236    
 0.20283     0.20351     0.20451     0.20569     0.20691     0.20822     0.20967     0.21104     0.21209     0.21277    
 0.21307     0.21286     0.21209     0.21097     0.20972     0.20836     0.21031     0.20828     0.20643     0.20486    
 0.20346     0.20229     0.20151     0.20112     0.20090     0.20080     0.20101     0.20155     0.20233     0.20336    
 0.20479     0.20654     0.20841     0.21027     0.21221     0.21410     0.21566     0.21676     0.21741     0.21751    
 0.21689     0.21565     0.21406     0.21228     0.21485     0.21225     0.20968     0.20737     0.20530     0.20344    
 0.20196     0.20102     0.20051     0.20030     0.20045     0.20109     0.20211     0.20342     0.20514     0.20732    
 0.20978     0.21229     0.21480     0.21727     0.21945     0.22106     0.22209     0.22254     0.22224     0.22110    
 0.21934     0.21724     0.22032     0.21727     0.21406     0.21100     0.20823     0.20569     0.20348     0.20183    
 0.20079     0.20026     0.20022     0.20080     0.20199     0.20360     0.20560     0.20809     0.21102     0.21410    
 0.21719     0.22028     0.22314     0.22543     0.22698     0.22783     0.22791     0.22705     0.22532     0.22301    
 0.22646     0.22310     0.21938     0.21562     0.21209     0.20886     0.20595     0.20355     0.20185     0.20082    
 0.20040     0.20071     0.20185     0.20366     0.20596     0.20877     0.21209     0.21569     0.21933     0.22296    
 0.22646     0.22951     0.23176     0.23315     0.23368     0.23322     0.23171     0.22937     0.23303     0.22946    
 0.22539     0.22105     0.21678     0.21280     0.20916     0.20601     0.20359     0.20197     0.20108     0.20098    
 0.20181     0.20357     0.20605     0.20913     0.21281     0.21691     0.22112     0.22528     0.22934     0.23306    
 0.23608     0.23816     0.23926     0.23932     0.23820     0.23601     0.23971     0.23605     0.23176     0.22703    
 0.22215     0.21743     0.21303     0.20910     0.20588     0.20356     0.20214     0.20159     0.20201     0.20349    
 0.20590     0.20909     0.21299     0.21749     0.22228     0.22706     0.23168     0.23601     0.23975     0.24258    
 0.24436     0.24502     0.24444     0.24260     0.24618     0.24257     0.23819     0.23321     0.22789     0.22256    
 0.21747     0.21278     0.20872     0.20558     0.20348     0.20240     0.20238     0.20347     0.20565     0.20878    
 0.21272     0.21739     0.22258     0.22795     0.23321     0.23818     0.24262     0.24620     0.24871     0.25004    
 0.25009     0.24877     0.25208     0.24873     0.24439     0.23929     0.23368     0.22789     0.22222     0.21689    
 0.21209     0.20811     0.20519     0.20342     0.20283     0.20346     0.20529     0.20822     0.21209     0.21678    
 0.22213     0.22787     0.23368     0.23929     0.24443     0.24879     0.25208     0.25415     0.25488     0.25419    
 0.25708     0.25417     0.25006     0.24501     0.23927     0.23315     0.22701     0.22113     0.21574     0.21106    
 0.20735     0.20479     0.20349     0.20349     0.20482     0.20740     0.21109     0.21571     0.22108     0.22699    
 0.23313     0.23924     0.24500     0.25010     0.25420     0.25707     0.25856     0.25857     0.26089     0.25857    
 0.25489     0.25008     0.24440     0.23815     0.23168     0.22532     0.21940     0.21414     0.20978     0.20651    
 0.20447     0.20375     0.20441     0.20643     0.20973     0.21414     0.21944     0.22540     0.23173     0.23814    
 0.24435     0.25005     0.25489     0.25858     0.26088     0.26167     0.26327     0.26167     0.25857     0.25418    
 0.24877     0.24262     0.23604     0.22939     0.22300     0.21720     0.21225     0.20835     0.20565     0.20425    
 0.20422     0.20556     0.20826     0.21221     0.21723     0.22309     0.22948     0.23608     0.24259     0.24873    
 0.25416     0.25856     0.26167     0.26327     0.27758     0.27672     0.27422     0.27022     0.26496     0.25877    
 0.25198     0.24489     0.23783     0.23120     0.22534     0.22055     0.21699     0.21481     0.21408     0.21482    
 0.21699     0.22054     0.22535     0.23122     0.23783     0.24487     0.25197     0.25879     0.26496     0.27019    
 0.27420     0.27673     0.27672     0.27671     0.27491     0.27143     0.26646     0.26032     0.25339     0.24603    
 0.23855     0.23131     0.22468     0.21901     0.21454     0.21148     0.20995     0.21000     0.21158     0.21462    
 0.21904     0.22466     0.23123     0.23845     0.24598     0.25342     0.26037     0.26647     0.27142     0.27492    
 0.27423     0.27516     0.27420     0.27143     0.26700     0.26114     0.25426     0.24677     0.23903     0.23140    
 0.22422     0.21784     0.21255     0.20858     0.20614     0.20535     0.20621     0.20865     0.21258     0.21784    
 0.22418     0.23132     0.23897     0.24678     0.25432     0.26118     0.26698     0.27143     0.27024     0.27217    
 0.27214     0.27021     0.26650     0.26120     0.25461     0.24718     0.23933     0.23142     0.22382     0.21691    
 0.21097     0.20622     0.20289     0.20118     0.20119     0.20288     0.20616     0.21093     0.21694     0.22388    
 0.23144     0.23934     0.24722     0.25463     0.26115     0.26647     0.26496     0.26789     0.26886     0.26784    
 0.26496     0.26039     0.25435     0.24724     0.23950     0.23149     0.22359     0.21621     0.20972     0.20433    
 0.20024     0.19766     0.19679     0.19764     0.20013     0.20421     0.20972     0.21633     0.22369     0.23151    
 0.23950     0.24724     0.25430     0.26031     0.25873     0.26257     0.26454     0.26450     0.26252     0.25876    
 0.25341     0.24682     0.23941     0.23157     0.22361     0.21592     0.20893     0.20296     0.19818     0.19482    
 0.19310     0.19313     0.19482     0.19810     0.20290     0.20900     0.21600     0.22359     0.23151     0.23941    
 0.24682     0.25337     0.25190     0.25650     0.25942     0.26037     0.25935     0.25649     0.25194     0.24595    
 0.23898     0.23149     0.22375     0.21603     0.20873     0.20228     0.19689     0.19278     0.19022     0.18942    
 0.19034     0.19285     0.19687     0.20229     0.20877     0.21596     0.22361     0.23146     0.23907     0.24599    
 0.24482     0.25001     0.25375     0.25567     0.25562     0.25371     0.25007     0.24484     0.23840     0.23128    
 0.22386     0.21635     0.20903     0.20232     0.19652     0.19179     0.18841     0.18671     0.18681     0.18855    
 0.19181     0.19648     0.20235     0.20902     0.21622     0.22379     0.23139     0.23853     0.23783     0.24342    
 0.24781     0.25059     0.25148     0.25051     0.24784     0.24355     0.23783     0.23118     0.22411     0.21688    
 0.20972     0.20296     0.19696     0.19187     0.18788     0.18534     0.18454     0.18544     0.18788     0.19177    
 0.19694     0.20304     0.20972     0.21682     0.22416     0.23132     0.23128     0.23708     0.24190     0.24539    
 0.24715     0.24708     0.24532     0.24200     0.23721     0.23126     0.22465     0.21779     0.21088     0.20420    
 0.19812     0.19288     0.18857     0.18543     0.18380     0.18384     0.18542     0.18842     0.19278     0.19822    
 0.20433     0.21088     0.21776     0.22472     0.22546     0.23130     0.23634     0.24034     0.24287     0.24365    
 0.24273     0.24030     0.23645     0.23135     0.22542     0.21909     0.21259     0.20614     0.20008     0.19477    
 0.19031     0.18681     0.18459     0.18388     0.18464     0.18675     0.19017     0.19478     0.20024     0.20619    
 0.21250     0.21905     0.22063     0.22636     0.23144     0.23569     0.23881     0.24039     0.24030     0.23869    
 0.23570     0.23147     0.22628     0.22059     0.21468     0.20869     0.20287     0.19758     0.19306     0.18938    
 0.18674     0.18543     0.18551     0.18684     0.18935     0.19302     0.19767     0.20293     0.20858     0.21456    
 0.21699     0.22243     0.22740     0.23171     0.23516     0.23739     0.23810     0.23730     0.23516     0.23177    
 0.22734     0.22228     0.21699     0.21161     0.20625     0.20121     0.19679     0.19309     0.19020     0.18840    
 0.18788     0.18857     0.19029     0.19305     0.19679     0.20127     0.20619     0.21146     0.21474     0.21969    
 0.22440     0.22861     0.23215     0.23478     0.23614     0.23611     0.23479     0.23228     0.22868     0.22429    
 0.21957     0.21478     0.20999     0.20538     0.20124     0.19772     0.19484     0.19274     0.19171     0.19179    
 0.19285     0.19479     0.19764     0.20128     0.20542     0.20992     0.21398     0.21827     0.22255     0.22650    
 0.22997     0.23277     0.23458     0.23515     0.23452     0.23283     0.23013     0.22654     0.22245     0.21824    
 0.21403     0.20992     0.20615     0.20294     0.20029     0.19820     0.19686     0.19645     0.19692     0.19814    
 0.20014     0.20291     0.20626     0.20997     0.21475     0.21824     0.22191     0.22545     0.22866     0.23144    
 0.23353     0.23458     0.23448     0.23342     0.23150     0.22876     0.22543     0.22187     0.21831     0.21478    
 0.21143     0.20855     0.20621     0.20435     0.20298     0.20231     0.20235     0.20299     0.20421     0.20613    
 0.20866     0.21157     0.21699     0.21961     0.22250     0.22546     0.22823     0.23076     0.23291     0.23432    
 0.23470     0.23413     0.23281     0.23081     0.22823     0.22539     0.22255     0.21975     0.21699     0.21450    
 0.21249     0.21092     0.20972     0.20898     0.20881     0.20908     0.20972     0.21083     0.21253     0.21464    
 0.22062     0.22233     0.22433     0.22654     0.22871     0.23073     0.23262     0.23416     0.23495     0.23485    
 0.23404     0.23266     0.23078     0.22860     0.22646     0.22445     0.22247     0.22058     0.21900     0.21781    
 0.21687     0.21620     0.21594     0.21605     0.21634     0.21685     0.21776     0.21908     0.22547     0.22631    
 0.22734     0.22865     0.23008     0.23144     0.23277     0.23404     0.23497     0.23525     0.23491     0.23412    
 0.23293     0.23142     0.22990     0.22861     0.22746     0.22635     0.22540     0.22473     0.22423     0.22380    
 0.22355     0.22357     0.22371     0.22384     0.22412     0.22470     0.23130     0.23136     0.23143     0.23173    
 0.23226     0.23285     0.23345     0.23415     0.23483     0.23520     0.23516     0.23485     0.23433     0.23358    
 0.23275     0.23212     0.23176     0.23148     0.23127     0.23124     0.23137     0.23143     0.23140     0.23145    
 0.23153     0.23148     0.23131     0.23124     0.23783     0.23718     0.23640     0.23566     0.23516     0.23484    
 0.23461     0.23455     0.23470     0.23486     0.23485     0.23475     0.23470     0.23467     0.23462     0.23474    
 0.23516     0.23575     0.23635     0.23703     0.23783     0.23858     0.23906     0.23934     0.23950     0.23942    
 0.23901     0.23842     0.24480     0.24350     0.24197     0.24029     0.23871     0.23733     0.23614     0.23519    
 0.23460     0.23431     0.23411     0.23400     0.23414     0.23457     0.23522     0.23610     0.23733     0.23883    
 0.24037     0.24186     0.24338     0.24485     0.24602     0.24679     0.24722     0.24728     0.24684     0.24594    
 0.25190     0.25003     0.24784     0.24536     0.24278     0.24032     0.23806     0.23607     0.23453     0.23354    
 0.23297     0.23271     0.23283     0.23346     0.23456     0.23607     0.23802     0.24038     0.24291     0.24539    
 0.24777     0.25001     0.25194     0.25337     0.25427     0.25464     0.25436     0.25340     0.25875     0.25649    
 0.25374     0.25057     0.24713     0.24367     0.24036     0.23730     0.23469     0.23273     0.23148     0.23086    
 0.23083     0.23148     0.23281     0.23475     0.23725     0.24028     0.24369     0.24719     0.25057     0.25373    
 0.25653     0.25876     0.26030     0.26113     0.26118     0.26037     0.26496     0.26254     0.25939     0.25564    
 0.25148     0.24714     0.24286     0.23881     0.23516     0.23214     0.22995     0.22865     0.22823     0.22870    
 0.23007     0.23225     0.23516     0.23871     0.24277     0.24711     0.25148     0.25565     0.25942     0.26259    
 0.26496     0.26644     0.26697     0.26648     0.27021     0.26786     0.26452     0.26037     0.25562     0.25052    
 0.24535     0.24037     0.23579     0.23180     0.22864     0.22646     0.22535     0.22536     0.22649     0.22868    
 0.23182     0.23576     0.24033     0.24532     0.25050     0.25560     0.26037     0.26455     0.26789     0.27022    
 0.27142     0.27142     0.27422     0.27215     0.26886     0.26453     0.25939     0.25370     0.24777     0.24190    
 0.23640     0.23152     0.22747     0.22441     0.22250     0.22183     0.22245     0.22433     0.22740     0.23151    
 0.23645     0.24197     0.24780     0.25369     0.25935     0.26450     0.26886     0.27217     0.27423     0.27493    
 0.27673     0.27517     0.27216     0.26787     0.26257     0.25652     0.25004     0.24344     0.23706     0.23126    
 0.22632     0.22242     0.21971     0.21831     0.21828     0.21963     0.22232     0.22628     0.23131     0.23716    
 0.24351     0.25006     0.25651     0.26254     0.26784     0.27214     0.27517     0.27674     0.31897     0.31800    
 0.31517     0.31061     0.30455     0.29734     0.28938     0.28101     0.27262     0.26472     0.25776     0.25206    
 0.24783     0.24523     0.24438     0.24526     0.24783     0.25204     0.25778     0.26477     0.27262     0.28096    
 0.28937     0.29738     0.30455     0.31056     0.31514     0.31801     0.31800     0.31798     0.31584     0.31169    
 0.30570     0.29821     0.28970     0.28060     0.27130     0.26226     0.25399     0.24694     0.24139     0.23759    
 0.23569     0.23576     0.23770     0.24146     0.24696     0.25399     0.26219     0.27118     0.28054     0.28975    
 0.29829     0.30570     0.31166     0.31585     0.31518     0.31634     0.31513     0.31167     0.30611     0.29869    
 0.28990     0.28025     0.27023     0.26029     0.25094     0.24267     0.23583     0.23072     0.22759     0.22658    
 0.22768     0.23080     0.23584     0.24265     0.25091     0.26021     0.27015     0.28027     0.28998     0.29873    
 0.30609     0.31169     0.31063     0.31315     0.31311     0.31058     0.30573     0.29875     0.29002     0.28010    
 0.26955     0.25887     0.24859     0.23926     0.23128     0.22495     0.22054     0.21830     0.21831     0.22054    
 0.22488     0.23122     0.23929     0.24865     0.25888     0.26956     0.28015     0.29004     0.29870     0.30570    
 0.30455     0.30853     0.30985     0.30847     0.30455     0.29829     0.29000     0.28017     0.26939     0.25820    
 0.24715     0.23685     0.22781     0.22036     0.21475     0.21126     0.21009     0.21125     0.21465     0.22023    
 0.22781     0.23698     0.24726     0.25822     0.26939     0.28017     0.28994     0.29821     0.29730     0.30271    
 0.30549     0.30545     0.30267     0.29734     0.28974     0.28030     0.26964     0.25829     0.24678     0.23569    
 0.22565     0.21711     0.21037     0.20567     0.20329     0.20332     0.20568     0.21029     0.21707     0.22572    
 0.23578     0.24676     0.25823     0.26963     0.28031     0.28968     0.28930     0.29603     0.30026     0.30167    
 0.30020     0.29602     0.28933     0.28051     0.27017     0.25895     0.24733     0.23580     0.22500     0.21549    
 0.20765     0.20175     0.19811     0.19695     0.19823     0.20181     0.20763     0.21550     0.22503     0.23573    
 0.24719     0.25892     0.27026     0.28056     0.28094     0.28882     0.29443     0.29730     0.29725     0.29439    
 0.28887     0.28094     0.27114     0.26017     0.24864     0.23700     0.22576     0.21554     0.20679     0.19980    
 0.19490     0.19244     0.19253     0.19504     0.19982     0.20676     0.21556     0.22574     0.23687     0.24856    
 0.26027     0.27127     0.27262     0.28145     0.28826     0.29254     0.29394     0.29247     0.28829     0.28156    
 0.27262     0.26213     0.25082     0.23923     0.22781     0.21713     0.20771     0.19988     0.19390     0.19016    
 0.18895     0.19025     0.19390     0.19979     0.20770     0.21720     0.22781     0.23917     0.25087     0.26226    
 0.26480     0.27430     0.28208     0.28762     0.29044     0.29037     0.28755     0.28218     0.27444     0.26480    
 0.25397     0.24261     0.23118     0.22022     0.21031     0.20185     0.19506     0.19024     0.18778     0.18781    
 0.19023     0.19491     0.20175     0.21040     0.22035     0.23119     0.24259     0.25402     0.25787     0.26778    
 0.27624     0.28279     0.28692     0.28824     0.28678     0.28276     0.27634     0.26784     0.25785     0.24702    
 0.23586     0.22486     0.21460     0.20562     0.19819     0.19254     0.18900     0.18785     0.18905     0.19248    
 0.19806     0.20563     0.21475     0.22491     0.23579     0.24698     0.25214     0.26221     0.27107     0.27833    
 0.28353     0.28618     0.28609     0.28341     0.27833     0.27109     0.26213     0.25210     0.24153     0.23083    
 0.22052     0.21119     0.20325     0.19691     0.19247     0.19024     0.19032     0.19257     0.19688     0.20321    
 0.21126     0.22057     0.23073     0.24142     0.24783     0.25778     0.26681     0.27448     0.28043     0.28420    
 0.28543     0.28412     0.28043     0.27453     0.26673     0.25763     0.24783     0.23773     0.22771     0.21833    
 0.21009     0.20328     0.19810     0.19490     0.19390     0.19505     0.19818     0.20324     0.21009     0.21838    
 0.22764     0.23758     0.24516     0.25469     0.26362     0.27144     0.27783     0.28240     0.28475     0.28472    
 0.28242     0.27796     0.27151     0.26350     0.25457     0.24520     0.23574     0.22662     0.21836     0.21132    
 0.20569     0.20172     0.19972     0.19981     0.20182     0.20564     0.21125     0.21839     0.22665     0.23566    
 0.24428     0.25309     0.26164     0.26937     0.27591     0.28097     0.28415     0.28518     0.28409     0.28104    
 0.27608     0.26941     0.26155     0.25307     0.24433     0.23567     0.22761     0.22059     0.21480     0.21038    
 0.20761     0.20673     0.20768     0.21032     0.21465     0.22057     0.22773     0.23572     0.24519     0.25308    
 0.26097     0.26832     0.27474     0.28000     0.28375     0.28562     0.28552     0.28363     0.28006     0.27485    
 0.26831     0.26093     0.25314     0.24521     0.23755     0.23069     0.22493     0.22036     0.21714     0.21552    
 0.21557     0.21715     0.22023     0.22484     0.23080     0.23769     0.24783     0.25461     0.26161     0.26834    
 0.27437     0.27948     0.28349     0.28601     0.28675     0.28580     0.28338     0.27953     0.27437     0.26826    
 0.26165     0.25476     0.24783     0.24135     0.23577     0.23123     0.22781     0.22570     0.22507     0.22581    
 0.22781     0.23113     0.23579     0.24149     0.25212     0.25767     0.26354     0.26941     0.27480     0.27946    
 0.28331     0.28615     0.28757     0.28746     0.28602     0.28336     0.27951     0.27469     0.26932     0.26366    
 0.25782     0.25208     0.24692     0.24263     0.23923     0.23685     0.23571     0.23582     0.23699     0.23920    
 0.24257     0.24700     0.25789     0.26216     0.26672     0.27148     0.27603     0.28000     0.28334     0.28602    
 0.28777     0.28831     0.28770     0.28611     0.28352     0.27998     0.27584     0.27144     0.26687     0.26220    
 0.25780     0.25404     0.25096     0.24858     0.24712     0.24674     0.24729     0.24862     0.25084     0.25402    
 0.26485     0.26785     0.27106     0.27448     0.27794     0.28106     0.28367     0.28583     0.28745     0.28826    
 0.28821     0.28746     0.28602     0.28380     0.28094     0.27780     0.27453     0.27112     0.26775     0.26477    
 0.26232     0.26032     0.25885     0.25816     0.25825     0.25893     0.26019     0.26219     0.27262     0.27442    
 0.27630     0.27830     0.28043     0.28247     0.28419     0.28560     0.28675     0.28747     0.28763     0.28735    
 0.28675     0.28573     0.28420     0.28236     0.28043     0.27839     0.27625     0.27425     0.27262     0.27132    
 0.27024     0.26955     0.26939     0.26964     0.27019     0.27115     0.28090     0.28151     0.28215     0.28275    
 0.28343     0.28415     0.28476     0.28522     0.28565     0.28600     0.28610     0.28598     0.28581     0.28562    
 0.28526     0.28471     0.28414     0.28355     0.28283     0.28204     0.28140     0.28096     0.28059     0.28027    
 0.28015     0.28021     0.28032     0.28050     0.28929     0.28883     0.28828     0.28759     0.28683     0.28611    
 0.28539     0.28468     0.28410     0.28376     0.28356     0.28340     0.28341     0.28368     0.28414     0.28468    
 0.28535     0.28616     0.28696     0.28762     0.28821     0.28881     0.28934     0.28969     0.28992     0.29005    
 0.29002     0.28973     0.29734     0.29603     0.29442     0.29252     0.29041     0.28826     0.28615     0.28411    
 0.28231     0.28092     0.28004     0.27958     0.27956     0.28004     0.28101     0.28237     0.28407     0.28607    
 0.28828     0.29047     0.29252     0.29441     0.29606     0.29734     0.29820     0.29868     0.29873     0.29828    
 0.30455     0.30270     0.30024     0.29728     0.29394     0.29043     0.28691     0.28353     0.28043     0.27782    
 0.27589     0.27474     0.27437     0.27480     0.27601     0.27792     0.28043     0.28344     0.28682     0.29040    
 0.29394     0.29729     0.30027     0.30274     0.30455     0.30567     0.30607     0.30570     0.31058     0.30848    
 0.30547     0.30167     0.29726     0.29248     0.28759     0.28283     0.27843     0.27457     0.27148     0.26932    
 0.26823     0.26825     0.26936     0.27151     0.27457     0.27840     0.28279     0.28756     0.29245     0.29724    
 0.30167     0.30549     0.30852     0.31061     0.31167     0.31166     0.31515     0.31311     0.30984     0.30547    
 0.30023     0.29438     0.28822     0.28207     0.27629     0.27115     0.26688     0.26363     0.26159     0.26089    
 0.26156     0.26355     0.26679     0.27114     0.27635     0.28214     0.28824     0.29437     0.30021     0.30545    
 0.30983     0.31314     0.31519     0.31587     0.31801     0.31635     0.31313     0.30851     0.30270     0.29605    
 0.28885     0.28145     0.27427     0.26774     0.26218     0.25778     0.25471     0.25313     0.25311     0.25464    
 0.25767     0.26212     0.26781     0.27439     0.28151     0.28886     0.29605     0.30269     0.30846     0.31310    
 0.31636     0.31803     0.39333     0.39209     0.38849     0.38265     0.37482     0.36546     0.35510     0.34421    
 0.33332     0.32310     0.31415     0.30686     0.30146     0.29815     0.29707     0.29820     0.30146     0.30682    
 0.31418     0.32317     0.33332     0.34414     0.35509     0.36552     0.37482     0.38257     0.38845     0.39211    
 0.39209     0.39207     0.38927     0.38384     0.37594     0.36601     0.35466     0.34248     0.33002     0.31794    
 0.30694     0.29760     0.29029     0.28528     0.28279     0.28286     0.28540     0.29034     0.29761     0.30695    
 0.31788     0.32989     0.34240     0.35472     0.36610     0.37593     0.38380     0.38929     0.38850     0.39004    
 0.38843     0.38381     0.37634     0.36633     0.35438     0.34121     0.32748     0.31386     0.30107     0.28981    
 0.28056     0.27367     0.26946     0.26811     0.26957     0.27375     0.28055     0.28979     0.30106     0.31378    
 0.32739     0.34123     0.35448     0.36637     0.37631     0.38384     0.38267     0.38609     0.38603     0.38260    
 0.37596     0.36639     0.35436     0.34061     0.32590     0.31099     0.29665     0.28366     0.27260     0.26388    