C                                       
   1.00000000000000     
     2.468570    0.000000    0.000000
    -1.234285    2.137844    0.000000
     0.000000    0.000000    8.840790
   C 
     4
Direct
  0.000000  0.000000  0.250000
  0.000000  0.000000  0.750000
  0.333333  0.666667  0.250000
  0.666667  0.333333  0.750000
 
   28   28  100
 0.26408629560E+00 0.26326910586E+00 0.26087346767E+00 0.25706129719E+00 0.25207866242E+00
 0.24621836242E+00 0.23978620326E+00 0.23309258073E+00 0.22646329285E+00 0.22023838814E+00
 0.21474104174E+00 0.21023544256E+00 0.20690625994E+00 0.20486755647E+00 0.20418131538E+00
 0.20486755647E+00 0.20690625994E+00 0.21023544256E+00 0.21474104174E+00 0.22023838814E+00
 0.22646329285E+00 0.23309258073E+00 0.23978620326E+00 0.24621836242E+00 0.25207866242E+00
 0.25706129719E+00 0.26087346767E+00 0.26326910586E+00 0.26327236223E+00 0.26327086162E+00
 0.26166593493E+00 0.25856202756E+00 0.25415558552E+00 0.24872549974E+00 0.24259469260E+00
 0.23607935391E+00 0.22947619213E+00 0.22308806877E+00 0.21723266741E+00 0.21220952130E+00
 0.20826161461E+00 0.20556229481E+00 0.20421526797E+00 0.20425452815E+00 0.20565458367E+00
 0.20835059161E+00 0.21224542411E+00 0.21719599984E+00 0.22299859994E+00 0.22938727210E+00
 0.23604331025E+00 0.24261796170E+00 0.24876775313E+00 0.25417930798E+00 0.25856660521E+00
 0.26166730463E+00 0.26088507036E+00 0.26166919130E+00 0.26087932900E+00 0.25857628673E+00
 0.25489339129E+00 0.25004847089E+00 0.24434936762E+00 0.23813756653E+00 0.23172525288E+00
 0.22539717764E+00 0.21944087323E+00 0.21413755490E+00 0.20973276133E+00 0.20643297795E+00
 0.20440512563E+00 0.20374695552E+00 0.20446674466E+00 0.20650814865E+00 0.20977812465E+00
 0.21413815877E+00 0.21939547773E+00 0.22532450709E+00 0.23167587276E+00 0.23815049369E+00
 0.24439879319E+00 0.25007641278E+00 0.25488757970E+00 0.25856986158E+00 0.25707728037E+00
 0.25857475437E+00 0.25856030355E+00 0.25706908725E+00 0.25419974466E+00 0.25009632980E+00
 0.24499926588E+00 0.23923587128E+00 0.23313427887E+00 0.22698665720E+00 0.22108345154E+00
 0.21570935861E+00 0.21109150659E+00 0.20740334139E+00 0.20481662871E+00 0.20348746470E+00
 0.20348636334E+00 0.20479329832E+00 0.20735135853E+00 0.21106241801E+00 0.21573904044E+00
 0.22113231973E+00 0.22701053565E+00 0.23315117146E+00 0.23926562049E+00 0.24500715493E+00
 0.25006042960E+00 0.25416658117E+00 0.25207866242E+00 0.25419022611E+00 0.25488178859E+00
 0.25414586453E+00 0.25207855127E+00 0.24878600597E+00 0.24443082930E+00 0.23929053608E+00
 0.23367991571E+00 0.22786815574E+00 0.22212795642E+00 0.21677831744E+00 0.21209237576E+00
 0.20822476118E+00 0.20529360632E+00 0.20345564733E+00 0.20282888818E+00 0.20341834847E+00
 0.20518659673E+00 0.20811108176E+00 0.21209242107E+00 0.21688830305E+00 0.22222275096E+00
 0.22789000915E+00 0.23367985765E+00 0.23928753426E+00 0.24438719050E+00 0.24872659980E+00
 0.24617854185E+00 0.24876857669E+00 0.25008829147E+00 0.25004052604E+00 0.24870828844E+00
 0.24619855260E+00 0.24261636634E+00 0.23818326328E+00 0.23321191233E+00 0.22794874813E+00
 0.22258225146E+00 0.21739128539E+00 0.21271624539E+00 0.20877502150E+00 0.20565476905E+00
 0.20347256569E+00 0.20237859539E+00 0.20240468626E+00 0.20347652185E+00 0.20557516946E+00
 0.20871831149E+00 0.21277616405E+00 0.21747024717E+00 0.22256232295E+00 0.22788808553E+00
 0.23320697522E+00 0.23819031427E+00 0.24257488476E+00 0.23971065699E+00 0.24259794897E+00
 0.24443651659E+00 0.24501524906E+00 0.24435528302E+00 0.24257654576E+00 0.23974848004E+00
 0.23601205849E+00 0.23168154735E+00 0.22705827227E+00 0.22227972310E+00 0.21748963216E+00
 0.21299433252E+00 0.20909297613E+00 0.20590095291E+00 0.20348563280E+00 0.20201217073E+00
 0.20159269833E+00 0.20214474891E+00 0.20356148507E+00 0.20587542207E+00 0.20909604757E+00
 0.21303199802E+00 0.21743042659E+00 0.22214720469E+00 0.22702651883E+00 0.23176302172E+00
 0.23604656662E+00 0.23302695844E+00 0.23601047526E+00 0.23820318881E+00 0.23931747675E+00
 0.23926281075E+00 0.23815746157E+00 0.23607768078E+00 0.23305971398E+00 0.22933605510E+00
 0.22528469507E+00 0.22112436054E+00 0.21690856214E+00 0.21280919634E+00 0.20913196701E+00
 0.20604677564E+00 0.20356970538E+00 0.20181260501E+00 0.20097594147E+00 0.20108075891E+00
 0.20197100231E+00 0.20359281165E+00 0.20601395327E+00 0.20916166986E+00 0.21280196576E+00
 0.21678478381E+00 0.22105071426E+00 0.22539012937E+00 0.22945615075E+00 0.22646329285E+00
 0.22936729663E+00 0.23171365019E+00 0.23322393482E+00 0.23367991571E+00 0.23314609377E+00
 0.23175709362E+00 0.22950731651E+00 0.22646335349E+00 0.22295727276E+00 0.21933281410E+00
 0.21569183288E+00 0.21209230855E+00 0.20877403468E+00 0.20596313233E+00 0.20366160305E+00
 0.20185285711E+00 0.20071227660E+00 0.20039539812E+00 0.20081722013E+00 0.20185276813E+00
 0.20355279480E+00 0.20595096834E+00 0.20886377120E+00 0.21209242107E+00 0.21561741812E+00
 0.21938387504E+00 0.22310098271E+00 0.22031804865E+00 0.22301166464E+00 0.22531751714E+00
 0.22705033453E+00 0.22790991929E+00 0.22782926705E+00 0.22697861176E+00 0.22542997786E+00
 0.22314257240E+00 0.22027829976E+00 0.21719441870E+00 0.21409895190E+00 0.21101740883E+00
 0.20809405272E+00 0.20559504674E+00 0.20359740699E+00 0.20199116779E+00 0.20080362976E+00
 0.20021549135E+00 0.20025530625E+00 0.20079124150E+00 0.20182571952E+00 0.20348182457E+00
 0.20569465054E+00 0.20822863923E+00 0.21099874069E+00 0.21405849826E+00 0.21727240397E+00
 0.21485495356E+00 0.21723592378E+00 0.21933856411E+00 0.22109943472E+00 0.22224186824E+00
 0.22254243088E+00 0.22209026500E+00 0.22105873826E+00 0.21944672591E+00 0.21727407920E+00
 0.21479788861E+00 0.21228616858E+00 0.20978394333E+00 0.20732352155E+00 0.20513672066E+00
 0.20342070921E+00 0.20210692965E+00 0.20108707748E+00 0.20045231171E+00 0.20029515185E+00
 0.20050930993E+00 0.20101513663E+00 0.20195529082E+00 0.20343670127E+00 0.20530050855E+00
 0.20736734171E+00 0.20967581553E+00 0.21224868048E+00 0.21031383448E+00 0.21228465685E+00
 0.21405916298E+00 0.21564694987E+00 0.21689460632E+00 0.21750949789E+00 0.21741124023E+00
 0.21676454794E+00 0.21566458567E+00 0.21409768332E+00 0.21220777665E+00 0.21027453101E+00
 0.20840515074E+00 0.20654414881E+00 0.20478541912E+00 0.20336354794E+00 0.20233182007E+00
 0.20155344153E+00 0.20100868556E+00 0.20080489834E+00 0.20089630766E+00 0.20111995568E+00
 0.20151430640E+00 0.20228647376E+00 0.20345884344E+00 0.20485570706E+00 0.20642975673E+00
 0.20827545606E+00 0.20690625994E+00 0.20836426201E+00 0.20972115864E+00 0.21096961963E+00
 0.21209237576E+00 0.21286196974E+00 0.21306987879E+00 0.21276891486E+00 0.21209230855E+00
 0.21104365209E+00 0.20967003151E+00 0.20822085504E+00 0.20690630646E+00 0.20568886988E+00
 0.20451085723E+00 0.20351424546E+00 0.20282887589E+00 0.20235933191E+00 0.20199301783E+00
 0.20180560351E+00 0.20185285711E+00 0.20198413106E+00 0.20208771700E+00 0.20231251220E+00
 0.20282888818E+00 0.20357628393E+00 0.20445514197E+00 0.20554542353E+00 0.20479570735E+00
 0.20563740030E+00 0.20650482707E+00 0.20731550909E+00 0.20811501511E+00 0.20880705004E+00
 0.20916482525E+00 0.20912574018E+00 0.20880782469E+00 0.20824556235E+00 0.20739537067E+00
 0.20639390777E+00 0.20551111699E+00 0.20483168716E+00 0.20425282222E+00 0.20378273205E+00
 0.20354830011E+00 0.20351378898E+00 0.20349255833E+00 0.20344589737E+00 0.20348411480E+00
 0.20357593221E+00 0.20355748191E+00 0.20344053715E+00 0.20342169517E+00 0.20357529700E+00
 0.20381880464E+00 0.20417942266E+00 0.20408137891E+00 0.20421852434E+00 0.20451666479E+00
 0.20483261190E+00 0.20519366984E+00 0.20561494847E+00 0.20592534311E+00 0.20598115336E+00
 0.20586319585E+00 0.20567470725E+00 0.20535056895E+00 0.20486381105E+00 0.20441092075E+00
 0.20418097310E+00 0.20413135341E+00 0.20418097310E+00 0.20441092075E+00 0.20486381105E+00
 0.20535056895E+00 0.20567470725E+00 0.20586319585E+00 0.20598115336E+00 0.20592534311E+00
 0.20561494847E+00 0.20519366984E+00 0.20483261190E+00 0.20451666479E+00 0.20421852434E+00
 0.20479570735E+00 0.20417942266E+00 0.20381880464E+00 0.20357529700E+00 0.20342169517E+00
 0.20344053715E+00 0.20355748191E+00 0.20357593221E+00 0.20348411480E+00 0.20344589737E+00
 0.20349255833E+00 0.20351378898E+00 0.20354830011E+00 0.20378273205E+00 0.20425282222E+00
 0.20483168716E+00 0.20551111699E+00 0.20639390777E+00 0.20739537067E+00 0.20824556235E+00
 0.20880782469E+00 0.20912574018E+00 0.20916482525E+00 0.20880705004E+00 0.20811501511E+00
 0.20731550909E+00 0.20650482707E+00 0.20563740030E+00 0.20690625994E+00 0.20554542353E+00
 0.20445514197E+00 0.20357628393E+00 0.20282888818E+00 0.20231251220E+00 0.20208771700E+00
 0.20198413106E+00 0.20185285711E+00 0.20180560351E+00 0.20199301783E+00 0.20235933191E+00
 0.20282887589E+00 0.20351424546E+00 0.20451085723E+00 0.20568886988E+00 0.20690630646E+00
 0.20822085504E+00 0.20967003151E+00 0.21104365209E+00 0.21209230855E+00 0.21276891486E+00
 0.21306987879E+00 0.21286196974E+00 0.21209237576E+00 0.21096961963E+00 0.20972115864E+00
 0.20836426201E+00 0.21031383448E+00 0.20827545606E+00 0.20642975673E+00 0.20485570706E+00
 0.20345884344E+00 0.20228647376E+00 0.20151430640E+00 0.20111995568E+00 0.20089630766E+00
 0.20080489834E+00 0.20100868556E+00 0.20155344153E+00 0.20233182007E+00 0.20336354794E+00
 0.20478541912E+00 0.20654414881E+00 0.20840515074E+00 0.21027453101E+00 0.21220777665E+00
 0.21409768332E+00 0.21566458567E+00 0.21676454794E+00 0.21741124023E+00 0.21750949789E+00
 0.21689460632E+00 0.21564694987E+00 0.21405916298E+00 0.21228465685E+00 0.21485495356E+00
 0.21224868048E+00 0.20967581553E+00 0.20736734171E+00 0.20530050855E+00 0.20343670127E+00
 0.20195529082E+00 0.20101513663E+00 0.20050930993E+00 0.20029515185E+00 0.20045231171E+00
 0.20108707748E+00 0.20210692965E+00 0.20342070921E+00 0.20513672066E+00 0.20732352155E+00
 0.20978394333E+00 0.21228616858E+00 0.21479788861E+00 0.21727407920E+00 0.21944672591E+00
 0.22105873826E+00 0.22209026500E+00 0.22254243088E+00 0.22224186824E+00 0.22109943472E+00
 0.21933856411E+00 0.21723592378E+00 0.22031804865E+00 0.21727240397E+00 0.21405849826E+00
 0.21099874069E+00 0.20822863923E+00 0.20569465054E+00 0.20348182457E+00 0.20182571952E+00
 0.20079124150E+00 0.20025530625E+00 0.20021549135E+00 0.20080362976E+00 0.20199116779E+00
 0.20359740699E+00 0.20559504674E+00 0.20809405272E+00 0.21101740883E+00 0.21409895190E+00
 0.21719441870E+00 0.22027829976E+00 0.22314257240E+00 0.22542997786E+00 0.22697861176E+00
 0.22782926705E+00 0.22790991929E+00 0.22705033453E+00 0.22531751714E+00 0.22301166464E+00
 0.22646329285E+00 0.22310098271E+00 0.21938387504E+00 0.21561741812E+00 0.21209242107E+00
 0.20886377120E+00 0.20595096834E+00 0.20355279480E+00 0.20185276813E+00 0.20081722013E+00
 0.20039539812E+00 0.20071227660E+00 0.20185285711E+00 0.20366160305E+00 0.20596313233E+00
 0.20877403468E+00 0.21209230855E+00 0.21569183288E+00 0.21933281410E+00 0.22295727276E+00
 0.22646335349E+00 0.22950731651E+00 0.23175709362E+00 0.23314609377E+00 0.23367991571E+00
 0.23322393482E+00 0.23171365019E+00 0.22936729663E+00 0.23302695844E+00 0.22945615075E+00
 0.22539012937E+00 0.22105071426E+00 0.21678478381E+00 0.21280196576E+00 0.20916166986E+00
 0.20601395327E+00 0.20359281165E+00 0.20197100231E+00 0.20108075891E+00 0.20097594147E+00
 0.20181260501E+00 0.20356970538E+00 0.20604677564E+00 0.20913196701E+00 0.21280919634E+00
 0.21690856214E+00 0.22112436054E+00 0.22528469507E+00 0.22933605510E+00 0.23305971398E+00
 0.23607768078E+00 0.23815746157E+00 0.23926281075E+00 0.23931747675E+00 0.23820318881E+00
 0.23601047526E+00 0.23971065699E+00 0.23604656662E+00 0.23176302172E+00 0.22702651883E+00
 0.22214720469E+00 0.21743042659E+00 0.21303199802E+00 0.20909604757E+00 0.20587542207E+00
 0.20356148507E+00 0.20214474891E+00 0.20159269833E+00 0.20201217073E+00 0.20348563280E+00
 0.20590095291E+00 0.20909297613E+00 0.21299433252E+00 0.21748963216E+00 0.22227972310E+00
 0.22705827227E+00 0.23168154735E+00 0.23601205849E+00 0.23974848004E+00 0.24257654576E+00
 0.24435528302E+00 0.24501524906E+00 0.24443651659E+00 0.24259794897E+00 0.24617854185E+00
 0.24257488476E+00 0.23819031427E+00 0.23320697522E+00 0.22788808553E+00 0.22256232295E+00
 0.21747024717E+00 0.21277616405E+00 0.20871831149E+00 0.20557516946E+00 0.20347652185E+00
 0.20240468626E+00 0.20237859539E+00 0.20347256569E+00 0.20565476905E+00 0.20877502150E+00
 0.21271624539E+00 0.21739128539E+00 0.22258225146E+00 0.22794874813E+00 0.23321191233E+00
 0.23818326328E+00 0.24261636634E+00 0.24619855260E+00 0.24870828844E+00 0.25004052604E+00
 0.25008829147E+00 0.24876857669E+00 0.25207866242E+00 0.24872659980E+00 0.24438719050E+00
 0.23928753426E+00 0.23367985765E+00 0.22789000915E+00 0.22222275096E+00 0.21688830305E+00
 0.21209242107E+00 0.20811108176E+00 0.20518659673E+00 0.20341834847E+00 0.20282888818E+00
 0.20345564733E+00 0.20529360632E+00 0.20822476118E+00 0.21209237576E+00 0.21677831744E+00
 0.22212795642E+00 0.22786815574E+00 0.23367991571E+00 0.23929053608E+00 0.24443082930E+00
 0.24878600597E+00 0.25207855127E+00 0.25414586453E+00 0.25488178859E+00 0.25419022611E+00
 0.25707728037E+00 0.25416658117E+00 0.25006042960E+00 0.24500715493E+00 0.23926562049E+00
 0.23315117146E+00 0.22701053565E+00 0.22113231973E+00 0.21573904044E+00 0.21106241801E+00
 0.20735135853E+00 0.20479329832E+00 0.20348636334E+00 0.20348746470E+00 0.20481662871E+00
 0.20740334139E+00 0.21109150659E+00 0.21570935861E+00 0.22108345154E+00 0.22698665720E+00
 0.23313427887E+00 0.23923587128E+00 0.24499926588E+00 0.25009632980E+00 0.25419974466E+00
 0.25706908725E+00 0.25856030355E+00 0.25857475437E+00 0.26088507036E+00 0.25856986158E+00
 0.25488757970E+00 0.25007641278E+00 0.24439879319E+00 0.23815049369E+00 0.23167587276E+00
 0.22532450709E+00 0.21939547773E+00 0.21413815877E+00 0.20977812465E+00 0.20650814865E+00
 0.20446674466E+00 0.20374695552E+00 0.20440512563E+00 0.20643297795E+00 0.20973276133E+00
 0.21413755490E+00 0.21944087323E+00 0.22539717764E+00 0.23172525288E+00 0.23813756653E+00
 0.24434936762E+00 0.25004847089E+00 0.25489339129E+00 0.25857628673E+00 0.26087932900E+00
 0.26166919130E+00 0.26327236223E+00 0.26166730463E+00 0.25856660521E+00 0.25417930798E+00
 0.24876775313E+00 0.24261796170E+00 0.23604331025E+00 0.22938727210E+00 0.22299859994E+00
 0.21719599984E+00 0.21224542411E+00 0.20835059161E+00 0.20565458367E+00 0.20425452815E+00
 0.20421526797E+00 0.20556229481E+00 0.20826161461E+00 0.21220952130E+00 0.21723266741E+00
 0.22308806877E+00 0.22947619213E+00 0.23607935391E+00 0.24259469260E+00 0.24872549974E+00
 0.25415558552E+00 0.25856202756E+00 0.26166593493E+00 0.26327086162E+00 0.27758094493E+00
 0.27672137631E+00 0.27421846507E+00 0.27021962417E+00 0.26496285762E+00 0.25877050609E+00
 0.25197750339E+00 0.24488976022E+00 0.23783471785E+00 0.23119654759E+00 0.22534476815E+00
 0.22054931402E+00 0.21699116815E+00 0.21480835339E+00 0.21408394394E+00 0.21482362202E+00
 0.21699119386E+00 0.22053792155E+00 0.22535498619E+00 0.23122153122E+00 0.23783474160E+00
 0.24486750818E+00 0.25197468571E+00 0.25878930462E+00 0.26496281915E+00 0.27019428705E+00
 0.27420401854E+00 0.27672715772E+00 0.27672464663E+00 0.27671406370E+00 0.27491248171E+00
 0.27143090581E+00 0.26646186137E+00 0.26031759943E+00 0.25338627642E+00 0.24602684688E+00
 0.23855352660E+00 0.23131057723E+00 0.22468219147E+00 0.21900877250E+00 0.21454234353E+00
 0.21147698059E+00 0.20995019897E+00 0.21000019535E+00 0.21157925960E+00 0.21461968771E+00
 0.21903600345E+00 0.22466103710E+00 0.23123372798E+00 0.23845028242E+00 0.24597652843E+00
 0.25342205864E+00 0.26037439209E+00 0.26647433054E+00 0.27141980755E+00 0.27491990792E+00
 0.27423008928E+00 0.27516411635E+00 0.27420265299E+00 0.27143163201E+00 0.26699647683E+00
 0.26114463895E+00 0.25425907977E+00 0.24676624459E+00 0.23903456879E+00 0.23139882210E+00
 0.22421876766E+00 0.21784351620E+00 0.21255334563E+00 0.20858147230E+00 0.20613793191E+00
 0.20534974503E+00 0.20621408833E+00 0.20865484496E+00 0.21257924459E+00 0.21783734294E+00
 0.22418260536E+00 0.23132462505E+00 0.23897203118E+00 0.24678092585E+00 0.25432447940E+00
 0.26117590154E+00 0.26698345028E+00 0.27143498415E+00 0.27023561616E+00 0.27216938477E+00
 0.27214136269E+00 0.27020719944E+00 0.26649762867E+00 0.26119524932E+00 0.25461336245E+00
 0.24718290335E+00 0.23932767867E+00 0.23141663406E+00 0.22382089330E+00 0.21690933939E+00
 0.21097111651E+00 0.20622315401E+00 0.20289020779E+00 0.20118323049E+00 0.20119182649E+00
 0.20287765097E+00 0.20616224226E+00 0.21092741655E+00 0.21693901534E+00 0.22387517811E+00
 0.23143656495E+00 0.23934092211E+00 0.24721948514E+00 0.25462513226E+00 0.26115226012E+00
 0.26646586572E+00 0.26496281915E+00 0.26789244265E+00 0.26885805286E+00 0.26783955922E+00
 0.26496274746E+00 0.26038616923E+00 0.25435076922E+00 0.24724294144E+00 0.23949654838E+00
 0.23148797531E+00 0.22358814616E+00 0.21621266942E+00 0.20971956513E+00 0.20433163032E+00
 0.20023568483E+00 0.19766478541E+00 0.19679374139E+00 0.19763814027E+00 0.20013359749E+00
 0.20421380941E+00 0.20971959340E+00 0.21633006329E+00 0.22368686443E+00 0.23150777825E+00
 0.23949648485E+00 0.24724014494E+00 0.25429840865E+00 0.26031491427E+00 0.25873057546E+00
 0.26257124008E+00 0.26454211943E+00 0.26449691519E+00 0.26251878311E+00 0.25876117433E+00
 0.25341453013E+00 0.24681609228E+00 0.23941013801E+00 0.23157342500E+00 0.22361413176E+00
 0.21591999256E+00 0.20893082779E+00 0.20295719914E+00 0.19818012328E+00 0.19481587911E+00
 0.19310484429E+00 0.19313224452E+00 0.19482218362E+00 0.19810284099E+00 0.20290496375E+00
 0.20899757265E+00 0.21600342377E+00 0.22359362829E+00 0.23151103800E+00 0.23940560501E+00
 0.24682196733E+00 0.25336584056E+00 0.25190180496E+00 0.25650452642E+00 0.25942220490E+00
 0.26037441279E+00 0.25935080325E+00 0.25648955916E+00 0.25193546072E+00 0.24594888312E+00
 0.23898494481E+00 0.23149185484E+00 0.22374906788E+00 0.21602543461E+00 0.20873410075E+00
 0.20227897908E+00 0.19689446400E+00 0.19277799541E+00 0.19021749784E+00 0.18941920154E+00
 0.19034239231E+00 0.19284911430E+00 0.19687169779E+00 0.20228557644E+00 0.20877042583E+00
 0.21596238230E+00 0.22361398369E+00 0.23146020637E+00 0.23907098268E+00 0.24599170503E+00
 0.24482403188E+00 0.25001238581E+00 0.25375088632E+00 0.25566542384E+00 0.25561587891E+00
 0.25370906780E+00 0.25006915890E+00 0.24484110645E+00 0.23840037642E+00 0.23128108743E+00
 0.22386341880E+00 0.21635038766E+00 0.20903339353E+00 0.20232277240E+00 0.19651534167E+00
 0.19178550946E+00 0.18840619905E+00 0.18671152268E+00 0.18680881008E+00 0.18855340746E+00
 0.19180752723E+00 0.19648478847E+00 0.20234674043E+00 0.20901769517E+00 0.21622459807E+00
 0.22379037269E+00 0.23138578905E+00 0.23852662301E+00 0.23783474160E+00 0.24342330734E+00
 0.24780612711E+00 0.25058582442E+00 0.25147721148E+00 0.25051254129E+00 0.24784389114E+00
 0.24355090956E+00 0.23783479235E+00 0.23118269518E+00 0.22410747700E+00 0.21688476866E+00
 0.20971949186E+00 0.20296258335E+00 0.19695815201E+00 0.19187291971E+00 0.18788411970E+00
 0.18534360918E+00 0.18453723669E+00 0.18544020067E+00 0.18788403362E+00 0.19177189850E+00
 0.19694457853E+00 0.20304279794E+00 0.20971959340E+00 0.21681858121E+00 0.22415653461E+00
 0.23131534410E+00 0.23127636612E+00 0.23707923348E+00 0.24189700048E+00 0.24538743773E+00
 0.24715442761E+00 0.24707834058E+00 0.24531910837E+00 0.24200473286E+00 0.23721361324E+00
 0.23125631909E+00 0.22465347010E+00 0.21779487582E+00 0.21088282943E+00 0.20419868254E+00
 0.19812335251E+00 0.19288391771E+00 0.18857265323E+00 0.18542796332E+00 0.18380448355E+00
 0.18384073291E+00 0.18541593055E+00 0.18841972087E+00 0.19277659171E+00 0.19821640506E+00
 0.20433063323E+00 0.21087853538E+00 0.21776482035E+00 0.22471838309E+00 0.22545888976E+00
 0.23130442079E+00 0.23634462644E+00 0.24033549154E+00 0.24287181911E+00 0.24365241093E+00
 0.24272870817E+00 0.24029619005E+00 0.23644996878E+00 0.23135226805E+00 0.22541708881E+00
 0.21908594056E+00 0.21259227380E+00 0.20613691495E+00 0.20008363147E+00 0.19476695062E+00
 0.19030593232E+00 0.18681427962E+00 0.18458912546E+00 0.18387700614E+00 0.18464114026E+00
 0.18674764608E+00 0.19016560799E+00 0.19478114214E+00 0.20023750106E+00 0.20618588368E+00
 0.21250141177E+00 0.21905118004E+00 0.22062785929E+00 0.22635684991E+00 0.23143831645E+00
 0.23569218102E+00 0.23880979625E+00 0.24039449592E+00 0.24030287656E+00 0.23868656516E+00
 0.23570276234E+00 0.23146694008E+00 0.22628018633E+00 0.22058913445E+00 0.21468362514E+00
 0.20869214791E+00 0.20286592743E+00 0.19758126941E+00 0.19306191944E+00 0.18938300295E+00
 0.18674202957E+00 0.18542823586E+00 0.18551265194E+00 0.18684493673E+00 0.18934695148E+00
 0.19301895300E+00 0.19766608909E+00 0.20292625960E+00 0.20858259491E+00 0.21456261426E+00
 0.21699119386E+00 0.22242993843E+00 0.22740361163E+00 0.23171155299E+00 0.23515907598E+00
 0.23738601783E+00 0.23809681079E+00 0.23730220693E+00 0.23515903338E+00 0.23177174132E+00
 0.22734003904E+00 0.22228366687E+00 0.21699122720E+00 0.21160889857E+00 0.20625109283E+00
 0.20121472263E+00 0.19679369176E+00 0.19308923420E+00 0.19020202875E+00 0.18840056582E+00
 0.18788411970E+00 0.18856692785E+00 0.19029037859E+00 0.19304632096E+00 0.19679374139E+00
 0.20126774988E+00 0.20618801758E+00 0.21146451819E+00 0.21473639138E+00 0.21968939358E+00
 0.22440320454E+00 0.22860606302E+00 0.23215150919E+00 0.23477823561E+00 0.23614003491E+00
 0.23610565804E+00 0.23478551852E+00 0.23228044424E+00 0.22867984946E+00 0.22429131835E+00
 0.21956791454E+00 0.21477756739E+00 0.20999253702E+00 0.20538440017E+00 0.20124474450E+00
 0.19772306241E+00 0.19483649356E+00 0.19274185217E+00 0.19170658405E+00 0.19179388841E+00
 0.19284753836E+00 0.19478737764E+00 0.19763954368E+00 0.20127641486E+00 0.20541928798E+00
 0.20991547581E+00 0.21398380823E+00 0.21827040848E+00 0.22254950840E+00 0.22650223973E+00
 0.22996673629E+00 0.23277085424E+00 0.23458331042E+00 0.23515276244E+00 0.23452246863E+00
 0.23283381780E+00 0.23012904639E+00 0.22654044539E+00 0.22245078636E+00 0.21823753508E+00
 0.21403387873E+00 0.20992299407E+00 0.20615095712E+00 0.20293817748E+00 0.20028767075E+00
 0.19819587510E+00 0.19685801630E+00 0.19645417768E+00 0.19692171896E+00 0.19813908180E+00
 0.20013554912E+00 0.20291384921E+00 0.20626413837E+00 0.20996537557E+00 0.21475159823E+00
 0.21824188709E+00 0.22190806818E+00 0.22544762325E+00 0.22866000775E+00 0.23144283293E+00
 0.23353365376E+00 0.23457833349E+00 0.23448161317E+00 0.23341565919E+00 0.23149788740E+00
 0.22876101568E+00 0.22542525879E+00 0.22187078470E+00 0.21831197793E+00 0.21478246729E+00
 0.21143489090E+00 0.20854545500E+00 0.20621135780E+00 0.20434564799E+00 0.20298493321E+00
 0.20230949354E+00 0.20235342194E+00 0.20299060052E+00 0.20421288624E+00 0.20612506974E+00
 0.20865591515E+00 0.21156660004E+00 0.21699116815E+00 0.21960703450E+00 0.22250234097E+00
 0.22545832727E+00 0.22823286342E+00 0.23075803047E+00 0.23290818669E+00 0.23432044033E+00
 0.23470366738E+00 0.23412900511E+00 0.23280673471E+00 0.23080894065E+00 0.22823289402E+00
 0.22538703099E+00 0.22255092207E+00 0.21975012814E+00 0.21699122720E+00 0.21449870444E+00
 0.21248837023E+00 0.21092297748E+00 0.20971949186E+00 0.20898188688E+00 0.20880698150E+00
 0.20908453991E+00 0.20971956513E+00 0.21083480444E+00 0.21252727488E+00 0.21463983758E+00
 0.22061648049E+00 0.22232913359E+00 0.22432607268E+00 0.22653622240E+00 0.22870792788E+00
 0.23073317931E+00 0.23262170123E+00 0.23415724555E+00 0.23494668125E+00 0.23484791737E+00
 0.23403720116E+00 0.23266414526E+00 0.23078112417E+00 0.22860171867E+00 0.22645559123E+00
 0.22444571546E+00 0.22246808585E+00 0.22057653034E+00 0.21900108640E+00 0.21780720739E+00
 0.21687283010E+00 0.21620436950E+00 0.21594058045E+00 0.21604588820E+00 0.21634182481E+00
 0.21684812665E+00 0.21775866204E+00 0.21907845006E+00 0.22546915834E+00 0.22631205799E+00
 0.22733858447E+00 0.22864916199E+00 0.23007891503E+00 0.23144131374E+00 0.23276753753E+00
 0.23404448167E+00 0.23496986088E+00 0.23524655378E+00 0.23490767075E+00 0.23412205532E+00
 0.23293112490E+00 0.23142344455E+00 0.22990452049E+00 0.22861030651E+00 0.22746442923E+00
 0.22635243638E+00 0.22539660219E+00 0.22472599269E+00 0.22423186719E+00 0.22380225480E+00
 0.22355179695E+00 0.22357309029E+00 0.22371253635E+00 0.22384453472E+00 0.22412044822E+00
 0.22469736807E+00 0.23130136455E+00 0.23135658130E+00 0.23143081913E+00 0.23172613586E+00
 0.23226148248E+00 0.23285323431E+00 0.23345294625E+00 0.23415019689E+00 0.23483286479E+00
 0.23520297165E+00 0.23515942451E+00 0.23484564226E+00 0.23432880502E+00 0.23357723131E+00
 0.23274668853E+00 0.23212377203E+00 0.23175930578E+00 0.23148181930E+00 0.23126513878E+00
 0.23124171241E+00 0.23136661717E+00 0.23142938070E+00 0.23140472557E+00 0.23144525426E+00
 0.23153080335E+00 0.23148012191E+00 0.23131169283E+00 0.23123862456E+00 0.23783471785E+00
 0.23718154949E+00 0.23639936123E+00 0.23566248977E+00 0.23515914067E+00 0.23483974589E+00
 0.23461179368E+00 0.23455395369E+00 0.23470361026E+00 0.23486066061E+00 0.23484547069E+00
 0.23474690200E+00 0.23470366738E+00 0.23467098111E+00 0.23462260434E+00 0.23474013637E+00
 0.23515903338E+00 0.23574543738E+00 0.23634606521E+00 0.23702616556E+00 0.23783479235E+00
 0.23857646550E+00 0.23905782556E+00 0.23933625440E+00 0.23949654838E+00 0.23941896234E+00
 0.23900849804E+00 0.23842342491E+00 0.24480171989E+00 0.24349818861E+00 0.24196843995E+00
 0.24029199497E+00 0.23870692157E+00 0.23733265540E+00 0.23614040288E+00 0.23518786097E+00
 0.23459852614E+00 0.23430767880E+00 0.23411483432E+00 0.23400203874E+00 0.23413741704E+00
 0.23457424328E+00 0.23522311508E+00 0.23610484835E+00 0.23733141910E+00 0.23882916786E+00
 0.24036654270E+00 0.24186185763E+00 0.24338376421E+00 0.24485029510E+00 0.24601923576E+00
 0.24678678111E+00 0.24721689002E+00 0.24727689741E+00 0.24683659723E+00 0.24594131764E+00
 0.25189898159E+00 0.25003432724E+00 0.24784258700E+00 0.24535961639E+00 0.24278063643E+00
 0.24031954804E+00 0.23805747248E+00 0.23607005023E+00 0.23453327188E+00 0.23354007552E+00
 0.23297044952E+00 0.23270655539E+00 0.23282966489E+00 0.23345921091E+00 0.23456169652E+00
 0.23607049197E+00 0.23801828899E+00 0.24037512661E+00 0.24291113354E+00 0.24539163096E+00
 0.24776536934E+00 0.25000799491E+00 0.25194110178E+00 0.25337348865E+00 0.25427224742E+00
 0.25463700387E+00 0.25436367232E+00 0.25340145302E+00 0.25874943390E+00 0.25649388031E+00
 0.25373970629E+00 0.25056519080E+00 0.24713042046E+00 0.24367172420E+00 0.24035830793E+00
 0.23730106264E+00 0.23468606092E+00 0.23272734515E+00 0.23148007363E+00 0.23085679336E+00
 0.23083194123E+00 0.23147851589E+00 0.23280961413E+00 0.23474745256E+00 0.23724769312E+00
 0.24028348598E+00 0.24369117082E+00 0.24718962306E+00 0.25057057411E+00 0.25373147191E+00
 0.25652831905E+00 0.25875889274E+00 0.26030310812E+00 0.26113284801E+00 0.26118339883E+00
 0.26037153592E+00 0.26496285762E+00 0.26254365777E+00 0.25938860587E+00 0.25564220347E+00
 0.25147717300E+00 0.24713754027E+00 0.24285915823E+00 0.23880891428E+00 0.23515914067E+00
 0.23214271314E+00 0.22995452484E+00 0.22865471379E+00 0.22823286342E+00 0.22870281053E+00
 0.23006687200E+00 0.23225269221E+00 0.23515907598E+00 0.23870590613E+00 0.24276791554E+00
 0.24711354509E+00 0.25147721148E+00 0.25564540283E+00 0.25942368400E+00 0.26259146465E+00
 0.26496274746E+00 0.26644234717E+00 0.26697040609E+00 0.26647832485E+00 0.27021032019E+00
 0.26785747542E+00 0.26451741184E+00 0.26037012487E+00 0.25561894712E+00 0.25051804719E+00
 0.24535123267E+00 0.24037073133E+00 0.23578579857E+00 0.23180488141E+00 0.22864077827E+00
 0.22645975195E+00 0.22535404034E+00 0.22536479668E+00 0.22649385601E+00 0.22868398968E+00
 0.23181950152E+00 0.23575604735E+00 0.24032710783E+00 0.24532329886E+00 0.25049741542E+00
 0.25559587612E+00 0.26036602908E+00 0.26454634039E+00 0.26789224417E+00 0.27022245714E+00
 0.27142324829E+00 0.27142411293E+00 0.27421563882E+00 0.27214880202E+00 0.26885661678E+00
 0.26452579555E+00 0.25938577962E+00 0.25370094640E+00 0.24776689145E+00 0.24189808731E+00
 0.23639653498E+00 0.23151794840E+00 0.22746580091E+00 0.22441092684E+00 0.22249951472E+00
 0.22183362532E+00 0.22245219894E+00 0.22433366159E+00 0.22740078538E+00 0.23151056650E+00
 0.23645135626E+00 0.24196952307E+00 0.24780330086E+00 0.25368972232E+00 0.25935215040E+00
 0.26450107795E+00 0.26885522661E+00 0.27216500411E+00 0.27423154999E+00 0.27492765831E+00
 0.27673041000E+00 0.27516826812E+00 0.27215745602E+00 0.26787451314E+00 0.26256664384E+00
 0.25652398620E+00 0.25004298124E+00 0.24343648997E+00 0.23705797040E+00 0.23126079803E+00
 0.22632071200E+00 0.22242264175E+00 0.21971105114E+00 0.21830767594E+00 0.21827906248E+00
 0.21962850464E+00 0.22232171961E+00 0.22627594585E+00 0.23131307479E+00 0.23716041007E+00
 0.24351144606E+00 0.25006489580E+00 0.25651318043E+00 0.26253885261E+00 0.26783948742E+00
 0.27213708935E+00 0.27517277035E+00 0.27673789430E+00 0.31896729905E+00 0.31799523177E+00
 0.31517012842E+00 0.31061434675E+00 0.30455127579E+00 0.29734098843E+00 0.28937633550E+00
 0.28100708202E+00 0.27262332900E+00 0.26471657552E+00 0.25775733857E+00 0.25206062660E+00
 0.24782709842E+00 0.24522991432E+00 0.24437711704E+00 0.24526059515E+00 0.24782714657E+00
 0.25203774199E+00 0.25777789988E+00 0.26476679944E+00 0.27262335694E+00 0.28096232988E+00
 0.28937066799E+00 0.29737879082E+00 0.30455121462E+00 0.31056342168E+00 0.31514108700E+00
 0.31800685043E+00 0.31799852455E+00 0.31797871439E+00 0.31583906108E+00 0.31168705950E+00
 0.30569824186E+00 0.29821392426E+00 0.28970201401E+00 0.28060163945E+00 0.27130225517E+00
 0.26225914895E+00 0.25399198497E+00 0.24693775955E+00 0.24139277418E+00 0.23758725429E+00
 0.23569484499E+00 0.23575580608E+00 0.23769992983E+00 0.24145871061E+00 0.24695641831E+00
 0.25398639455E+00 0.26219468812E+00 0.27118416397E+00 0.28053673869E+00 0.28975050263E+00
 0.29828553136E+00 0.30569942211E+00 0.31166019617E+00 0.31585270293E+00 0.31518181541E+00