   4   4   0   0
  0.1166414E+02  0.2468570E-09  0.2468570E-09  0.8840790E-09  0.5000000E-15
  1.000000000000000E-004
  CAR 
 C                                       
     54.52663794    -20.37991156  301      1.90478691      1.00000000
    -20.380  0.0000E+00  0.0000E+00
    -20.130  0.0000E+00  0.0000E+00
    -19.881  0.0000E+00  0.0000E+00
    -19.631  0.0000E+00  0.0000E+00
    -19.381  0.0000E+00  0.0000E+00
    -19.131  0.0000E+00  0.0000E+00
    -18.882  0.0000E+00  0.0000E+00
    -18.632  0.0000E+00  0.0000E+00
    -18.382  0.0000E+00  0.0000E+00
    -18.133  0.0000E+00  0.0000E+00
    -17.883  0.0000E+00  0.0000E+00
    -17.633  0.0000E+00  0.0000E+00
    -17.384  0.0000E+00  0.0000E+00
    -17.134  0.2967E-06  0.7409E-07
    -16.884  0.2464E+00  0.6152E-01
    -16.635  0.2073E+00  0.1133E+00
    -16.385  0.1299E+01  0.4375E+00
    -16.135  0.3232E-13  0.4375E+00
    -15.886  0.4015E+00  0.5377E+00
    -15.636  0.1101E+01  0.8125E+00
    -15.386  0.1500E+01  0.1187E+01
    -15.136  0.1270E-02  0.1188E+01
    -14.887  0.0000E+00  0.1188E+01
    -14.637  0.3768E-08  0.1188E+01
    -14.387  0.2514E+01  0.1815E+01
    -14.138  0.4901E+00  0.1937E+01
    -13.888  0.1289E-05  0.1938E+01
    -13.638  0.1479E+01  0.2307E+01
    -13.389  0.2266E-01  0.2312E+01
    -13.139  0.0000E+00  0.2312E+01
    -12.889  0.1084E-07  0.2313E+01
    -12.640  0.1358E+01  0.2652E+01
    -12.390  0.7700E+00  0.2844E+01
    -12.140  0.2377E+01  0.3437E+01
    -11.891  0.4281E-05  0.3438E+01
    -11.641  0.7479E+00  0.3624E+01
    -11.391  0.3004E-02  0.3625E+01
    -11.141  0.0000E+00  0.3625E+01
    -10.892  0.2418E-02  0.3626E+01
    -10.642  0.2149E+01  0.4162E+01
    -10.392  0.1011E+00  0.4188E+01
    -10.143  0.8330E-11  0.4188E+01
     -9.893  0.9088E+00  0.4414E+01
     -9.643  0.5931E+00  0.4563E+01
     -9.394  0.2930E+01  0.5294E+01
     -9.144  0.7354E-01  0.5312E+01
     -8.894  0.0000E+00  0.5312E+01
     -8.645  0.0000E+00  0.5312E+01
     -8.395  0.3058E-10  0.5313E+01
     -8.145  0.9999E+00  0.5562E+01
     -7.895  0.1998E+01  0.6061E+01
     -7.646  0.5929E-02  0.6062E+01
     -7.396  0.1784E-08  0.6063E+01
     -7.146  0.1291E+01  0.6385E+01
     -6.897  0.2110E+00  0.6438E+01
     -6.647  0.1192E-05  0.6438E+01
     -6.397  0.3786E+01  0.7383E+01
     -6.148  0.7191E+00  0.7562E+01
     -5.898  0.0000E+00  0.7562E+01
     -5.648  0.0000E+00  0.7562E+01
     -5.399  0.5051E-06  0.7563E+01
     -5.149  0.9048E-01  0.7585E+01
     -4.899  0.1668E+01  0.8002E+01
     -4.650  0.3708E+01  0.8927E+01
     -4.400  0.7720E+00  0.9120E+01
     -4.150  0.5605E+00  0.9260E+01
     -3.900  0.2938E+01  0.9994E+01
     -3.651  0.2677E+01  0.1066E+02
     -3.401  0.2704E+01  0.1134E+02
     -3.151  0.8453E+00  0.1155E+02
     -2.902  0.5740E-01  0.1156E+02
     -2.652  0.1334E+00  0.1160E+02
     -2.402  0.2868E+01  0.1231E+02
     -2.153  0.1276E+01  0.1263E+02
     -1.903  0.2177E+01  0.1317E+02
     -1.653  0.1054E+01  0.1344E+02
     -1.404  0.6561E+00  0.1360E+02
     -1.154  0.2234E+01  0.1416E+02
     -0.904  0.1140E+00  0.1419E+02
     -0.655  0.5500E-05  0.1419E+02
     -0.405  0.5030E+00  0.1431E+02
     -0.155  0.1140E+01  0.1460E+02
      0.095  0.3278E+01  0.1542E+02
      0.344  0.8363E+00  0.1562E+02
      0.594  0.3698E-04  0.1562E+02
      0.844  0.0000E+00  0.1562E+02
      1.093  0.0000E+00  0.1562E+02
      1.343  0.3430E-03  0.1563E+02
      1.593  0.1451E+01  0.1599E+02
      1.842  0.5069E-01  0.1600E+02
      2.092  0.0000E+00  0.1600E+02
      2.342  0.0000E+00  0.1600E+02
      2.591  0.0000E+00  0.1600E+02
      2.841  0.0000E+00  0.1600E+02
      3.091  0.0000E+00  0.1600E+02
      3.340  0.1904E-03  0.1600E+02
      3.590  0.1501E+01  0.1637E+02
      3.840  0.5169E-03  0.1638E+02
      4.090  0.2815E-01  0.1638E+02
      4.339  0.7132E+00  0.1656E+02
      4.589  0.1224E-01  0.1656E+02
      4.839  0.2735E+01  0.1725E+02
      5.088  0.2665E+00  0.1731E+02
      5.338  0.8564E+00  0.1753E+02
      5.588  0.6691E+00  0.1769E+02
      5.837  0.4113E-01  0.1770E+02
      6.087  0.1915E+00  0.1775E+02
      6.337  0.1277E+01  0.1807E+02
      6.586  0.5497E+00  0.1821E+02
      6.836  0.2162E+00  0.1826E+02
      7.086  0.2578E+00  0.1833E+02
      7.336  0.4233E+00  0.1843E+02
      7.585  0.3203E+00  0.1851E+02
      7.835  0.3555E+01  0.1940E+02
      8.085  0.2341E+00  0.1946E+02
      8.334  0.3622E+00  0.1955E+02
      8.584  0.2556E+00  0.1961E+02
      8.834  0.3329E+00  0.1970E+02
      9.083  0.8453E+00  0.1991E+02
      9.333  0.5650E+00  0.2005E+02
      9.583  0.6513E+00  0.2021E+02
      9.832  0.1591E+01  0.2061E+02
     10.082  0.2601E+01  0.2126E+02
     10.332  0.7653E+00  0.2145E+02
     10.581  0.1838E+01  0.2191E+02
     10.831  0.2221E+01  0.2246E+02
     11.081  0.2189E+01  0.2301E+02
     11.331  0.3025E+00  0.2308E+02
     11.580  0.3901E+01  0.2406E+02
     11.830  0.4243E+01  0.2512E+02
     12.080  0.1774E+01  0.2556E+02
     12.329  0.1462E+01  0.2592E+02
     12.579  0.1130E+01  0.2621E+02
     12.829  0.2170E+01  0.2675E+02
     13.078  0.6610E+00  0.2691E+02
     13.328  0.2109E+01  0.2744E+02
     13.578  0.1808E+01  0.2789E+02
     13.827  0.1079E+01  0.2816E+02
     14.077  0.5349E+00  0.2829E+02
     14.327  0.6202E+00  0.2845E+02
     14.576  0.1551E+01  0.2884E+02
     14.826  0.2332E+01  0.2942E+02
     15.076  0.2238E+01  0.2998E+02
     15.326  0.2332E+01  0.3056E+02
     15.575  0.1982E+01  0.3105E+02
     15.825  0.5746E+01  0.3249E+02
     16.075  0.2705E+01  0.3317E+02
     16.324  0.9182E+00  0.3339E+02
     16.574  0.7898E+00  0.3359E+02
     16.824  0.6951E+00  0.3377E+02
     17.073  0.1410E+01  0.3412E+02
     17.323  0.2286E+01  0.3469E+02
     17.573  0.2451E+01  0.3530E+02
     17.822  0.3496E+01  0.3617E+02
     18.072  0.1042E+01  0.3643E+02
     18.322  0.1414E+01  0.3679E+02
     18.571  0.1235E+01  0.3709E+02
     18.821  0.1062E+01  0.3736E+02
     19.071  0.4339E+00  0.3747E+02
     19.321  0.5596E+00  0.3761E+02
     19.570  0.6206E+00  0.3776E+02
     19.820  0.2111E+01  0.3829E+02
     20.070  0.1931E+01  0.3877E+02
     20.319  0.3042E+01  0.3953E+02
     20.569  0.2653E+01  0.4019E+02
     20.819  0.1018E+01  0.4045E+02
     21.068  0.3144E+01  0.4123E+02
     21.318  0.1454E+01  0.4160E+02
     21.568  0.1320E+01  0.4193E+02
     21.817  0.7509E+00  0.4211E+02
     22.067  0.1122E+01  0.4239E+02
     22.317  0.1612E+01  0.4280E+02
     22.567  0.2679E+01  0.4346E+02
     22.816  0.7831E+00  0.4366E+02
     23.066  0.2167E+01  0.4420E+02
     23.316  0.1151E+01  0.4449E+02
     23.565  0.1516E+01  0.4487E+02
     23.815  0.1601E+01  0.4527E+02
     24.065  0.1575E+01  0.4566E+02
     24.314  0.2283E+01  0.4623E+02
     24.564  0.1813E+01  0.4668E+02
     24.814  0.2182E+01  0.4723E+02
     25.063  0.1567E+01  0.4762E+02
     25.313  0.1400E+01  0.4797E+02
     25.563  0.2968E+01  0.4871E+02
     25.812  0.1651E+01  0.4912E+02
     26.062  0.2364E+01  0.4971E+02
     26.312  0.3068E+01  0.5048E+02
     26.562  0.3210E+01  0.5128E+02
     26.811  0.3360E+01  0.5212E+02
     27.061  0.2947E+01  0.5285E+02
     27.311  0.7903E+00  0.5305E+02
     27.560  0.1715E+01  0.5348E+02
     27.810  0.1951E+01  0.5397E+02
     28.060  0.1495E+01  0.5434E+02
     28.309  0.1987E+01  0.5484E+02
     28.559  0.3435E+01  0.5569E+02
     28.809  0.2504E+01  0.5632E+02
     29.058  0.1106E+01  0.5660E+02
     29.308  0.1268E+01  0.5691E+02
     29.558  0.2395E+01  0.5751E+02
     29.807  0.2488E+01  0.5813E+02
     30.057  0.2712E+01  0.5881E+02
     30.307  0.1911E+01  0.5929E+02
     30.557  0.1289E+01  0.5961E+02
     30.806  0.1686E+01  0.6003E+02
     31.056  0.2509E+01  0.6066E+02
     31.306  0.2068E+01  0.6117E+02
     31.555  0.1747E+01  0.6161E+02
     31.805  0.1851E+01  0.6207E+02
     32.055  0.1418E+01  0.6242E+02
     32.304  0.2050E+01  0.6294E+02
     32.554  0.1693E+01  0.6336E+02
     32.804  0.1268E+01  0.6368E+02
     33.053  0.2156E+01  0.6421E+02
     33.303  0.1287E+01  0.6454E+02
     33.553  0.5764E+00  0.6468E+02
     33.802  0.1447E+01  0.6504E+02
     34.052  0.2832E+01  0.6575E+02
     34.302  0.1249E+01  0.6606E+02
     34.552  0.1218E+01  0.6636E+02
     34.801  0.1980E+01  0.6686E+02
     35.051  0.1537E+01  0.6724E+02
     35.301  0.2017E+01  0.6775E+02
     35.550  0.1415E+01  0.6810E+02
     35.800  0.2157E+01  0.6864E+02
     36.050  0.1284E+01  0.6896E+02
     36.299  0.1315E+01  0.6929E+02
     36.549  0.5335E+00  0.6942E+02
     36.799  0.2949E+01  0.7016E+02
     37.048  0.2129E+01  0.7069E+02
     37.298  0.1482E+01  0.7106E+02
     37.548  0.2696E+01  0.7173E+02
     37.798  0.1936E+01  0.7221E+02
     38.047  0.2741E+01  0.7290E+02
     38.297  0.1689E+01  0.7332E+02
     38.547  0.2265E+01  0.7389E+02
     38.796  0.1423E+01  0.7424E+02
     39.046  0.3064E+01  0.7501E+02
     39.296  0.1712E+01  0.7543E+02
     39.545  0.1967E+01  0.7592E+02
     39.795  0.1326E+01  0.7626E+02
     40.045  0.1437E+01  0.7661E+02
     40.294  0.1585E+01  0.7701E+02
     40.544  0.2008E+01  0.7751E+02
     40.794  0.2009E+01  0.7801E+02
     41.043  0.2491E+01  0.7863E+02
     41.293  0.2730E+01  0.7932E+02
     41.543  0.1003E+01  0.7957E+02
     41.793  0.2298E+01  0.8014E+02
     42.042  0.3329E+01  0.8097E+02
     42.292  0.1780E+01  0.8142E+02
     42.542  0.1321E+01  0.8175E+02
     42.791  0.1846E+01  0.8221E+02
     43.041  0.2069E+01  0.8272E+02
     43.291  0.2615E+01  0.8338E+02
     43.540  0.3108E+01  0.8415E+02
     43.790  0.3453E+01  0.8501E+02
     44.040  0.1675E+01  0.8543E+02
     44.289  0.2139E+01  0.8597E+02
     44.539  0.2626E+01  0.8662E+02
     44.789  0.2286E+01  0.8719E+02
     45.038  0.2970E+01  0.8794E+02
     45.288  0.3081E+01  0.8870E+02
     45.538  0.2606E+01  0.8936E+02
     45.788  0.1653E+01  0.8977E+02
     46.037  0.1869E+01  0.9023E+02
     46.287  0.2091E+01  0.9076E+02
     46.537  0.1785E+01  0.9120E+02
     46.786  0.3135E+01  0.9198E+02
     47.036  0.3737E+01  0.9292E+02
     47.286  0.1047E+01  0.9318E+02
     47.535  0.3801E+00  0.9327E+02
     47.785  0.1454E+01  0.9364E+02
     48.035  0.2210E+01  0.9419E+02
     48.284  0.6405E+00  0.9435E+02
     48.534  0.8072E+00  0.9455E+02
     48.784  0.5673E+00  0.9469E+02
     49.033  0.2094E+01  0.9522E+02
     49.283  0.1602E+00  0.9526E+02
     49.533  0.1521E+01  0.9564E+02
     49.783  0.5492E+00  0.9577E+02
     50.032  0.3020E+00  0.9585E+02
     50.282  0.6587E-01  0.9586E+02
     50.532  0.2039E+00  0.9592E+02
     50.781  0.1067E+00  0.9594E+02
     51.031  0.1869E+00  0.9599E+02
     51.281  0.4673E-01  0.9600E+02
     51.530  0.0000E+00  0.9600E+02
     51.780  0.0000E+00  0.9600E+02
     52.030  0.0000E+00  0.9600E+02
     52.279  0.0000E+00  0.9600E+02
     52.529  0.0000E+00  0.9600E+02
     52.779  0.0000E+00  0.9600E+02
     53.029  0.0000E+00  0.9600E+02
     53.278  0.0000E+00  0.9600E+02
     53.528  0.0000E+00  0.9600E+02
     53.778  0.0000E+00  0.9600E+02
     54.027  0.0000E+00  0.9600E+02
     54.277  0.0000E+00  0.9600E+02
     54.527  0.0000E+00  0.9600E+02
