 DBCSR| CPU Multiplication driver                                           BLAS (U)
 DBCSR| Multrec recursion limit                                              512 (U)
 DBCSR| Multiplication stack size                                           1000 (D)
 DBCSR| Maximum elements for images                                    UNLIMITED (U)
 DBCSR| Multiplicative factor virtual images                                   1 (U)
 DBCSR| Use multiplication densification                                       T (D)
 DBCSR| Multiplication size stacks                                             3 (U)
 DBCSR| Use memory pool for CPU allocation                                     F (U)
 DBCSR| Number of 3D layers                                               SINGLE (U)
 DBCSR| Use MPI memory allocation                                              F (U)
 DBCSR| Use RMA algorithm                                                      F (U)
 DBCSR| Use Communication thread                                               T (U)
 DBCSR| Communication thread load                                             45 (D)
 DBCSR| MPI: My process id                                                     0
 DBCSR| MPI: Number of processes                                               8
 DBCSR| OMP: Current number of threads                                        12
 DBCSR| OMP: Max number of threads                                            12
 DBCSR| Split modifier for TAS multiplication algorithm                  1.0E+00 (U)


  **** **** ******  **  PROGRAM STARTED AT               2025-08-04 16:15:41.088
 ***** ** ***  *** **   PROGRAM STARTED ON                          i05r11c06s04
 **    ****   ******    PROGRAM STARTED BY                               di38fab
 ***** **    ** ** **   PROGRAM PROCESS ID                               1978573
  **** **  *******  **  PROGRAM STARTED IN /hppfs/scratch/04/di38fab/09_GTH/Delt
                                           a_Set/K/aug-SZV-MOLOPT-GTH-tier-2/8x8
                                           x8

 CP2K| version string:                 CP2K version 2025.1 (Development Version)
 CP2K| source code revision number:                                  git:3130539
 CP2K| cp2kflags: omp libint fftw3 libxc parallel scalapack max_contr=4         
 CP2K| is freely available from                            https://www.cp2k.org/
 CP2K| Program compiled at                         Tue Jun  3 16:14:32 CEST 2025
 CP2K| Program compiled on                                               login01
 CP2K| Program compiled for                                        Supermuc-foss
 CP2K| Data directory path                  /hppfs/work/pn36zo/di38fab/cp2k/data
 CP2K| Input file name                                                    GW.inp

 GLOBAL| Force Environment number                                              1
 GLOBAL| Basis set file name            /hppfs/scratch/04/di38fab/09_GTH/BASIS_A
 GLOBAL| Potential file name            /hppfs/work/pn36zo/di38fab/cp2k/data/GTH
 GLOBAL| MM Potential file name                                     MM_POTENTIAL
 GLOBAL| Coordinate file name                                              K.cif
 GLOBAL| Method name                                                        CP2K
 GLOBAL| Project name                                                       WSe2
 GLOBAL| Run type                                                         ENERGY
 GLOBAL| FFT library                                                       FFTW3
 GLOBAL| Diagonalization library                                       ScaLAPACK
 GLOBAL| Cholesky decomposition library                                ScaLAPACK
 GLOBAL| DGEMM library                                                      BLAS
 GLOBAL| Orthonormality check for eigenvectors                          DISABLED
 GLOBAL| Matrix multiplication library                                 ScaLAPACK
 GLOBAL| All-to-all communication in single precision                          F
 GLOBAL| FFTs using library dependent lengths                                  F
 GLOBAL| Grid backend                                                       AUTO
 GLOBAL| Global print level                                               MEDIUM
 GLOBAL| MPI I/O enabled                                                       T
 GLOBAL| Total number of message passing processes                             8
 GLOBAL| Number of threads for this process                                   12
 GLOBAL| This output is from process                                           0
 GLOBAL| OpenMP stack size per thread (OMP_STACKSIZE)                    default
 GLOBAL| CPU model name             Intel(R) Xeon(R) Platinum 8174 CPU @ 3.10GHz

 MEMORY| system memory details [Kb]
 MEMORY|                        rank 0           min           max       average
 MEMORY| MemTotal             98436708      98436660      98436708      98436684
 MEMORY| MemFree              86416660      86326164      86416660      86371412
 MEMORY| Buffers                     0             0             0             0
 MEMORY| Cached                2338316       2338316       2346712       2342514
 MEMORY| Slab                   978512        978512        990004        984258
 MEMORY| SReclaimable           222164        220328        222164        221246
 MEMORY| MemLikelyFree        88977140      88893204      88977140      88935172


 *** Fundamental physical constants (SI units) ***

 *** Literature: B. J. Mohr and B. N. Taylor,
 ***             CODATA recommended values of the fundamental physical
 ***             constants: 2006, Web Version 5.1
 ***             http://physics.nist.gov/constants

 Speed of light in vacuum [m/s]                             2.99792458000000E+08
 Magnetic constant or permeability of vacuum [N/A**2]       1.25663706143592E-06
 Electric constant or permittivity of vacuum [F/m]          8.85418781762039E-12
 Planck constant (h) [J*s]                                  6.62606896000000E-34
 Planck constant (h-bar) [J*s]                              1.05457162825177E-34
 Elementary charge [C]                                      1.60217648700000E-19
 Electron mass [kg]                                         9.10938215000000E-31
 Electron g factor [ ]                                     -2.00231930436220E+00
 Proton mass [kg]                                           1.67262163700000E-27
 Fine-structure constant                                    7.29735253760000E-03
 Rydberg constant [1/m]                                     1.09737315685270E+07
 Avogadro constant [1/mol]                                  6.02214179000000E+23
 Boltzmann constant [J/K]                                   1.38065040000000E-23
 Atomic mass unit [kg]                                      1.66053878200000E-27
 Bohr radius [m]                                            5.29177208590000E-11

 *** Conversion factors ***

 [u] -> [a.u.]                                              1.82288848426455E+03
 [Angstrom] -> [Bohr] = [a.u.]                              1.88972613288564E+00
 [a.u.] = [Bohr] -> [Angstrom]                              5.29177208590000E-01
 [a.u.] -> [s]                                              2.41888432650478E-17
 [a.u.] -> [fs]                                             2.41888432650478E-02
 [a.u.] -> [J]                                              4.35974393937059E-18
 [a.u.] -> [N]                                              8.23872205491840E-08
 [a.u.] -> [K]                                              3.15774647902944E+05
 [a.u.] -> [kJ/mol]                                         2.62549961709828E+03
 [a.u.] -> [kcal/mol]                                       6.27509468713739E+02
 [a.u.] -> [Pa]                                             2.94210107994716E+13
 [a.u.] -> [bar]                                            2.94210107994716E+08
 [a.u.] -> [atm]                                            2.90362800883016E+08
 [a.u.] -> [eV]                                             2.72113838565563E+01
 [a.u.] -> [Hz]                                             6.57968392072181E+15
 [a.u.] -> [1/cm] (wave numbers)                            2.19474631370540E+05
 [a.u./Bohr**2] -> [1/cm]                                   5.14048714338585E+03
 

 CELL_TOP| Volume [angstrom^3]:                                       147.691113
 CELL_TOP| Vector a [angstrom     5.286     0.000     0.000   |a| =     5.285890
 CELL_TOP| Vector b [angstrom     0.000     5.286     0.000   |b| =     5.285890
 CELL_TOP| Vector c [angstrom     0.000     0.000     5.286   |c| =     5.285890
 CELL_TOP| Angle (b,c), alpha [degree]:                                90.000000
 CELL_TOP| Angle (a,c), beta  [degree]:                                90.000000
 CELL_TOP| Angle (a,b), gamma [degree]:                                90.000000
 CELL_TOP| Numerically orthorhombic:                                         YES
 CELL_TOP| Periodicity                                                       XYZ

 CELL_CIF| Volume [angstrom^3]:                                       147.691113
 CELL_CIF| Vector a [angstrom     5.286     0.000     0.000   |a| =     5.285890
 CELL_CIF| Vector b [angstrom     0.000     5.286     0.000   |b| =     5.285890
 CELL_CIF| Vector c [angstrom     0.000     0.000     5.286   |c| =     5.285890
 CELL_CIF| Angle (b,c), alpha [degree]:                                90.000000
 CELL_CIF| Angle (a,c), beta  [degree]:                                90.000000
 CELL_CIF| Angle (a,b), gamma [degree]:                                90.000000
 CELL_CIF| Numerically orthorhombic:                                         YES
 CELL_CIF| Periodicity                                                       XYZ

 GENERATE|  Preliminary Number of Bonds generated:                             0
 GENERATE|  Achieved consistency in connectivity generation.

 CELL| Volume [angstrom^3]:                                           147.691113
 CELL| Vector a [angstrom]:       5.286     0.000     0.000   |a| =     5.285890
 CELL| Vector b [angstrom]:       0.000     5.286     0.000   |b| =     5.285890
 CELL| Vector c [angstrom]:       0.000     0.000     5.286   |c| =     5.285890
 CELL| Angle (b,c), alpha [degree]:                                    90.000000
 CELL| Angle (a,c), beta  [degree]:                                    90.000000
 CELL| Angle (a,b), gamma [degree]:                                    90.000000
 CELL| Numerically orthorhombic:                                             YES
 CELL| Periodicity                                                           XYZ

 CELL_REF| Volume [angstrom^3]:                                       147.691113
 CELL_REF| Vector a [angstrom     5.286     0.000     0.000   |a| =     5.285890
 CELL_REF| Vector b [angstrom     0.000     5.286     0.000   |b| =     5.285890
 CELL_REF| Vector c [angstrom     0.000     0.000     5.286   |c| =     5.285890
 CELL_REF| Angle (b,c), alpha [degree]:                                90.000000
 CELL_REF| Angle (a,c), beta  [degree]:                                90.000000
 CELL_REF| Angle (a,b), gamma [degree]:                                90.000000
 CELL_REF| Numerically orthorhombic:                                         YES
 CELL_REF| Periodicity                                                       XYZ

 *** WARNING in cryssym.F:180 :: Symmetry library SPGLIB not available ***


 *******************************************************************************
                                    Kpoints
 *******************************************************************************
 BRILLOUIN| K-point scheme                                        Monkhorst-Pack
 BRILLOUIN| K-Point grid                                             8    8    8
 BRILLOUIN| Accuracy in Symmetry determination                      0.100000E-05
 BRILLOUIN| K-Point point group symmetrization                               OFF
 BRILLOUIN| Wavefunction type                                            COMPLEX
 BRILLOUIN| List of Kpoints [2 Pi/Bohr]                                      256
 BRILLOUIN| Number           Weight            X              Y              Z
 BRILLOUIN|     1           0.00391       -0.43750       -0.43750       -0.43750
 BRILLOUIN|     2           0.00391       -0.43750       -0.43750       -0.31250
 BRILLOUIN|     3           0.00391       -0.43750       -0.43750       -0.18750
 BRILLOUIN|     4           0.00391       -0.43750       -0.43750       -0.06250
 BRILLOUIN|     5           0.00391       -0.43750       -0.43750        0.06250
 BRILLOUIN|     6           0.00391       -0.43750       -0.43750        0.18750
 BRILLOUIN|     7           0.00391       -0.43750       -0.43750        0.31250
 BRILLOUIN|     8           0.00391       -0.43750       -0.43750        0.43750
 BRILLOUIN|     9           0.00391       -0.43750       -0.31250       -0.43750
 BRILLOUIN|    10           0.00391       -0.43750       -0.31250       -0.31250
 BRILLOUIN|    11           0.00391       -0.43750       -0.31250       -0.18750
 BRILLOUIN|    12           0.00391       -0.43750       -0.31250       -0.06250
 BRILLOUIN|    13           0.00391       -0.43750       -0.31250        0.06250
 BRILLOUIN|    14           0.00391       -0.43750       -0.31250        0.18750
 BRILLOUIN|    15           0.00391       -0.43750       -0.31250        0.31250
 BRILLOUIN|    16           0.00391       -0.43750       -0.31250        0.43750
 BRILLOUIN|    17           0.00391       -0.43750       -0.18750       -0.43750
 BRILLOUIN|    18           0.00391       -0.43750       -0.18750       -0.31250
 BRILLOUIN|    19           0.00391       -0.43750       -0.18750       -0.18750
 BRILLOUIN|    20           0.00391       -0.43750       -0.18750       -0.06250
 BRILLOUIN|    21           0.00391       -0.43750       -0.18750        0.06250
 BRILLOUIN|    22           0.00391       -0.43750       -0.18750        0.18750
 BRILLOUIN|    23           0.00391       -0.43750       -0.18750        0.31250
 BRILLOUIN|    24           0.00391       -0.43750       -0.18750        0.43750
 BRILLOUIN|    25           0.00391       -0.43750       -0.06250       -0.43750
 BRILLOUIN|    26           0.00391       -0.43750       -0.06250       -0.31250
 BRILLOUIN|    27           0.00391       -0.43750       -0.06250       -0.18750
 BRILLOUIN|    28           0.00391       -0.43750       -0.06250       -0.06250
 BRILLOUIN|    29           0.00391       -0.43750       -0.06250        0.06250
 BRILLOUIN|    30           0.00391       -0.43750       -0.06250        0.18750
 BRILLOUIN|    31           0.00391       -0.43750       -0.06250        0.31250
 BRILLOUIN|    32           0.00391       -0.43750       -0.06250        0.43750
 BRILLOUIN|    33           0.00391       -0.43750        0.06250       -0.43750
 BRILLOUIN|    34           0.00391       -0.43750        0.06250       -0.31250
 BRILLOUIN|    35           0.00391       -0.43750        0.06250       -0.18750
 BRILLOUIN|    36           0.00391       -0.43750        0.06250       -0.06250
 BRILLOUIN|    37           0.00391       -0.43750        0.06250        0.06250
 BRILLOUIN|    38           0.00391       -0.43750        0.06250        0.18750
 BRILLOUIN|    39           0.00391       -0.43750        0.06250        0.31250
 BRILLOUIN|    40           0.00391       -0.43750        0.06250        0.43750
 BRILLOUIN|    41           0.00391       -0.43750        0.18750       -0.43750
 BRILLOUIN|    42           0.00391       -0.43750        0.18750       -0.31250
 BRILLOUIN|    43           0.00391       -0.43750        0.18750       -0.18750
 BRILLOUIN|    44           0.00391       -0.43750        0.18750       -0.06250
 BRILLOUIN|    45           0.00391       -0.43750        0.18750        0.06250
 BRILLOUIN|    46           0.00391       -0.43750        0.18750        0.18750
 BRILLOUIN|    47           0.00391       -0.43750        0.18750        0.31250
 BRILLOUIN|    48           0.00391       -0.43750        0.18750        0.43750
 BRILLOUIN|    49           0.00391       -0.43750        0.31250       -0.43750
 BRILLOUIN|    50           0.00391       -0.43750        0.31250       -0.31250
 BRILLOUIN|    51           0.00391       -0.43750        0.31250       -0.18750
 BRILLOUIN|    52           0.00391       -0.43750        0.31250       -0.06250
 BRILLOUIN|    53           0.00391       -0.43750        0.31250        0.06250
 BRILLOUIN|    54           0.00391       -0.43750        0.31250        0.18750
 BRILLOUIN|    55           0.00391       -0.43750        0.31250        0.31250
 BRILLOUIN|    56           0.00391       -0.43750        0.31250        0.43750
 BRILLOUIN|    57           0.00391       -0.43750        0.43750       -0.43750
 BRILLOUIN|    58           0.00391       -0.43750        0.43750       -0.31250
 BRILLOUIN|    59           0.00391       -0.43750        0.43750       -0.18750
 BRILLOUIN|    60           0.00391       -0.43750        0.43750       -0.06250
 BRILLOUIN|    61           0.00391       -0.43750        0.43750        0.06250
 BRILLOUIN|    62           0.00391       -0.43750        0.43750        0.18750
 BRILLOUIN|    63           0.00391       -0.43750        0.43750        0.31250
 BRILLOUIN|    64           0.00391       -0.43750        0.43750        0.43750
 BRILLOUIN|    65           0.00391       -0.31250       -0.43750       -0.43750
 BRILLOUIN|    66           0.00391       -0.31250       -0.43750       -0.31250
 BRILLOUIN|    67           0.00391       -0.31250       -0.43750       -0.18750
 BRILLOUIN|    68           0.00391       -0.31250       -0.43750       -0.06250
 BRILLOUIN|    69           0.00391       -0.31250       -0.43750        0.06250
 BRILLOUIN|    70           0.00391       -0.31250       -0.43750        0.18750
 BRILLOUIN|    71           0.00391       -0.31250       -0.43750        0.31250
 BRILLOUIN|    72           0.00391       -0.31250       -0.43750        0.43750
 BRILLOUIN|    73           0.00391       -0.31250       -0.31250       -0.43750
 BRILLOUIN|    74           0.00391       -0.31250       -0.31250       -0.31250
 BRILLOUIN|    75           0.00391       -0.31250       -0.31250       -0.18750
 BRILLOUIN|    76           0.00391       -0.31250       -0.31250       -0.06250
 BRILLOUIN|    77           0.00391       -0.31250       -0.31250        0.06250
 BRILLOUIN|    78           0.00391       -0.31250       -0.31250        0.18750
 BRILLOUIN|    79           0.00391       -0.31250       -0.31250        0.31250
 BRILLOUIN|    80           0.00391       -0.31250       -0.31250        0.43750
 BRILLOUIN|    81           0.00391       -0.31250       -0.18750       -0.43750
 BRILLOUIN|    82           0.00391       -0.31250       -0.18750       -0.31250
 BRILLOUIN|    83           0.00391       -0.31250       -0.18750       -0.18750
 BRILLOUIN|    84           0.00391       -0.31250       -0.18750       -0.06250
 BRILLOUIN|    85           0.00391       -0.31250       -0.18750        0.06250
 BRILLOUIN|    86           0.00391       -0.31250       -0.18750        0.18750
 BRILLOUIN|    87           0.00391       -0.31250       -0.18750        0.31250
 BRILLOUIN|    88           0.00391       -0.31250       -0.18750        0.43750
 BRILLOUIN|    89           0.00391       -0.31250       -0.06250       -0.43750
 BRILLOUIN|    90           0.00391       -0.31250       -0.06250       -0.31250
 BRILLOUIN|    91           0.00391       -0.31250       -0.06250       -0.18750
 BRILLOUIN|    92           0.00391       -0.31250       -0.06250       -0.06250
 BRILLOUIN|    93           0.00391       -0.31250       -0.06250        0.06250
 BRILLOUIN|    94           0.00391       -0.31250       -0.06250        0.18750
 BRILLOUIN|    95           0.00391       -0.31250       -0.06250        0.31250
 BRILLOUIN|    96           0.00391       -0.31250       -0.06250        0.43750
 BRILLOUIN|    97           0.00391       -0.31250        0.06250       -0.43750
 BRILLOUIN|    98           0.00391       -0.31250        0.06250       -0.31250
 BRILLOUIN|    99           0.00391       -0.31250        0.06250       -0.18750
 BRILLOUIN|   100           0.00391       -0.31250        0.06250       -0.06250
 BRILLOUIN|   101           0.00391       -0.31250        0.06250        0.06250
 BRILLOUIN|   102           0.00391       -0.31250        0.06250        0.18750
 BRILLOUIN|   103           0.00391       -0.31250        0.06250        0.31250
 BRILLOUIN|   104           0.00391       -0.31250        0.06250        0.43750
 BRILLOUIN|   105           0.00391       -0.31250        0.18750       -0.43750
 BRILLOUIN|   106           0.00391       -0.31250        0.18750       -0.31250
 BRILLOUIN|   107           0.00391       -0.31250        0.18750       -0.18750
 BRILLOUIN|   108           0.00391       -0.31250        0.18750       -0.06250
 BRILLOUIN|   109           0.00391       -0.31250        0.18750        0.06250
 BRILLOUIN|   110           0.00391       -0.31250        0.18750        0.18750
 BRILLOUIN|   111           0.00391       -0.31250        0.18750        0.31250
 BRILLOUIN|   112           0.00391       -0.31250        0.18750        0.43750
 BRILLOUIN|   113           0.00391       -0.31250        0.31250       -0.43750
 BRILLOUIN|   114           0.00391       -0.31250        0.31250       -0.31250
 BRILLOUIN|   115           0.00391       -0.31250        0.31250       -0.18750
 BRILLOUIN|   116           0.00391       -0.31250        0.31250       -0.06250
 BRILLOUIN|   117           0.00391       -0.31250        0.31250        0.06250
 BRILLOUIN|   118           0.00391       -0.31250        0.31250        0.18750
 BRILLOUIN|   119           0.00391       -0.31250        0.31250        0.31250
 BRILLOUIN|   120           0.00391       -0.31250        0.31250        0.43750
 BRILLOUIN|   121           0.00391       -0.31250        0.43750       -0.43750
 BRILLOUIN|   122           0.00391       -0.31250        0.43750       -0.31250
 BRILLOUIN|   123           0.00391       -0.31250        0.43750       -0.18750
 BRILLOUIN|   124           0.00391       -0.31250        0.43750       -0.06250
 BRILLOUIN|   125           0.00391       -0.31250        0.43750        0.06250
 BRILLOUIN|   126           0.00391       -0.31250        0.43750        0.18750
 BRILLOUIN|   127           0.00391       -0.31250        0.43750        0.31250
 BRILLOUIN|   128           0.00391       -0.31250        0.43750        0.43750
 BRILLOUIN|   129           0.00391       -0.18750       -0.43750       -0.43750
 BRILLOUIN|   130           0.00391       -0.18750       -0.43750       -0.31250
 BRILLOUIN|   131           0.00391       -0.18750       -0.43750       -0.18750
 BRILLOUIN|   132           0.00391       -0.18750       -0.43750       -0.06250
 BRILLOUIN|   133           0.00391       -0.18750       -0.43750        0.06250
 BRILLOUIN|   134           0.00391       -0.18750       -0.43750        0.18750
 BRILLOUIN|   135           0.00391       -0.18750       -0.43750        0.31250
 BRILLOUIN|   136           0.00391       -0.18750       -0.43750        0.43750
 BRILLOUIN|   137           0.00391       -0.18750       -0.31250       -0.43750
 BRILLOUIN|   138           0.00391       -0.18750       -0.31250       -0.31250
 BRILLOUIN|   139           0.00391       -0.18750       -0.31250       -0.18750
 BRILLOUIN|   140           0.00391       -0.18750       -0.31250       -0.06250
 BRILLOUIN|   141           0.00391       -0.18750       -0.31250        0.06250
 BRILLOUIN|   142           0.00391       -0.18750       -0.31250        0.18750
 BRILLOUIN|   143           0.00391       -0.18750       -0.31250        0.31250
 BRILLOUIN|   144           0.00391       -0.18750       -0.31250        0.43750
 BRILLOUIN|   145           0.00391       -0.18750       -0.18750       -0.43750
 BRILLOUIN|   146           0.00391       -0.18750       -0.18750       -0.31250
 BRILLOUIN|   147           0.00391       -0.18750       -0.18750       -0.18750
 BRILLOUIN|   148           0.00391       -0.18750       -0.18750       -0.06250
 BRILLOUIN|   149           0.00391       -0.18750       -0.18750        0.06250
 BRILLOUIN|   150           0.00391       -0.18750       -0.18750        0.18750
 BRILLOUIN|   151           0.00391       -0.18750       -0.18750        0.31250
 BRILLOUIN|   152           0.00391       -0.18750       -0.18750        0.43750
 BRILLOUIN|   153           0.00391       -0.18750       -0.06250       -0.43750
 BRILLOUIN|   154           0.00391       -0.18750       -0.06250       -0.31250
 BRILLOUIN|   155           0.00391       -0.18750       -0.06250       -0.18750
 BRILLOUIN|   156           0.00391       -0.18750       -0.06250       -0.06250
 BRILLOUIN|   157           0.00391       -0.18750       -0.06250        0.06250
 BRILLOUIN|   158           0.00391       -0.18750       -0.06250        0.18750
 BRILLOUIN|   159           0.00391       -0.18750       -0.06250        0.31250
 BRILLOUIN|   160           0.00391       -0.18750       -0.06250        0.43750
 BRILLOUIN|   161           0.00391       -0.18750        0.06250       -0.43750
 BRILLOUIN|   162           0.00391       -0.18750        0.06250       -0.31250
 BRILLOUIN|   163           0.00391       -0.18750        0.06250       -0.18750
 BRILLOUIN|   164           0.00391       -0.18750        0.06250       -0.06250
 BRILLOUIN|   165           0.00391       -0.18750        0.06250        0.06250
 BRILLOUIN|   166           0.00391       -0.18750        0.06250        0.18750
 BRILLOUIN|   167           0.00391       -0.18750        0.06250        0.31250
 BRILLOUIN|   168           0.00391       -0.18750        0.06250        0.43750
 BRILLOUIN|   169           0.00391       -0.18750        0.18750       -0.43750
 BRILLOUIN|   170           0.00391       -0.18750        0.18750       -0.31250
 BRILLOUIN|   171           0.00391       -0.18750        0.18750       -0.18750
 BRILLOUIN|   172           0.00391       -0.18750        0.18750       -0.06250
 BRILLOUIN|   173           0.00391       -0.18750        0.18750        0.06250
 BRILLOUIN|   174           0.00391       -0.18750        0.18750        0.18750
 BRILLOUIN|   175           0.00391       -0.18750        0.18750        0.31250
 BRILLOUIN|   176           0.00391       -0.18750        0.18750        0.43750
 BRILLOUIN|   177           0.00391       -0.18750        0.31250       -0.43750
 BRILLOUIN|   178           0.00391       -0.18750        0.31250       -0.31250
 BRILLOUIN|   179           0.00391       -0.18750        0.31250       -0.18750
 BRILLOUIN|   180           0.00391       -0.18750        0.31250       -0.06250
 BRILLOUIN|   181           0.00391       -0.18750        0.31250        0.06250
 BRILLOUIN|   182           0.00391       -0.18750        0.31250        0.18750
 BRILLOUIN|   183           0.00391       -0.18750        0.31250        0.31250
 BRILLOUIN|   184           0.00391       -0.18750        0.31250        0.43750
 BRILLOUIN|   185           0.00391       -0.18750        0.43750       -0.43750
 BRILLOUIN|   186           0.00391       -0.18750        0.43750       -0.31250
 BRILLOUIN|   187           0.00391       -0.18750        0.43750       -0.18750
 BRILLOUIN|   188           0.00391       -0.18750        0.43750       -0.06250
 BRILLOUIN|   189           0.00391       -0.18750        0.43750        0.06250
 BRILLOUIN|   190           0.00391       -0.18750        0.43750        0.18750
 BRILLOUIN|   191           0.00391       -0.18750        0.43750        0.31250
 BRILLOUIN|   192           0.00391       -0.18750        0.43750        0.43750
 BRILLOUIN|   193           0.00391       -0.06250       -0.43750       -0.43750
 BRILLOUIN|   194           0.00391       -0.06250       -0.43750       -0.31250
 BRILLOUIN|   195           0.00391       -0.06250       -0.43750       -0.18750
 BRILLOUIN|   196           0.00391       -0.06250       -0.43750       -0.06250
 BRILLOUIN|   197           0.00391       -0.06250       -0.43750        0.06250
 BRILLOUIN|   198           0.00391       -0.06250       -0.43750        0.18750
 BRILLOUIN|   199           0.00391       -0.06250       -0.43750        0.31250
 BRILLOUIN|   200           0.00391       -0.06250       -0.43750        0.43750
 BRILLOUIN|   201           0.00391       -0.06250       -0.31250       -0.43750
 BRILLOUIN|   202           0.00391       -0.06250       -0.31250       -0.31250
 BRILLOUIN|   203           0.00391       -0.06250       -0.31250       -0.18750
 BRILLOUIN|   204           0.00391       -0.06250       -0.31250       -0.06250
 BRILLOUIN|   205           0.00391       -0.06250       -0.31250        0.06250
 BRILLOUIN|   206           0.00391       -0.06250       -0.31250        0.18750
 BRILLOUIN|   207           0.00391       -0.06250       -0.31250        0.31250
 BRILLOUIN|   208           0.00391       -0.06250       -0.31250        0.43750
 BRILLOUIN|   209           0.00391       -0.06250       -0.18750       -0.43750
 BRILLOUIN|   210           0.00391       -0.06250       -0.18750       -0.31250
 BRILLOUIN|   211           0.00391       -0.06250       -0.18750       -0.18750
 BRILLOUIN|   212           0.00391       -0.06250       -0.18750       -0.06250
 BRILLOUIN|   213           0.00391       -0.06250       -0.18750        0.06250
 BRILLOUIN|   214           0.00391       -0.06250       -0.18750        0.18750
 BRILLOUIN|   215           0.00391       -0.06250       -0.18750        0.31250
 BRILLOUIN|   216           0.00391       -0.06250       -0.18750        0.43750
 BRILLOUIN|   217           0.00391       -0.06250       -0.06250       -0.43750
 BRILLOUIN|   218           0.00391       -0.06250       -0.06250       -0.31250
 BRILLOUIN|   219           0.00391       -0.06250       -0.06250       -0.18750
 BRILLOUIN|   220           0.00391       -0.06250       -0.06250       -0.06250
 BRILLOUIN|   221           0.00391       -0.06250       -0.06250        0.06250
 BRILLOUIN|   222           0.00391       -0.06250       -0.06250        0.18750
 BRILLOUIN|   223           0.00391       -0.06250       -0.06250        0.31250
 BRILLOUIN|   224           0.00391       -0.06250       -0.06250        0.43750
 BRILLOUIN|   225           0.00391       -0.06250        0.06250       -0.43750
 BRILLOUIN|   226           0.00391       -0.06250        0.06250       -0.31250
 BRILLOUIN|   227           0.00391       -0.06250        0.06250       -0.18750
 BRILLOUIN|   228           0.00391       -0.06250        0.06250       -0.06250
 BRILLOUIN|   229           0.00391       -0.06250        0.06250        0.06250
 BRILLOUIN|   230           0.00391       -0.06250        0.06250        0.18750
 BRILLOUIN|   231           0.00391       -0.06250        0.06250        0.31250
 BRILLOUIN|   232           0.00391       -0.06250        0.06250        0.43750
 BRILLOUIN|   233           0.00391       -0.06250        0.18750       -0.43750
 BRILLOUIN|   234           0.00391       -0.06250        0.18750       -0.31250
 BRILLOUIN|   235           0.00391       -0.06250        0.18750       -0.18750
 BRILLOUIN|   236           0.00391       -0.06250        0.18750       -0.06250
 BRILLOUIN|   237           0.00391       -0.06250        0.18750        0.06250
 BRILLOUIN|   238           0.00391       -0.06250        0.18750        0.18750
 BRILLOUIN|   239           0.00391       -0.06250        0.18750        0.31250
 BRILLOUIN|   240           0.00391       -0.06250        0.18750        0.43750
 BRILLOUIN|   241           0.00391       -0.06250        0.31250       -0.43750
 BRILLOUIN|   242           0.00391       -0.06250        0.31250       -0.31250
 BRILLOUIN|   243           0.00391       -0.06250        0.31250       -0.18750
 BRILLOUIN|   244           0.00391       -0.06250        0.31250       -0.06250
 BRILLOUIN|   245           0.00391       -0.06250        0.31250        0.06250
 BRILLOUIN|   246           0.00391       -0.06250        0.31250        0.18750
 BRILLOUIN|   247           0.00391       -0.06250        0.31250        0.31250
 BRILLOUIN|   248           0.00391       -0.06250        0.31250        0.43750
 BRILLOUIN|   249           0.00391       -0.06250        0.43750       -0.43750
 BRILLOUIN|   250           0.00391       -0.06250        0.43750       -0.31250
 BRILLOUIN|   251           0.00391       -0.06250        0.43750       -0.18750
 BRILLOUIN|   252           0.00391       -0.06250        0.43750       -0.06250
 BRILLOUIN|   253           0.00391       -0.06250        0.43750        0.06250
 BRILLOUIN|   254           0.00391       -0.06250        0.43750        0.18750
 BRILLOUIN|   255           0.00391       -0.06250        0.43750        0.31250
 BRILLOUIN|   256           0.00391       -0.06250        0.43750        0.43750
 *******************************************************************************

 *******************************************************************************
 *******************************************************************************
 **                                                                           **
 **     #####                         ##              ##                      **
 **    ##   ##            ##          ##              ##                      **
 **   ##     ##                       ##            ######                    **
 **   ##     ##  ##   ##  ##   #####  ##  ##   ####   ##    #####    #####    **
 **   ##     ##  ##   ##  ##  ##      ## ##   ##      ##   ##   ##  ##   ##   **
 **   ##  ## ##  ##   ##  ##  ##      ####     ###    ##   ######   ######    **
 **    ##  ###   ##   ##  ##  ##      ## ##      ##   ##   ##       ##        **
 **     #######   #####   ##   #####  ##  ##  ####    ##    #####   ##        **
 **           ##                                                    ##        **
 **                                                                           **
 **                                                ... make the atoms dance   **
 **                                                                           **
 **            Copyright (C) by CP2K developers group (2000-2025)             **
 **                      J. Chem. Phys. 152, 194103 (2020)                    **
 **                                                                           **
 *******************************************************************************

 DFT| Spin restricted Kohn-Sham (RKS) calculation                            RKS
 DFT| Multiplicity                                                             1
 DFT| Number of spin states                                                    1
 DFT| Charge                                                                   0
 DFT| Self-interaction correction (SIC)                                       NO
 DFT| Cutoffs: density                                              1.000000E-10
 DFT|          gradient                                             1.000000E-10
 DFT|          tau                                                  1.000000E-10
 DFT|          cutoff_smoothing_range                               0.000000E+00
 DFT| XC density smoothing                                                  NONE
 DFT| XC derivatives                                                          PW

 FUNCTIONAL| PBE:
 FUNCTIONAL| J.P.Perdew, K.Burke, M.Ernzerhof, Phys. Rev. Letter, vol. 77, n 18,
 FUNCTIONAL|  pp. 3865-3868, (1996) {spin unpolarized}                          


 QS| Method:                                                                 GPW
 QS| Density plane wave grid type                        NON-SPHERICAL FULLSPACE
 QS| Number of grid levels:                                                    4
 QS| Density cutoff [a.u.]:                                                500.0
 QS| Multi grid cutoff [a.u.]: 1) grid level                               500.0
 QS|                           2) grid level                               166.7
 QS|                           3) grid level                                55.6
 QS|                           4) grid level                                18.5
 QS| Grid level progression factor:                                          3.0
 QS| Relative density cutoff [a.u.]:                                        50.0
 QS| Interaction thresholds: eps_pgf_orb:                                1.0E-16
 QS|                         eps_filter_matrix:                          0.0E+00
 QS|                         eps_core_charge:                            1.0E-18
 QS|                         eps_rho_gspace:                             1.0E-16
 QS|                         eps_rho_rspace:                             1.0E-16
 QS|                         eps_gvg_rspace:                             1.0E-08
 QS|                         eps_ppl:                                    1.0E-02
 QS|                         eps_ppnl:                                   1.0E-10


 ATOMIC KIND INFORMATION

  1. Atomic kind: K                                     Number of atoms:       2

     Orbital Basis Set                                 aug-SZV-MOLOPT-GTH-tier-2

       Number of orbital shell sets:                                           1
       Number of orbital shells:                                               6
       Number of primitive Cartesian functions:                                7
       Number of Cartesian basis functions:                                   15
       Number of spherical basis functions:                                   14
       Norm type:                                                              2

       Normalised Cartesian orbitals:

                        Set   Shell   Orbital            Exponent    Coefficient

                          1       1    2s                0.022000       0.000000
                                                         0.036854       0.007479
                                                         0.163340       0.022041
                                                         0.407596       0.212032
                                                         0.954063       0.362989
                                                         2.714958      -0.456777
                                                         2.891270      -0.180767

                          1       2    3s                0.022000       0.000000
                                                         0.036854       0.065364
                                                         0.163340      -0.005758
                                                         0.407596      -0.146103
                                                         0.954063      -0.143101
                                                         2.714958       0.053001
                                                         2.891270       0.171986

                          1       3    4s                0.022000       0.129141
                                                         0.036854      -0.167025
                                                         0.163340       0.000031
                                                         0.407596       0.000061
                                                         0.954063       0.000116
                                                         2.714958       0.000254
                                                         2.891270       0.000267

                          1       4    3px               0.022000       0.000000
                                                         0.036854      -0.000081
                                                         0.163340      -0.025451
                                                         0.407596      -0.212503
                                                         0.954063      -0.590690
                                                         2.714958      -3.954466
                                                         2.891270       4.178444
                          1       4    3py               0.022000       0.000000
                                                         0.036854      -0.000081
                                                         0.163340      -0.025451
                                                         0.407596      -0.212503
                                                         0.954063      -0.590690
                                                         2.714958      -3.954466
                                                         2.891270       4.178444
                          1       4    3pz               0.022000       0.000000
                                                         0.036854      -0.000081
                                                         0.163340      -0.025451
                                                         0.407596      -0.212503
                                                         0.954063      -0.590690
                                                         2.714958      -3.954466
                                                         2.891270       4.178444

                          1       5    4px               0.022000       0.006753
                                                         0.036854       0.010609
                                                         0.163340       0.000018
                                                         0.407596       0.000055
                                                         0.954063       0.000160
                                                         2.714958       0.000590
                                                         2.891270       0.000638
                          1       5    4py               0.022000       0.006753
                                                         0.036854       0.010609
                                                         0.163340       0.000018
                                                         0.407596       0.000055
                                                         0.954063       0.000160
                                                         2.714958       0.000590
                                                         2.891270       0.000638
                          1       5    4pz               0.022000       0.006753
                                                         0.036854       0.010609
                                                         0.163340       0.000018
                                                         0.407596       0.000055
                                                         0.954063       0.000160
                                                         2.714958       0.000590
                                                         2.891270       0.000638

                          1       6    4dx2              0.022000       0.001268
                                                         0.036854       0.002049
                                                         0.163340       0.001463
                                                         0.407596       0.007247
                                                         0.954063       0.032099
                                                         2.714958       0.200135
                                                         2.891270       0.223430
                          1       6    4dxy              0.022000       0.002197
                                                         0.036854       0.003549
                                                         0.163340       0.002533
                                                         0.407596       0.012552
                                                         0.954063       0.055598
                                                         2.714958       0.346644
                                                         2.891270       0.386993
                          1       6    4dxz              0.022000       0.002197
                                                         0.036854       0.003549
                                                         0.163340       0.002533
                                                         0.407596       0.012552
                                                         0.954063       0.055598
                                                         2.714958       0.346644
                                                         2.891270       0.386993
                          1       6    4dy2              0.022000       0.001268
                                                         0.036854       0.002049
                                                         0.163340       0.001463
                                                         0.407596       0.007247
                                                         0.954063       0.032099
                                                         2.714958       0.200135
                                                         2.891270       0.223430
                          1       6    4dyz              0.022000       0.002197
                                                         0.036854       0.003549
                                                         0.163340       0.002533
                                                         0.407596       0.012552
                                                         0.954063       0.055598
                                                         2.714958       0.346644
                                                         2.891270       0.386993
                          1       6    4dz2              0.022000       0.001268
                                                         0.036854       0.002049
                                                         0.163340       0.001463
                                                         0.407596       0.007247
                                                         0.954063       0.032099
                                                         2.714958       0.200135
                                                         2.891270       0.223430

       Atomic covalent radius [Angstrom]:                                  2.030

       Atomic van der Waals radius [Angstrom]:                             2.750

     GTH Potential information for                                       GTH-PBE

       Description:                       Goedecker-Teter-Hutter pseudopotential
                                           Goedecker et al., PRB 54, 1703 (1996)
                                          Hartwigsen et al., PRB 58, 3641 (1998)
                                                      Krack, TCA 114, 145 (2005)

       Gaussian exponent of the core charge distribution:               3.125000
       Electronic configuration (s p d ...):                               3   6

       Parameters of the local part of the GTH pseudopotential:

                          rloc        C1          C2          C3          C4
                        0.400000   -3.363552   -1.086530

       Parameters of the non-local part of the GTH (SOC) pseudopotential:

                   l      r(l)      h(i,j,l)
                                    k(i,j,l)
                   0    0.305318   17.850623   -5.622649
                                   -5.622649    7.258808
                   1    0.316484    7.333780   -2.460945
                                   -2.460945    2.911829
                                    0.089367   -0.069860
                                   -0.069860    0.082660


 MOLECULE KIND INFORMATION


 All atoms are their own molecule, skipping detailed information


 TOTAL NUMBERS AND MAXIMUM NUMBERS

  Total number of            - Atomic kinds:                                   1
                             - Atoms:                                          2
                             - Shell sets:                                     2
                             - Shells:                                        12
                             - Primitive Cartesian functions:                 14
                             - Cartesian basis functions:                     30
                             - Spherical basis functions:                     28

  Maximum angular momentum of- Orbital basis functions:                        2
                             - Local part of the GTH pseudopotential:          2
                             - Non-local part of the GTH pseudopotential:      3


 MODULE QUICKSTEP: ATOMIC COORDINATES IN ANGSTROM

   Atom Kind Element         X             Y             Z       Z(eff)     Mass
      1    1 K    19      0.000000      0.000000      0.000000   9.0000  39.0983
      2    1 K    19      2.642945      2.642945      2.642945   9.0000  39.0983



 SCF PARAMETERS         Density guess:                                    ATOMIC
                        --------------------------------------------------------
                        max_scf:                                             500
                        max_scf_history:                                       0
                        max_diis:                                              4
                        --------------------------------------------------------
                        eps_scf:                                        1.00E-09
                        eps_scf_history:                                0.00E+00
                        eps_diis:                                       1.00E-01
                        eps_eigval:                                     1.00E-05
                        --------------------------------------------------------
                        level_shift [a.u.]:                             0.000000
                        added MOs                                        19    0
                        --------------------------------------------------------
                        Mixing method:                            BROYDEN_MIXING
                                                charge density mixing in g-space
                        --------------------------------------------------------
                        Smear method:                                FERMI_DIRAC
                        Electronic temperature [K]:                        300.0
                        Electronic temperature [a.u.]:                  9.50E-04
                        Accuracy threshold:                             1.00E-10
                        --------------------------------------------------------
                        No outer SCF

 PW_GRID| Information for grid number                                          1
 PW_GRID| Grid distributed over                                     8 processors
 PW_GRID| Real space group dimensions                                     8    1
 PW_GRID| the grid is blocked:                                                NO
 PW_GRID| Cutoff [a.u.]                                                    500.0
 PW_GRID| spherical cutoff:                                                   NO
 PW_GRID|   Bounds   1            -54      53                Points:         108
 PW_GRID|   Bounds   2            -54      53                Points:         108
 PW_GRID|   Bounds   3            -54      53                Points:         108
 PW_GRID| Volume element (a.u.^3)  0.7912E-03     Volume (a.u.^3)       996.6690
 PW_GRID| Grid span                                                    FULLSPACE
 PW_GRID|   Distribution                         Average         Max         Min
 PW_GRID|   G-Vectors                           157464.0      157464      157464
 PW_GRID|   G-Rays                                1458.0        1458        1458
 PW_GRID|   Real Space Points                   157464.0      163296      151632

 PW_GRID| Information for grid number                                          2
 PW_GRID| Number of the reference grid                                         1
 PW_GRID| Grid distributed over                                     8 processors
 PW_GRID| Real space group dimensions                                     8    1
 PW_GRID| the grid is blocked:                                                NO
 PW_GRID| Cutoff [a.u.]                                                    166.7
 PW_GRID| spherical cutoff:                                                   NO
 PW_GRID|   Bounds   1            -30      29                Points:          60
 PW_GRID|   Bounds   2            -30      29                Points:          60
 PW_GRID|   Bounds   3            -30      29                Points:          60
 PW_GRID| Volume element (a.u.^3)  0.4614E-02     Volume (a.u.^3)       996.6690
 PW_GRID| Grid span                                                    FULLSPACE
 PW_GRID|   Distribution                         Average         Max         Min
 PW_GRID|   G-Vectors                            27000.0       27120       26940
 PW_GRID|   G-Rays                                 450.0         452         449
 PW_GRID|   Real Space Points                    27000.0       28800       25200

 PW_GRID| Information for grid number                                          3
 PW_GRID| Number of the reference grid                                         1
 PW_GRID| Grid distributed over                                     8 processors
 PW_GRID| Real space group dimensions                                     8    1
 PW_GRID| the grid is blocked:                                                NO
 PW_GRID| Cutoff [a.u.]                                                     55.6
 PW_GRID| spherical cutoff:                                                   NO
 PW_GRID|   Bounds   1            -18      17                Points:          36
 PW_GRID|   Bounds   2            -18      17                Points:          36
 PW_GRID|   Bounds   3            -18      17                Points:          36
 PW_GRID| Volume element (a.u.^3)  0.2136E-01     Volume (a.u.^3)       996.6690
 PW_GRID| Grid span                                                    FULLSPACE
 PW_GRID|   Distribution                         Average         Max         Min
 PW_GRID|   G-Vectors                             5832.0        5904        5796
 PW_GRID|   G-Rays                                 162.0         164         161
 PW_GRID|   Real Space Points                     5832.0        6480        5184

 PW_GRID| Information for grid number                                          4
 PW_GRID| Number of the reference grid                                         1
 PW_GRID| Grid distributed over                                     8 processors
 PW_GRID| Real space group dimensions                                     8    1
 PW_GRID| the grid is blocked:                                                NO
 PW_GRID| Cutoff [a.u.]                                                     18.5
 PW_GRID| spherical cutoff:                                                   NO
 PW_GRID|   Bounds   1            -10       9                Points:          20
 PW_GRID|   Bounds   2            -10       9                Points:          20
 PW_GRID|   Bounds   3            -10       9                Points:          20
 PW_GRID| Volume element (a.u.^3)  0.1246         Volume (a.u.^3)       996.6690
 PW_GRID| Grid span                                                    FULLSPACE
 PW_GRID|   Distribution                         Average         Max         Min
 PW_GRID|   G-Vectors                             1000.0        1040         980
 PW_GRID|   G-Rays                                  50.0          52          49
 PW_GRID|   Real Space Points                     1000.0        1200         800

 POISSON| Solver                                                        PERIODIC
 POISSON| Periodicity                                                        XYZ

 RS_GRID| Information for grid number                                          1
 RS_GRID|   Bounds   1            -54      53                Points:         108
 RS_GRID|   Bounds   2            -54      53                Points:         108
 RS_GRID|   Bounds   3            -54      53                Points:         108
 RS_GRID| Real space fully replicated
 RS_GRID| Group size                                                           1

 RS_GRID| Information for grid number                                          2
 RS_GRID|   Bounds   1            -30      29                Points:          60
 RS_GRID|   Bounds   2            -30      29                Points:          60
 RS_GRID|   Bounds   3            -30      29                Points:          60
 RS_GRID| Real space fully replicated
 RS_GRID| Group size                                                           1

 RS_GRID| Information for grid number                                          3
 RS_GRID|   Bounds   1            -18      17                Points:          36
 RS_GRID|   Bounds   2            -18      17                Points:          36
 RS_GRID|   Bounds   3            -18      17                Points:          36
 RS_GRID| Real space fully replicated
 RS_GRID| Group size                                                           1

 RS_GRID| Information for grid number                                          4
 RS_GRID|   Bounds   1            -10       9                Points:          20
 RS_GRID|   Bounds   2            -10       9                Points:          20
 RS_GRID|   Bounds   3            -10       9                Points:          20
 RS_GRID| Real space fully replicated
 RS_GRID| Group size                                                           1

 Number of electrons:                                                         18
 Number of occupied orbitals:                                                  9
 Number of molecular orbitals:                                                28

 Number of orbital functions:                                                 28
 Number of independent orbital functions:                                     28

 Extrapolation method: initial_guess

 Atomic guess: The first density matrix is obtained in terms of atomic orbitals
               and electronic configurations assigned to each atomic kind

 Guess for atomic kind: K

 Electronic structure
    Total number of core electrons                                         10.00
    Total number of valence electrons                                       9.00
    Total number of electrons                                              19.00
    Multiplicity                                                   not specified
    S   [  2.00  2.00] 2.00  1.00
    P   [  6.00] 6.00


 *******************************************************************************
                  Iteration          Convergence                     Energy [au]
 *******************************************************************************
                          1        0.257134E-01                 -28.070805792842
                          2        0.335019E-02                 -28.071129654715
                          3        0.219184E-04                 -28.071133688811
                          4        0.894209E-06                 -28.071133688934

 Energy components [Hartree]           Total Energy ::          -28.071133688934
                                        Band Energy ::           -6.624659035585
                                     Kinetic Energy ::           10.340458572828
                                   Potential Energy ::          -38.411592261762
                                      Virial (-V/T) ::            3.714689439664
                                        Core Energy ::          -46.644826697410
                                          XC Energy ::           -4.163868321500
                                     Coulomb Energy ::           22.737561329977
                       Total Pseudopotential Energy ::          -57.023752921555
                       Local Pseudopotential Energy ::          -62.776209480383
                    Nonlocal Pseudopotential Energy ::            5.752456558828
                                        Confinement ::            0.384676513167

 Orbital energies  State     L     Occupation   Energy[a.u.]          Energy[eV]

                       1     0          2.000      -1.281264          -34.864978
                       2     0          1.000      -0.058358           -1.588006

                       1     1          6.000      -0.667295          -18.158030


 Total Electron Density at R=0:                                         0.002133
 Re-scaling the density matrix to get the right number of electrons
                  # Electrons              Trace(P)               Scaling factor
                           18                18.000                        1.000


 SCF WAVEFUNCTION OPTIMIZATION

  Step     Update method      Time    Convergence         Total energy    Change
  ------------------------------------------------------------------------------
     1 NoMix/Diag. 0.10E+00    7.4     2.00639756       -56.5363632584 -5.65E+01
     2 Broy./Diag. 0.10E+00    8.1     0.00098213       -56.5819872683 -4.56E-02
     3 Broy./Diag. 0.10E+00    8.0     0.02505836       -56.5586052731  2.34E-02
     4 Broy./Diag. 0.10E+00    8.0     0.00077948       -56.5371335013  2.15E-02
     5 Broy./Diag. 0.10E+00    8.1     0.00606041       -56.5378820872 -7.49E-04
     6 Broy./Diag. 0.10E+00    8.0     0.00020490       -56.5301030601  7.78E-03
     7 Broy./Diag. 0.10E+00    8.1     0.00183003       -56.5196911737  1.04E-02
     8 Broy./Diag. 0.10E+00    8.1     0.00001748       -56.5175203741  2.17E-03
     9 Broy./Diag. 0.10E+00    8.1     0.00014702       -56.5168642572  6.56E-04
    10 Broy./Diag. 0.10E+00    8.1     0.00000176       -56.5167518325  1.12E-04
    11 Broy./Diag. 0.10E+00    8.1     0.00001011       -56.5169956067 -2.44E-04
    12 Broy./Diag. 0.10E+00    8.1     0.00000058       -56.5169926869  2.92E-06
    13 Broy./Diag. 0.10E+00    8.1     0.00000556       -56.5169679356  2.48E-05
    14 Broy./Diag. 0.10E+00    8.1     0.00000011       -56.5169649258  3.01E-06
    15 Broy./Diag. 0.10E+00    8.1     0.00000114       -56.5169597096  5.22E-06
    16 Broy./Diag. 0.10E+00    8.1     0.00000004       -56.5169586344  1.08E-06
    17 Broy./Diag. 0.10E+00    8.1     0.00000010       -56.5169585571  7.72E-08
    18 Broy./Diag. 0.10E+00    8.1     0.00000006       -56.5169586504 -9.32E-08
    19 Broy./Diag. 0.10E+00    8.1     7.2719E-09       -56.5169587112 -6.09E-08
    20 Broy./Diag. 0.10E+00    8.1     0.00000002       -56.5169587161 -4.82E-09
    21 Broy./Diag. 0.10E+00    8.1     6.8088E-09       -56.5169587677 -5.16E-08
    22 Broy./Diag. 0.10E+00    8.1     7.9633E-09       -56.5169588040 -3.63E-08
    23 Broy./Diag. 0.10E+00    8.1     2.3257E-09       -56.5169588076 -3.60E-09
    24 Broy./Diag. 0.10E+00    8.1     1.8269E-09       -56.5169588058  1.83E-09
    25 Broy./Diag. 0.10E+00    8.1     3.5260E-09       -56.5169588131 -7.32E-09
    26 Broy./Diag. 0.10E+00    8.1     1.1022E-09       -56.5169588173 -4.18E-09
    27 Broy./Diag. 0.10E+00    8.1     7.1815E-10       -56.5169588220 -4.67E-09

  *** SCF run converged in    27 steps ***


  Electronic density on regular grids:        -18.0000000000       -0.0000000000
  Core density on regular grids:               18.0000000000       -0.0000000000
  Total charge density on r-space grids:       -0.0000000000
  Total charge density g-space grids:          -0.0000000000

  Overlap energy of the core charge distribution:               0.00000000000000
  Self energy of the core charge distribution:               -114.24839066842065
  Core Hamiltonian energy:                                     26.85836427424592
  Hartree energy:                                              39.47433262027221
  Exchange-correlation energy:                                 -8.60107647314921
  Electronic entropic energy:                                  -0.00018857490404
  Fermi energy:                                                 0.05020565103847

  Total energy:                                               -56.51695882195579

 !-----------------------------------------------------------------------------!
                     Mulliken Population Analysis

 #  Atom  Element  Kind  Atomic population                           Net charge
       1     K        1          9.000000                              0.000000
       2     K        1          9.000000                             -0.000000
 # Total charge                             18.000000                 -0.000000

 !-----------------------------------------------------------------------------!

 !-----------------------------------------------------------------------------!
                           Hirshfeld Charges

  #Atom  Element  Kind  Ref Charge     Population                    Net charge
      1       K      1       9.000          9.000                         0.000
      2       K      1       9.000          9.000                        -0.000

  Total Charge                                                           -0.000
 !-----------------------------------------------------------------------------!

 KPOINTS| Band Structure Calculation
 KPOINTS| Number of k-point sets                                               1
 KPOINTS| Number of added MOs/bands                                           -1
 KPOINTS| Number of k-points in set    1                                     148
 KPOINTS| In units of b-vector [2pi/Bohr]
 KPOINTS| Special point     1 not specifi     0.000000     0.000000     0.000000
 KPOINTS| Special point     2 not specifi     0.500000    -0.500000     0.500000
 KPOINTS| Special point     3 not specifi     0.000000     0.000000     0.500000
 KPOINTS| Special point     4 not specifi     0.000000     0.000000     0.000000
 KPOINTS| Time for k-point line                                            2.644

 ENERGY| Total FORCE_EVAL ( QS ) energy [hartree]            -56.516958821955789

 -------------------------------------------------------------------------------
 -                                                                             -
 -                                DBCSR STATISTICS                             -
 -                                                                             -
 -------------------------------------------------------------------------------
 COUNTER                                    TOTAL       BLAS       SMM       ACC
 flops inhomo. stacks                           0       0.0%      0.0%      0.0%
 flops total                         0.000000E+00       0.0%      0.0%      0.0%
 flops max/rank                      0.000000E+00       0.0%      0.0%      0.0%
 matmuls inhomo. stacks                         0       0.0%      0.0%      0.0%
 matmuls total                                  0       0.0%      0.0%      0.0%
 number of processed stacks                     0       0.0%      0.0%      0.0%
 average stack size                                     0.0       0.0       0.0
 marketing flops                     0.000000E+00
 -------------------------------------------------------------------------------
 -                                                                             -
 -                      DBCSR MESSAGE PASSING PERFORMANCE                      -
 -                                                                             -
 -------------------------------------------------------------------------------
 ROUTINE             CALLS      AVE VOLUME [Bytes]
 MP_Bcast                1                     12.
 MP_Allreduce           19                     21.
 MP_Alltoall        642248                   1407.
 -------------------------------------------------------------------------------

 -------------------------------------------------------------------------------
 -                                                                             -
 -                                DBM STATISTICS                               -
 -                                                                             -
 -------------------------------------------------------------------------------
    M  x    N  x    K                                          COUNT     PERCENT
 -------------------------------------------------------------------------------

 -------------------------------------------------------------------------------
 -                                                                             -
 -                                GRID STATISTICS                              -
 -                                                                             -
 -------------------------------------------------------------------------------
 LP    KERNEL             BACKEND                              COUNT     PERCENT
 4     collocate ortho    CPU                                 864024      50.91%
 4     integrate ortho    CPU                                 833166      49.09%
 0     collocate general  CPU                                      4       0.00%
 0     integrate general  CPU                                      2       0.00%
 -------------------------------------------------------------------------------

 MEMORY| Estimated peak process memory [MiB]                                 535

 -------------------------------------------------------------------------------
 ----                             MULTIGRID INFO                            ----
 -------------------------------------------------------------------------------
 count for grid        1:           9312          cutoff [a.u.]          500.00
 count for grid        2:          32998          cutoff [a.u.]          166.67
 count for grid        3:          23642          cutoff [a.u.]           55.56
 count for grid        4:          41134          cutoff [a.u.]           18.52
 total gridlevel count  :         107086

 -------------------------------------------------------------------------------
 -                                                                             -
 -                         MESSAGE PASSING PERFORMANCE                         -
 -                                                                             -
 -------------------------------------------------------------------------------

 ROUTINE             CALLS      AVE VOLUME [Bytes]
 MP_Group                6
 MP_Bcast           252572                   1426.
 MP_Allreduce       221803                     16.
 MP_Sync                 4
 MP_Alltoall           491                7067457.
 MP_SendRecv           798                 415461.
 MP_ISendRecv          763                 407871.
 MP_Wait            174351
 MP_comm_split           4
 MP_ISend           184844                    190.
 MP_IRecv           295040                    121.
 -------------------------------------------------------------------------------


 -------------------------------------------------------------------------------
 -                                                                             -
 -                           R E F E R E N C E S                               -
 -                                                                             -
 -------------------------------------------------------------------------------
 
 CP2K version 2025.1 (Development Version), the CP2K developers group (2025).
 CP2K is freely available from https://www.cp2k.org/ .
 
 T. D. Kuehne, M. Iannuzzi, M. Del Ben, V. V. Rybkin, P. Seewald, F. Stein, T. 
 Laino, R. Z. Khaliullin, O. Schuett, F. Schiffmann, D. Golze, J. Wilhelm, S. 
 Chulkov, M. H. Bani-Hashemian, V. Weber, U. Borstnik, M. Taillefumier, A. S. 
 Jakobovits, A. Lazzaro, H. Pabst, T. Mueller, R. Schade, M. Guidon, S. 
 Andermatt, N. Holmberg, G. K. Schenter, A. Hehn, A. Bussy, F. Belleflamme, G. 
 Tabacchi, A. Gloess, M. Lass, I. Bethune, C. J. Mundy, C. Plessl, M. Watkins, 
 J. VandeVondele, M. Krack, J. Hutter.
 J. Chem. Phys. 152, 194103 (2020).
 CP2K: An electronic structure and molecular dynamics software package - 
 Quickstep: Efficient and accurate electronic structure calculations.
 https://doi.org/10.1063/5.0007045

 O. Schuett, P. Messmer, J. Hutter, J. VandeVondele.
 Electronic Structure Calculations on Graphics Processing Units, 173-190 (2016).
 GPU-Accelerated Sparse Matrix-Matrix Multiplication for Linear Scaling Density 
 Functional Theory.
 https://doi.org/10.1002/9781118670712.ch8

 J. Hutter, M. Iannuzzi, F. Schiffmann, J. VandeVondele.
 WIREs Comput Mol Sci. 4, 15-25 (2014).
 CP2K: atomistic simulations of condensed matter systems.
 https://doi.org/10.1002/wcms.1159

 U. Borstnik, J. VandeVondele, V. Weber, J. Hutter.
 Parallel Comput. 40, 47-58 (2014).
 Sparse matrix multiplication: The distributed block-compressed sparse row 
 library.
 https://doi.org/10.1016/j.parco.2014.03.012

 J. VandeVondele, J. Hutter.
 J. Chem. Phys. 127, 114105 (2007).
 Gaussian basis sets for accurate calculations on molecular systems in gas and 
 condensed phases.
 https://doi.org/10.1063/1.2770708

 J. VandeVondele, M. Krack, F. Mohamed, M. Parrinello, T. Chassaing, J. Hutter.
 Comput. Phys. Commun. 167, 103-128 (2005).
 QUICKSTEP: Fast and accurate density functional calculations using a mixed 
 Gaussian and plane waves approach.
 https://doi.org/10.1016/j.cpc.2004.12.014

 M. Krack.
 Theor. Chem. Acc. 114, 145-152 (2005).
 Pseudopotentials for H to Kr optimized for gradient-corrected 
 exchange-correlation functionals.
 https://doi.org/10.1007/s00214-005-0655-y

 M. Frigo, S. G. Johnson.
 Proc. IEEE 93, 216-231 (2005).
 The design and implementation of FFTW3.
 https://doi.org/10.1109/JPROC.2004.840301

 C. Hartwigsen, S. Goedecker, J. Hutter.
 Phys. Rev. B 58, 3641-3662 (1998).
 Relativistic separable dual-space Gaussian pseudopotentials from H to Rn.
 https://doi.org/10.1103/PhysRevB.58.3641

 G. Lippert, J. Hutter, M. Parrinello.
 Mol. Phys. 92, 477-487 (1997).
 A hybrid Gaussian and plane wave density functional scheme.
 https://doi.org/10.1080/002689797170220

 S. Goedecker, M. Teter, J. Hutter.
 Phys. Rev. B 54, 1703-1710 (1996).
 Separable dual-space Gaussian pseudopotentials.
 https://doi.org/10.1103/PhysRevB.54.1703

 J. P. Perdew, K. Burke, M. Ernzerhof.
 Phys. Rev. Lett. 77, 3865-3868 (1996).
 Generalized gradient approximation made simple.
 https://doi.org/10.1103/PhysRevLett.77.3865


 -------------------------------------------------------------------------------
 -                                                                             -
 -                                T I M I N G                                  -
 -                                                                             -
 -------------------------------------------------------------------------------
 SUBROUTINE                       CALLS  ASD         SELF TIME        TOTAL TIME
                                MAXIMUM       AVERAGE  MAXIMUM  AVERAGE  MAXIMUM
 CP2K                                 1  1.0    0.022    0.024  231.183  231.184
 qs_energies                          1  2.0    0.022    0.110  230.888  230.939
 scf_env_do_scf                       1  3.0    0.000    0.000  222.427  222.427
 scf_env_do_scf_inner_loop           27  4.0    0.064    0.070  222.427  222.427
 do_general_diag_kp                  28  5.9    0.149    0.189  191.476  197.338
 qs_scf_new_mos_kp                   27  5.0    0.000    0.000  188.965  194.823
 mp_alltoall_i22                 109444  8.7  142.718  175.411  142.718  175.411
 dbcsr_desymmetrize_deep          61930  7.4    0.884    1.045  111.138  135.350
 rskp_transform                   14120  6.9   18.061   97.252   18.061   97.252
 dbcsr_complete_redistribute      47514  8.1    1.401    1.692   49.415   57.714
 kpoint_density_transform            27  7.0    0.095    0.113   49.212   49.354
 copy_fm_to_dbcsr                 13824  8.0    0.078    0.092   39.705   47.871
 transform_dmat                    6912  8.0    8.188   44.077    8.188   44.077
 qs_ks_update_qs_env                 27  5.0    0.000    0.000   10.026   35.487
 rebuild_ks_matrix                   27  6.0    0.000    0.000    7.975   33.436
 qs_ks_build_kohn_sham_matrix        27  7.0    0.120    0.125    7.975   33.436
 sum_up_and_integrate                27  8.0    0.000    0.000    6.333   31.726
 integrate_v_rspace                  27  9.0    0.038    0.197    6.332   31.724
 grid_integrate_task_list            27 10.0    5.853   31.154    5.853   31.154
 transfer_rs2pw                     114  8.0    0.002    0.002   16.116   19.821
 transfer_rs2pw_500                  30  8.9    0.130    0.147   16.043   19.746
 mp_sendrecv_dv                     798 10.0   15.958   19.663   15.958   19.663
 qs_rho_update_rho_low               28  5.0    0.000    0.000   17.859   17.876
 calculate_rho_elec                  28  6.0    0.037    0.056   17.858   17.876
 density_rs2pw                       28  7.0    0.001    0.001   14.356   17.614
 grid_collocate_task_list            28  7.0    3.462   17.184    3.462   17.184
 copy_dbcsr_to_fm                 33690  6.8    0.322    0.375   15.717   15.924
 cp_dbcsr_alloc_block_from_nbl    19239  5.0    0.787    3.979    0.823    4.081
 dbcsr_finalize                  153372  7.9    0.538    0.586    3.761    4.080
 write_kpoints_restart               27  5.0    0.023    0.029    3.722    3.722
 mp_alltoall_d11v                328332  9.3    3.202    3.408    3.202    3.408
 qs_energies_init_hamiltonians        1  3.0    0.000    0.000    3.243    3.243
 cp_fm_start_copy_general         42064  7.3    0.466    0.747    3.162    3.212
 dbcsr_dot                       147151  8.0    0.585    0.747    2.867    3.086
 mp_cart_sub                      67382  8.8    2.764    2.783    2.764    2.783
 mp_sum_d                        147785  9.0    2.391    2.775    2.391    2.775
 build_core_hamiltonian_matrix        1  4.0    0.010    0.010    0.589    2.532
 qs_env_update_s_mstruct              1  4.0    0.000    0.000    2.112    2.451
 calculate_rho_core                   1  5.0    0.001    0.002    1.967    2.424
 dbcsr_merge_all                  47514 10.1    1.423    1.583    2.164    2.323
 hybrid_alltoall_any              61930  8.4    0.236    0.272    2.116    2.258
 evaluate_core_matrix_traces         27  6.0    0.000    0.000    2.051    2.051
 calculate_ptrace_kp                 54  7.0    0.108    0.114    2.051    2.051
 mp_alltoall_i11v                204472  8.9    1.885    1.940    1.885    1.940
 init_scf_run                         1  3.0    0.000    0.000    1.606    1.822
 scf_env_initial_rho_setup            1  4.0    0.000    0.000    1.606    1.822
 mp_cart_create                   33697  8.8    1.540    1.606    1.540    1.606
 dbcsr_copy                      163699  6.7    0.827    0.925    1.273    1.536
 mp_allgather_i                   84128  8.3    1.234    1.342    1.234    1.342
 dbcsr_create_new                323376  7.8    0.957    1.070    1.160    1.300
 cp_fm_write_unformatted           5450  6.0    1.019    1.259    1.028    1.294
 self_consistency_check              27  5.0    0.103    0.105    1.188    1.220
 fft_wrap_pw1pw2                    491 10.0    0.005    0.005    1.197    1.219
 mixing_allocate                      1  3.0    0.015    0.016    0.272    1.198
 calculate_first_density_matrix       1  5.0    0.002    0.002    0.935    1.151
 fft_wrap_pw1pw2_500                326 11.3    0.087    0.089    1.123    1.147
 calculate_atomic_block_dm            1  6.0    0.001    0.001    0.929    1.146
 mp_bcast_iv                     168280  8.3    0.993    1.135    0.993    1.135
 dbcsr_work_create               109444  8.7    0.650    0.704    0.950    1.083
 dbcsr_iterator_start            522953  8.7    0.882    0.905    1.012    1.030
 cp_sm_mix                        73575  6.0    0.184    0.275    0.987    1.027
 fft3d_ps                           491 12.0    0.384    0.401    0.960    0.985
 qs_vxc_create                       27  8.0    0.000    0.000    0.819    0.821
 xc_vxc_pw_create                    27  9.0    0.033    0.034    0.819    0.820
 dbcsr_work_destroy_all          109444  9.7    0.515    0.528    0.773    0.786
 copy_dbcsr_to_fm_bc              33690  7.8    0.307    0.322    0.702    0.730
 dbcsr_data_new                 1202853  9.6    0.539    0.729    0.539    0.729
 dbcsr_iterator_stop             522953  8.7    0.576    0.587    0.681    0.699
 gspace_mixing                       26  5.0    0.029    0.030    0.695    0.695
 mp_max_d                         73577  7.0    0.628    0.689    0.628    0.689
 tree_to_linear_d                 47514 11.1    0.549    0.672    0.549    0.672
 copy_fm_to_dbcsr_bc              13824  9.0    0.170    0.199    0.577    0.663
 build_overlap_matrix_low             1  5.0    0.022    0.044    0.148    0.630
 calculate_ecore_overlap              1  4.0    0.000    0.000    0.511    0.629
 build_kinetic_matrix_low             1  5.0    0.022    0.043    0.147    0.629
 dbcsr_data_release             1849666  9.9    0.569    0.601    0.569    0.601
 qs_env_rebuild_rho                   1  5.0    0.000    0.000    0.134    0.597
 qs_rho_rebuild                       1  6.0    0.007    0.008    0.134    0.597
 broyden_mixing                      26  6.0    0.554    0.563    0.572    0.575
 mp_sum_iv                           24  5.3    0.464    0.572    0.464    0.572
 qs_scf_ensure_work_matrices          1  3.0    0.000    0.000    0.463    0.572
 mp_alltoall_z22v                   491 14.0    0.508    0.548    0.508    0.548
 xc_pw_derive                       162 11.0    0.001    0.001    0.524    0.537
 dbcsr_destroy                   176226  7.6    0.278    0.302    0.475    0.529
 cp_cfm_geeig_canon                 901  6.9    0.005    0.006    0.463    0.471
 potential_pw2rs                     27 10.0    0.002    0.002    0.441    0.467
 xc_rho_set_and_dset_create          27 10.0    0.021    0.024    0.443    0.453
 build_core_ppnl                      1  5.0    0.089    0.445    0.089    0.445
 cp_cfm_heevd                      1802  7.9    0.002    0.002    0.429    0.435
 cp_cfm_heevd_base                 1802  8.9    0.427    0.433    0.427    0.433
 dbcsr_set                       239363  7.3    0.206    0.220    0.297    0.364
 dbcsr_copy_into_existing         16549  9.3    0.122    0.264    0.212    0.360
 mp_waitall_1                    174351  8.3    0.198    0.356    0.198    0.356
 xc_pw_divergence                    27 10.0    0.000    0.000    0.338    0.350
 mp_bcast_im                      84128  8.3    0.305    0.348    0.305    0.348
 quick_finalize                   61930  9.4    0.154    0.200    0.252    0.342
 kpoint_set_mo_occupation            27  7.0    0.292    0.298    0.316    0.326
 yz_to_x                            221 12.8    0.024    0.025    0.286    0.320
 x_to_yz                            270 13.2    0.039    0.042    0.285    0.295
 mp_comm_free                    101113  8.8    0.221    0.278    0.221    0.278
 transfer_pw2rs                     109 11.0    0.001    0.001    0.265    0.265
 transfer_pw2rs_500                  28 11.9    0.110    0.116    0.203    0.205
 build_core_ppl                       1  5.0    0.031    0.167    0.031    0.167
 dbcsr_iterator_seek             522953  9.7    0.130    0.167    0.130    0.167
 mp_sum_dv                          322  3.3    0.091    0.165    0.091    0.165
 dbcsr_reserve_blocks             33063  8.1    0.063    0.131    0.080    0.160
 xc_functional_eval                  27 11.0    0.000    0.000    0.147    0.158
 pbe_lda_eval                        27 12.0    0.147    0.157    0.147    0.157
 dbcsr_make_index_exist          323376  8.8    0.135    0.153    0.135    0.153
 dbcsr_zero                      239363  8.3    0.090    0.144    0.090    0.144
 dbcsr_sort_indices              142507 10.7    0.088    0.134    0.088    0.134
 scf_post_calculation_gpw             1  3.0    0.000    0.000    0.132    0.132
 write_available_results              1  4.0    0.000    0.000    0.131    0.131
 write_mo_free_results                1  5.0    0.002    0.002    0.131    0.131
 cp_fm_finish_copy_general        17428  7.8    0.067    0.079    0.089    0.118
 kpoint_density_matrices             27  7.0    0.008    0.008    0.106    0.109
 merge_index                      47514 11.1    0.096    0.102    0.096    0.102
 restraint_control                    1  2.0    0.000    0.000    0.051    0.102
 mp_sum_i                             4  2.8    0.051    0.102    0.051    0.102
 parallel_gemm_fm                  3456  8.0    0.003    0.003    0.096    0.100
 parallel_gemm_fm_gemm             3456  9.0    0.003    0.003    0.093    0.096
 cp_fm_gemm                        3456 10.0    0.090    0.093    0.090    0.093
 dbcsr_reserve_all_blocks         13824 10.0    0.019    0.025    0.071    0.090
 parser_read_line                  5105  4.1    0.002    0.002    0.086    0.088
 parser_read_line_low                23  6.2    0.008    0.033    0.085    0.087
 broadcast_input_information         23  7.2    0.025    0.030    0.076    0.082
 pw_scatter_p                       270 12.2    0.078    0.081    0.078    0.081
 mp_irecv_iv                     168256  8.3    0.010    0.078    0.010    0.078
 pw_poisson_solve                    27  8.0    0.000    0.000    0.074    0.074
 dbcsr_switch_data_area           61930 10.4    0.056    0.057    0.072    0.074
 qs_init_subsys                       1  2.0    0.001    0.002    0.071    0.071
 qs_env_setup                         1  3.0    0.000    0.000    0.068    0.069
 qs_env_rebuild_pw_env                2  3.5    0.000    0.000    0.068    0.069
 pw_env_rebuild                       1  5.0    0.000    0.001    0.068    0.068
 mp_isend_dv                      42656  8.2    0.058    0.065    0.058    0.065
 hirshfeld_integration                1  6.0    0.015    0.059    0.065    0.065
 topology_control                     1  2.0    0.000    0.000    0.062    0.062
 qs_create_task_list                  1  5.0    0.000    0.000    0.011    0.058
 generate_qs_task_list                1  6.0    0.008    0.043    0.011    0.058
 cp_fm_cleanup_copy_general       29968  7.0    0.034    0.036    0.053    0.058
 mp_isendrecv_dv                    763 13.0    0.024    0.057    0.024    0.057
 transfer_rs2pw_170                  28  9.0    0.021    0.022    0.052    0.056
 create_qs_kind_set                   1  2.0    0.000    0.000    0.056    0.056
 read_qs_kind                         1  3.0    0.026    0.029    0.056    0.056
 kpoint_init_cell_index               2  3.5    0.036    0.048    0.053    0.056
 mp_isend_iv                      94792  8.3    0.015    0.055    0.015    0.055
 calculate_hirshfeld_normalizat       1  6.0    0.011    0.043    0.051    0.051
 transfer_pw2rs_170                  27 12.0    0.020    0.021    0.045    0.050
 mp_comm_size                    148117  9.0    0.037    0.050    0.037    0.050
 pw_grid_setup                        4  6.0    0.000    0.000    0.049    0.050
 pw_grid_setup_internal               4  7.0    0.001    0.002    0.049    0.050
 fft_wrap_pw1pw2_170                 55 10.5    0.003    0.004    0.046    0.049
 pw_integral_ab_c1d_c1d_gs           27  9.0    0.043    0.044    0.047    0.047
 read_cell_cif                        2  4.5    0.002    0.004    0.042    0.043
 dbcsr_distribution_new           47516  8.4    0.033    0.043    0.033    0.043
 mp_comm_rank                    148117  9.0    0.034    0.042    0.034    0.042
 dbcsr_get_data_size_used        109444  9.7    0.034    0.042    0.034    0.042
 coordinate_control                   1  3.0    0.001    0.001    0.038    0.038
 coordinate_control_READ_COORDI       1  4.0    0.000    0.000    0.037    0.038
 read_coordinate_cif                  1  5.0    0.002    0.002    0.037    0.038
 dbcsr_make_dbcsr_index          142507 10.7    0.034    0.038    0.034    0.038
 mp_bcast_i_src                      92  8.2    0.032    0.038    0.032    0.038
 mp_irecv_im2                     84128  8.3    0.005    0.038    0.005    0.038
 pw_gather_p                        221 11.8    0.036    0.037    0.036    0.037
 mp_sum_dm3                          27  8.0    0.025    0.036    0.025    0.036
 mp_recv_dv                       16350  7.0    0.004    0.035    0.004    0.035
 pw_grid_sort                         4  8.0    0.022    0.023    0.032    0.033
 dbcsr_data_copy_aa2              47514 10.9    0.018    0.030    0.018    0.030
 pw_copy                            405 10.5    0.029    0.030    0.029    0.030
 cp_cfm_gemm                       2703  7.9    0.026    0.027    0.026    0.027
 mixing_init                          1  5.0    0.026    0.027    0.027    0.027
 mp_irecv_dv                      42656  8.2    0.023    0.026    0.023    0.026
 mp_isend_im2                     47396  8.3    0.006    0.025    0.006    0.025
 pw_derive                          243 11.3    0.022    0.023    0.022    0.023
 -------------------------------------------------------------------------------

 The number of warnings for this run is : 1
 
 -------------------------------------------------------------------------------
  **** **** ******  **  PROGRAM ENDED AT                 2025-08-04 16:19:32.599
 ***** ** ***  *** **   PROGRAM RAN ON                              i05r11c06s04
 **    ****   ******    PROGRAM RAN BY                                   di38fab
 ***** **    ** ** **   PROGRAM PROCESS ID                               1978573
  **** **  *******  **  PROGRAM STOPPED IN /hppfs/scratch/04/di38fab/09_GTH/Delt
                                           a_Set/K/aug-SZV-MOLOPT-GTH-tier-2/8x8
                                           x8
