Hf                                      
   1.00000000000000     
     3.202730    0.000000    0.000000
     1.601365    2.773646    0.000000
     0.000000    0.000000    5.064930
   Hf
     2
Direct
  0.000000  0.000000  0.000000
  0.333333  0.333333  0.500000
 
   28   28   48
  159.66      159.66      157.79      149.94      133.07      107.87      78.833      51.939      31.689      19.358    
  13.224      10.295      8.9075      8.3384      8.1894      8.3386      8.9075      10.295      13.224      19.358    
  31.689      51.939      78.833      107.87      133.07      149.94      157.79      159.66      159.66      158.44    
  153.04      140.00      118.33      90.833      62.912      39.809      24.250      15.773      11.753      9.7773    
  8.8982      8.5803      8.5802      8.8980      9.7774      11.754      15.772      24.250      39.810      62.913    
  90.834      118.33      140.00      153.04      158.44      159.66      157.79      153.04      142.08      123.36    
  98.277      71.072      46.835      29.099      18.541      13.318      10.744      9.5205      9.0180      8.8864    
  9.0177      9.5205      10.745      13.318      18.540      29.099      46.835      71.073      98.277      123.36    
  142.08      153.04      157.79      158.95      149.94      140.00      123.36      100.77      75.370      51.554    
  32.986      21.082      14.803      11.707      10.152      9.4631      9.2157      9.2157      9.4631      10.153    
  11.707      14.803      21.082      32.986      51.554      75.370      100.77      123.36      140.00      149.94    
  154.27      154.27      133.07      118.33      98.277      75.370      53.210      35.141      22.877      15.998    
  12.532      10.723      9.8712      9.5260      9.4373      9.5261      9.8712      10.723      12.532      15.998    
  22.877      35.141      53.210      75.371      98.277      118.33      133.07      141.71      144.51      141.71    
  107.87      90.833      71.072      51.554      35.141      23.524      16.669      13.090      11.157      10.199    
  9.7831      9.6389      9.6390      9.7831      10.199      11.157      13.090      16.669      23.524      35.141    
  51.554      71.073      90.835      107.87      120.05      126.29      126.29      120.05      78.833      62.912    
  46.835      32.986      22.877      16.669      13.287      11.392      10.411      9.9642      9.7932      9.7522    
  9.7934      9.9641      10.410      11.391      13.287      16.669      22.877      32.986      46.835      62.913    
  78.834      92.117      100.83      103.85      100.83      92.116      51.939      39.809      29.099      21.082    
  15.998      13.090      11.392      10.484      10.057      9.8879      9.8371      9.8372      9.8881      10.057    
  10.484      11.391      13.090      15.998      21.082      29.098      39.808      51.938      63.553      72.635    
  77.599      77.599      72.634      63.552      31.689      24.250      18.541      14.803      12.532      11.157    
  10.411      10.057      9.9196      9.8814      9.8761      9.8815      9.9199      10.058      10.411      11.157    
  12.532      14.804      18.541      24.249      31.687      39.851      47.266      52.442      54.298      52.442    
  47.267      39.852      19.358      15.773      13.318      11.707      10.723      10.199      9.9642      9.8879    
  9.8814      9.8910      9.8908      9.8813      9.8883      9.9648      10.199      10.723      11.707      13.319    
  15.773      19.358      23.882      28.633      32.614      34.885      34.885      32.614      28.634      23.883    
  13.224      11.753      10.744      10.152      9.8712      9.7831      9.7932      9.8371      9.8761      9.8908    
  9.8757      9.8368      9.7933      9.7834      9.8713      10.152      10.745      11.754      13.225      15.191    
  17.539      19.846      21.548      22.176      21.548      19.846      17.538      15.190      10.295      9.7773    
  9.5205      9.4631      9.5260      9.6389      9.7522      9.8372      9.8815      9.8813      9.8368      9.7516    
  9.6386      9.5260      9.4630      9.5200      9.7765      10.295      11.084      12.068      13.112      14.022    
  14.560      14.560      14.022      13.111      12.067      11.083      8.9075      8.8982      9.0180      9.2157    
  9.4373      9.6390      9.7934      9.8881      9.9199      9.8883      9.7933      9.6386      9.4370      9.2158    
  9.0179      8.8973      8.9062      9.0762      9.3994      9.8198      10.241      10.553      10.669      10.554    
  10.241      9.8195      9.3994      9.0770      8.3384      8.5803      8.8864      9.2157      9.5261      9.7831    
  9.9641      10.057      10.058      9.9648      9.7834      9.5260      9.2158      8.8870      8.5810      8.3384    
  8.1896      8.1452      8.1923      8.2953      8.4054      8.4752      8.4752      8.4055      8.2954      8.1927    
  8.1459      8.1902      8.1894      8.5802      9.0177      9.4631      9.8712      10.199      10.410      10.484    
  10.411      10.199      9.8713      9.4630      9.0179      8.5810      8.1904      7.8719      7.6359      7.4793    
  7.3889      7.3460      7.3305      7.3272      7.3302      7.3458      7.3891      7.4796      7.6358      7.8712    
  8.3386      8.8980      9.5205      10.153      10.723      11.157      11.391      11.391      11.157      10.723    
  10.152      9.5200      8.8973      8.3384      7.8719      7.5037      7.2250      7.0218      6.8809      6.7923    
  6.7493      6.7491      6.7919      6.8808      7.0218      7.2247      7.5029      7.8713      8.9075      9.7774    
  10.745      11.707      12.532      13.090      13.287      13.090      12.532      11.707      10.745      9.7765    
  8.9062      8.1896      7.6359      7.2250      6.9266      6.7142      6.5704      6.4861      6.4582      6.4860    
  6.5705      6.7145      6.9266      7.2247      7.6359      8.1903      10.295      11.754      13.318      14.803    
  15.998      16.669      16.669      15.998      14.804      13.319      11.754      10.295      9.0762      8.1452    
  7.4793      7.0218      6.7142      6.5121      6.3881      6.3287      6.3288      6.3884      6.5124      6.7144    
  7.0219      7.4796      8.1459      9.0769      13.224      15.772      18.540      21.082      22.877      23.524    
  22.877      21.082      18.541      15.773      13.225      11.084      9.3994      8.1923      7.3889      6.8809    
  6.5704      6.3881      6.2926      6.2630      6.2929      6.3883      6.5702      6.8808      7.3891      8.1926    
  9.3994      11.083      19.358      24.250      29.099      32.986      35.141      35.141      32.986      29.098    
  24.249      19.358      15.191      12.068      9.8198      8.2953      7.3460      6.7923      6.4861      6.3287    
  6.2630      6.2631      6.3288      6.4859      6.7919      7.3459      8.2953      9.8195      12.068      15.190    
  31.689      39.810      46.835      51.554      53.210      51.554      46.835      39.808      31.687      23.882    
  17.539      13.112      10.241      8.4054      7.3305      6.7493      6.4582      6.3288      6.2929      6.3288    
  6.4580      6.7491      7.3306      8.4055      10.241      13.112      17.539      23.883      51.939      62.913    
  71.073      75.370      75.371      71.073      62.913      51.938      39.851      28.633      19.846      14.022    
  10.553      8.4752      7.3272      6.7491      6.4860      6.3884      6.3883      6.4859      6.7491      7.3275    
  8.4754      10.553      14.022      19.846      28.634      39.852      78.833      90.834      98.277      100.77    
  98.277      90.835      78.834      63.553      47.266      32.614      21.548      14.560      10.669      8.4752    
  7.3302      6.7919      6.5705      6.5124      6.5702      6.7919      7.3306      8.4754      10.669      14.559    
  21.548      32.614      47.266      63.552      107.87      118.33      123.36      123.36      118.33      107.87    
  92.117      72.635      52.442      34.885      22.176      14.560      10.554      8.4055      7.3458      6.8808    
  6.7145      6.7144      6.8808      7.3459      8.4055      10.553      14.559      22.176      34.885      52.442    
  72.633      92.116      133.07      140.00      142.08      140.00      133.07      120.05      100.83      77.599    
  54.298      34.885      21.548      14.022      10.241      8.2954      7.3891      7.0218      6.9266      7.0219    
  7.3891      8.2953      10.241      14.022      21.548      34.885      54.298      77.599      100.83      120.05    
  149.94      153.04      153.04      149.94      141.71      126.29      103.85      77.599      52.442      32.614    
  19.846      13.111      9.8195      8.1927      7.4796      7.2247      7.2247      7.4796      8.1926      9.8195    
  13.112      19.846      32.614      52.442      77.599      103.85      126.29      141.71      157.79      158.44    
  157.79      154.27      144.51      126.29      100.83      72.634      47.267      28.634      17.538      12.067    
  9.3994      8.1459      7.6358      7.5029      7.6359      8.1459      9.3994      12.068      17.539      28.634    
  47.266      72.633      100.83      126.29      144.51      154.27      159.66      159.66      158.95      154.27    
  141.71      120.05      92.116      63.552      39.852      23.883      15.190      11.083      9.0770      8.1902    
  7.8712      7.8713      8.1903      9.0769      11.083      15.190      23.883      39.852      63.552      92.116    
  120.05      141.71      154.27      158.95      159.53      159.23      156.62      147.94      130.54      105.29    
  76.649      50.396      30.783      18.920      13.035      10.206      8.8671      8.3189      8.1756      8.3190    
  8.8671      10.206      13.035      18.920      30.784      50.396      76.649      105.29      130.54      147.94    
  156.62      159.23      159.23      157.50      151.35      137.67      115.75      88.468      61.094      38.640    
  23.626      15.491      11.622      9.7134      8.8661      8.5604      8.5603      8.8660      9.7135      11.622    
  15.491      23.626      38.641      61.095      88.468      115.75      137.67      151.35      157.50      159.23    
  156.62      151.35      139.84      120.82      95.837      69.081      45.459      28.302      18.153      13.140    
  10.654      9.4736      8.9901      8.8637      8.9898      9.4735      10.654      13.140      18.153      28.302    
  45.459      69.081      95.838      120.82      139.84      151.35      156.62      158.00      147.94      137.67    
  120.82      98.314      73.299      50.051      32.058      20.599      14.577      11.589      10.090      9.4262    
  9.1887      9.1886      9.4262      10.090      11.589      14.577      20.598      32.058      50.050      73.299    
  98.314      120.82      137.67      147.94      152.52      152.52      130.54      115.75      95.837      73.299    
  51.664      34.143      22.326      15.729      12.391      10.646      9.8255      9.4941      9.4092      9.4942    
  9.8255      10.646      12.392      15.730      22.326      34.143      51.664      73.299      95.838      115.75    
  130.54      139.30      142.15      139.30      105.29      88.468      69.081      50.051      34.143      22.950    
  16.376      12.934      11.068      10.146      9.7467      9.6089      9.6089      9.7468      10.146      11.068    
  12.934      16.377      22.950      34.143      50.051      69.082      88.469      105.29      117.38      123.61    
  123.61      117.38      76.649      61.094      45.459      32.058      22.326      16.376      13.126      11.297    
  10.353      9.9245      9.7613      9.7223      9.7614      9.9244      10.353      11.297      13.126      16.377    
  22.326      32.058      45.459      61.095      76.651      89.682      98.257      101.24      98.256      89.681    
  50.396      38.640      28.302      20.599      15.729      12.934      11.297      10.425      10.016      9.8546    
  9.8067      9.8069      9.8547      10.016      10.424      11.297      12.934      15.729      20.599      28.302    
  38.639      50.395      61.690      70.545      75.394      75.393      70.544      61.690      30.783      23.626    
  18.153      14.577      12.391      11.068      10.353      10.016      9.8858      9.8507      9.8461      9.8508    
  9.8861      10.016      10.353      11.068      12.391      14.577      18.153      23.626      30.782      38.662    
  45.838      50.855      52.656      50.855      45.838      38.663      18.920      15.491      13.140      11.589    
  10.646      10.146      9.9245      9.8546      9.8507      9.8610      9.8609      9.8506      9.8550      9.9251    
  10.146      10.646      11.589      13.141      15.492      18.920      23.256      27.821      31.653      33.842    
  33.843      31.654      27.822      23.256      13.035      11.622      10.654      10.090      9.8255      9.7467    
  9.7613      9.8067      9.8461      9.8609      9.8457      9.8064      9.7614      9.7471      9.8257      10.090    
  10.654      11.622      13.036      14.916      17.159      19.365      20.995      21.597      20.995      19.365    
  17.159      14.915      10.206      9.7134      9.4736      9.4262      9.4941      9.6089      9.7223      9.8069    
  9.8508      9.8506      9.8064      9.7218      9.6086      9.4941      9.4261      9.4731      9.7127      10.206    
  10.962      11.908      12.907      13.776      14.289      14.289      13.776      12.907      11.907      10.961    
  8.8671      8.8661      8.9901      9.1887      9.4092      9.6089      9.7614      9.8547      9.8861      9.8550    
  9.7614      9.6086      9.4088      9.1887      8.9900      8.8654      8.8660      9.0226      9.3282      9.7288    
  10.132      10.431      10.541      10.431      10.132      9.7286      9.3282      9.0233      8.3189      8.5604    
  8.8637      9.1886      9.4942      9.7468      9.9244      10.016      10.016      9.9251      9.7471      9.4941    
  9.1887      8.8642      8.5610      8.3189      8.1675      8.1175      8.1567      8.2509      8.3535      8.4190    
  8.4190      8.3536      8.2511      8.1570      8.1182      8.1680      8.1756      8.5603      8.9898      9.4262    
  9.8255      10.146      10.353      10.424      10.353      10.146      9.8257      9.4261      8.9900      8.5610    
  8.1765      7.8615      7.6264      7.4684      7.3753      7.3291      7.3111      7.3068      7.3108      7.3289    
  7.3754      7.4687      7.6263      7.8609      8.3190      8.8660      9.4735      10.090      10.646      11.068    
  11.297      11.297      11.068      10.646      10.090      9.4731      8.8654      8.3189      7.8615      7.4990    
  7.2232      7.0206      6.8791      6.7894      6.7457      6.7455      6.7890      6.8790      7.0206      7.2229    
  7.4983      7.8610      8.8671      9.7135      10.654      11.589      12.392      12.934      13.126      12.934    
  12.391      11.589      10.654      9.7127      8.8660      8.1675      7.6264      7.2232      6.9286      6.7177    
  6.5740      6.4894      6.4613      6.4893      6.5741      6.7180      6.9287      7.2229      7.6264      8.1682    
  10.206      11.622      13.140      14.577      15.730      16.377      16.377      15.729      14.577      13.141    
  11.622      10.206      9.0226      8.1175      7.4684      7.0206      6.7177      6.5173      6.3937      6.3341    
  6.3342      6.3939      6.5176      6.7179      7.0207      7.4687      8.1181      9.0232      13.035      15.491    
  18.153      20.598      22.326      22.950      22.326      20.599      18.153      15.492      13.036      10.962    
  9.3282      8.1567      7.3753      6.8791      6.5740      6.3937      6.2985      6.2689      6.2988      6.3938    
  6.5738      6.8789      7.3754      8.1570      9.3281      10.961      18.920      23.626      28.302      32.058    
  34.143      34.143      32.058      28.302      23.626      18.920      14.916      11.908      9.7288      8.2509    
  7.3291      6.7894      6.4894      6.3341      6.2689      6.2690      6.3342      6.4892      6.7890      7.3289    
  8.2510      9.7285      11.907      14.915      30.784      38.641      45.459      50.050      51.664      50.051    
  45.459      38.639      30.782      23.256      17.159      12.907      10.132      8.3535      7.3111      6.7457    
  6.4613      6.3342      6.2988      6.3342      6.4612      6.7456      7.3111      8.3537      10.132      12.907    
  17.159      23.257      50.396      61.095      69.081      73.299      73.299      69.082      61.095      50.395    
  38.662      27.821      19.365      13.776      10.431      8.4190      7.3068      6.7455      6.4893      6.3939    
  6.3938      6.4892      6.7456      7.3070      8.4192      10.431      13.776      19.366      27.822      38.663    
  76.649      88.468      95.838      98.314      95.838      88.469      76.651      61.690      45.838      31.653    
  20.995      14.289      10.541      8.4190      7.3108      6.7890      6.5741      6.5176      6.5738      6.7890    
  7.3111      8.4192      10.541      14.289      20.996      31.654      45.838      61.689      105.29      115.75    
  120.82      120.82      115.75      105.29      89.682      70.545      50.855      33.842      21.597      14.289    
  10.431      8.3536      7.3289      6.8790      6.7180      6.7179      6.8789      7.3289      8.3537      10.431    
  14.289      21.597      33.843      50.855      70.544      89.680      130.54      137.67      139.84      137.67    
  130.54      117.38      98.257      75.394      52.656      33.843      20.995      13.776      10.132      8.2511    
  7.3754      7.0206      6.9287      7.0207      7.3754      8.2510      10.132      13.776      20.996      33.843    
  52.656      75.394      98.257      117.38      147.94      151.35      151.35      147.94      139.30      123.61    
  101.24      75.393      50.855      31.654      19.365      12.907      9.7286      8.1570      7.4687      7.2229    
  7.2229      7.4687      8.1570      9.7285      12.907      19.366      31.654      50.855      75.394      101.24    
  123.61      139.30      156.62      157.50      156.62      152.52      142.15      123.61      98.256      70.544    
  45.838      27.822      17.159      11.907      9.3282      8.1182      7.6263      7.4983      7.6264      8.1181    
  9.3281      11.907      17.159      27.822      45.838      70.544      98.257      123.61      142.15      152.52    
  159.23      159.23      158.00      152.52      139.30      117.38      89.681      61.690      38.663      23.256    
  14.915      10.961      9.0233      8.1680      7.8609      7.8610      8.1682      9.0232      10.961      14.915    
  23.257      38.663      61.689      89.680      117.38      139.30      152.52      158.00      157.86      156.80    
  152.30      141.56      122.91      97.752      70.401      46.044      28.260      17.709      12.508      9.9547    
  8.7516      8.2617      8.1343      8.2618      8.7516      9.9545      12.508      17.709      28.261      46.044    
  70.401      97.752      122.91      141.56      152.30      156.80      156.80      153.78      145.72      130.50    
  108.12      81.640      55.934      35.364      21.897      14.711      11.250      9.5324      8.7741      8.5023    
  8.5022      8.7739      9.5324      11.250      14.711      21.897      35.364      55.934      81.640      108.12    
  130.50      145.73      153.78      156.80      152.30      145.72      132.89      113.26      88.751      63.397    
  41.585      26.084      17.082      12.640      10.398      9.3400      8.9097      8.7979      8.9094      9.3400    
  10.398      12.640      17.082      26.084      41.586      63.398      88.752      113.26      132.89      145.73    
  152.30      154.21      141.56      130.50      113.26      91.163      67.370      45.804      29.467      19.259    
  13.947      11.258      9.9124      9.3210      9.1112      9.1111      9.3210      9.9124      11.258      13.947    
  19.259      29.467      45.804      67.370      91.163      113.26      130.50      141.56      146.74      146.74    
  122.91      108.12      88.751      67.370      47.292      31.353      20.801      14.984      11.995      10.428    
  9.6963      9.4035      9.3292      9.4036      9.6963      10.428      11.995      14.985      20.801      31.353    
  47.291      67.370      88.752      108.12      122.91      131.90      134.89      131.91      97.752      81.640    
  63.397      45.804      31.353      21.358      15.565      12.494      10.819      9.9966      9.6441      9.5241    
  9.5241      9.6442      9.9965      10.819      12.494      15.565      21.359      31.353      45.804      63.398    
  81.641      97.752      109.52      115.66      115.66      109.52      70.401      55.934      41.585      29.467    
  20.801      15.565      12.670      11.030      10.190      9.8130      9.6716      9.6385      9.6717      9.8129    
  10.190      11.030      12.670      15.565      20.801      29.467      41.585      55.934      70.402      82.664    
  90.806      93.649      90.806      82.663      46.044      35.364      26.084      19.259      14.984      12.494    
  11.030      10.258      9.8995      9.7614      9.7221      9.7222      9.7616      9.8995      10.257      11.030    
  12.493      14.984      19.259      26.084      35.363      46.044      56.409      64.598      69.104      69.103    
  64.597      56.409      28.260      21.897      17.082      13.947      11.995      10.819      10.190      9.8995    
  9.7914      9.7652      9.7628      9.7652      9.7917      9.8998      10.190      10.819      11.995      13.947    
  17.082      21.897      28.259      35.334      41.825      46.388      48.029      46.388      41.826      35.335    
  17.709      14.711      12.640      11.258      10.428      9.9966      9.8130      9.7614      9.7652      9.7779    
  9.7777      9.7651      9.7618      9.8135      9.9969      10.428      11.258      12.640      14.712      17.709    
  21.522      25.567      28.981      30.938      30.938      28.982      25.567      21.523      12.508      11.250    
  10.398      9.9124      9.6963      9.6441      9.6716      9.7221      9.7628      9.7777      9.7625      9.7218    
  9.6717      9.6445      9.6965      9.9125      10.398      11.250      12.508      14.156      16.113      18.042    
  19.472      20.000      19.472      18.042      16.112      14.156      9.9547      9.5324      9.3400      9.3210    
  9.4035      9.5241      9.6385      9.7222      9.7652      9.7651      9.7218      9.6380      9.5237      9.4034    
  9.3211      9.3398      9.5319      9.9545      10.617      11.457      12.339      13.098      13.545      13.545    
  13.098      12.339      11.456      10.617      8.7516      8.7741      8.9097      9.1112      9.3292      9.5241    
  9.6717      9.7616      9.7917      9.7618      9.6717      9.5237      9.3288      9.1110      8.9096      8.7736    
  8.7508      8.8706      9.1275      9.4736      9.8257      10.088      10.186      10.089      9.8258      9.4734    
  9.1275      8.8711      8.2617      8.5023      8.7979      9.1111      9.4036      9.6442      9.8129      9.8995    
  9.8998      9.8135      9.6445      9.4034      9.1110      8.7981      8.5026      8.2617      8.1034      8.0383    
  8.0561      8.1268      8.2091      8.2628      8.2629      8.2092      8.1269      8.0562      8.0387      8.1037    
  8.1343      8.5022      8.9094      9.3210      9.6963      9.9965      10.190      10.257      10.190      9.9969    
  9.6965      9.3211      8.9096      8.5026      8.1348      7.8298      7.5977      7.4367      7.3365      7.2820    
  7.2575      7.2507      7.2572      7.2818      7.3364      7.4368      7.5977      7.8295      8.2618      8.7739    
  9.3400      9.9124      10.428      10.819      11.030      11.030      10.819      10.428      9.9125      9.3398    
  8.7736      8.2617      7.8298      7.4837      7.2163      7.0164      6.8739      6.7820      6.7367      6.7365    
  6.7816      6.8737      7.0164      7.2162      7.4833      7.8296      8.7516      9.5324      10.398      11.258    
  11.995      12.494      12.670      12.493      11.995      11.258      10.398      9.5319      8.7508      8.1034    
  7.5977      7.2163      6.9334      6.7272      6.5845      6.4996      6.4711      6.4994      6.5846      6.7275    
  6.9335      7.2162      7.5977      8.1038      9.9545      11.250      12.640      13.947      14.985      15.565    
  15.565      14.984      13.947      12.640      11.250      9.9545      8.8706      8.0383      7.4367      7.0164    
  6.7272      6.5323      6.4100      6.3505      6.3506      6.4102      6.5326      6.7274      7.0165      7.4368    
  8.0386      8.8710      12.508      14.711      17.082      19.259      20.801      21.359      20.801      19.259    
  17.082      14.712      12.508      10.617      9.1275      8.0561      7.3365      6.8739      6.5845      6.4100    
  6.3163      6.2868      6.3165      6.4102      6.5844      6.8737      7.3365      8.0562      9.1274      10.617    
  17.709      21.897      26.084      29.467      31.353      31.353      29.467      26.084      21.897      17.709    
  14.156      11.457      9.4736      8.1268      7.2820      6.7820      6.4996      6.3505      6.2868      6.2869    
  6.3506      6.4993      6.7816      7.2818      8.1268      9.4734      11.456      14.156      28.261      35.364    
  41.586      45.804      47.291      45.804      41.585      35.363      28.259      21.522      16.113      12.339    
  9.8257      8.2091      7.2575      6.7367      6.4711      6.3506      6.3165      6.3506      6.4710      6.7366    
  7.2575      8.2093      9.8257      12.339      16.112      21.523      46.044      55.934      63.398      67.370    
  67.370      63.398      55.934      46.044      35.334      25.567      18.042      13.098      10.088      8.2628    
  7.2507      6.7365      6.4994      6.4102      6.4102      6.4993      6.7366      7.2510      8.2630      10.089    
  13.098      18.042      25.567      35.334      70.401      81.640      88.752      91.163      88.752      81.641    
  70.402      56.409      41.825      28.981      19.472      13.545      10.186      8.2629      7.2572      6.7816    
  6.5846      6.5326      6.5844      6.7816      7.2575      8.2630      10.186      13.545      19.472      28.982    
  41.825      56.408      97.752      108.12      113.26      113.26      108.12      97.752      82.664      64.598    
  46.388      30.938      20.000      13.545      10.089      8.2092      7.2818      6.8737      6.7275      6.7274    
  6.8737      7.2818      8.2093      10.089      13.545      20.000      30.939      46.388      64.597      82.663    
  122.91      130.50      132.89      130.50      122.91      109.52      90.806      69.104      48.029      30.938    
  19.472      13.098      9.8258      8.1269      7.3364      7.0164      6.9336      7.0165      7.3365      8.1268    
  9.8257      13.098      19.472      30.939      48.029      69.104      90.806      109.52      141.56      145.73    
  145.73      141.56      131.90      115.66      93.649      69.103      46.388      28.982      18.042      12.339    
  9.4734      8.0562      7.4368      7.2162      7.2162      7.4368      8.0562      9.4734      12.339      18.042    
  28.982      46.388      69.104      93.650      115.66      131.91      152.30      153.78      152.30      146.74    
  134.89      115.66      90.806      64.597      41.826      25.567      16.112      11.456      9.1275      8.0387    
  7.5977      7.4833      7.5977      8.0386      9.1274      11.456      16.112      25.567      41.825      64.597    
  90.806      115.66      134.89      146.74      156.80      156.80      154.21      146.74      131.91      109.52    
  82.663      56.409      35.335      21.523      14.156      10.617      8.8711      8.1037      7.8295      7.8296    
  8.1038      8.8710      10.617      14.156      21.523      35.334      56.408      82.663      109.52      131.91    
  146.74      154.21      151.72      149.74      143.00      129.99      110.31      85.955      60.971      39.658    
  24.644      15.998      11.737      9.5837      8.5777      8.1719      8.0673      8.1720      8.5777      9.5836    
  11.736      15.999      24.644      39.658      60.971      85.955      110.31      129.99      143.00      149.74    
  149.74      145.19      134.99      118.25      95.918      71.172      48.261      30.614      19.440      13.600    
  10.703      9.2634      8.6341      8.4112      8.4111      8.6340      9.2635      10.703      13.600      19.440    
  30.615      48.261      71.172      95.918      118.25      134.99      145.19      149.74      143.00      134.99    
  120.84      100.99      77.761      54.862      35.918      22.910      15.563      11.904      10.020      9.1405    
  8.7871      8.6966      8.7869      9.1404      10.020      11.904      15.563      22.909      35.918      54.863    
  77.762      100.99      120.84      134.99      143.00      145.54      129.99      118.25      100.99      80.024    
  58.418      39.553      25.737      17.360      13.032      10.770      9.6497      9.1635      8.9938      8.9938    