Hf                                      
   1.00000000000000     
     3.202730    0.000000    0.000000
     1.601365    2.773646    0.000000
     0.000000    0.000000    5.064930
   Hf
     2
Direct
  0.000000  0.000000  0.000000
  0.333333  0.333333  0.500000
 
   28   28   48
 0.15965860061E+03 0.15965710890E+03 0.15778659423E+03 0.14993736406E+03 0.13307333907E+03
 0.10787358081E+03 0.78832984197E+02 0.51938650637E+02 0.31688979527E+02 0.19357758863E+02
 0.13223843223E+02 0.10295178844E+02 0.89074856099E+01 0.83384296925E+01 0.81894089809E+01
 0.83385656349E+01 0.89075340155E+01 0.10295039871E+02 0.13223714466E+02 0.19357866067E+02
 0.31689243989E+02 0.51938767926E+02 0.78832803816E+02 0.10787327215E+03 0.13307315834E+03
 0.14993737480E+03 0.15778668001E+03 0.15965716349E+03 0.15965710798E+03 0.15843506827E+03
 0.15303999797E+03 0.14000202290E+03 0.11832961171E+03 0.90833470819E+02 0.62912052464E+02
 0.39809221681E+02 0.24249860773E+02 0.15772504831E+02 0.11753427971E+02 0.97772574028E+01
 0.88981608801E+01 0.85803455857E+01 0.85802159726E+01 0.88980042055E+01 0.97773514583E+01
 0.11753582961E+02 0.15772404955E+02 0.24249726064E+02 0.39809579694E+02 0.62912834941E+02
 0.90833943743E+02 0.11832950878E+03 0.14000222206E+03 0.15304144171E+03 0.15843720607E+03
 0.15965815355E+03 0.15778659143E+03 0.15303999644E+03 0.14208222322E+03 0.12335989728E+03
 0.98276918883E+02 0.71071996949E+02 0.46834677391E+02 0.29099205906E+02 0.18540680549E+02
 0.13317762344E+02 0.10744337785E+02 0.95205279922E+01 0.90180321387E+01 0.88864077594E+01
 0.90177471445E+01 0.95204622109E+01 0.10744601107E+02 0.13317820310E+02 0.18540258617E+02
 0.29098879821E+02 0.46835059145E+02 0.71072707759E+02 0.98277068073E+02 0.12335949936E+03
 0.14208235296E+03 0.15304122595E+03 0.15778792404E+03 0.15895321282E+03 0.14993736015E+03
 0.14000202089E+03 0.12335989694E+03 0.10077018533E+03 0.75370424732E+02 0.51554017421E+02
 0.32985870036E+02 0.21082289123E+02 0.14803372952E+02 0.11706880091E+02 0.10152481722E+02
 0.94631314291E+01 0.92157439606E+01 0.92157110709E+01 0.94631087478E+01 0.10152555166E+02
 0.11706953417E+02 0.14803259073E+02 0.21081981576E+02 0.32985585153E+02 0.51553907367E+02
 0.75370344796E+02 0.10076984281E+03 0.12335919545E+03 0.14000117736E+03 0.14993670667E+03
 0.15426720389E+03 0.15426744400E+03 0.13307333600E+03 0.11832961095E+03 0.98276919661E+02
 0.75370425629E+02 0.53210272002E+02 0.35141181299E+02 0.22876564520E+02 0.15997530408E+02
 0.12532068762E+02 0.10723168372E+02 0.98711732823E+01 0.95260142763E+01 0.94373039096E+01
 0.95261061784E+01 0.98712001841E+01 0.10723152576E+02 0.12532216594E+02 0.15997802824E+02
 0.22876577525E+02 0.35140777409E+02 0.53209912926E+02 0.75370604570E+02 0.98277290123E+02
 0.11832922463E+03 0.13307193654E+03 0.14171068979E+03 0.14450539633E+03 0.14171203892E+03
 0.10787358020E+03 0.90833472351E+02 0.71071999435E+02 0.51554019515E+02 0.35141182284E+02
 0.23524019419E+02 0.16668982102E+02 0.13089961356E+02 0.11157013403E+02 0.10198845695E+02
 0.97831012261E+01 0.96389378368E+01 0.96389917258E+01 0.97831116368E+01 0.10198691361E+02
 0.11156967284E+02 0.13090310934E+02 0.16669448131E+02 0.23524057624E+02 0.35140899644E+02
 0.51554252814E+02 0.71073180258E+02 0.90834830073E+02 0.10787398944E+03 0.12004591461E+03
 0.12629128354E+03 0.12629169909E+03 0.12004647078E+03 0.78832986301E+02 0.62912055956E+02
 0.46834680982E+02 0.32985872671E+02 0.22876565854E+02 0.16668982461E+02 0.13287264666E+02
 0.11391674765E+02 0.10410858068E+02 0.99642249928E+01 0.97932449210E+01 0.97521605469E+01
 0.97933567120E+01 0.99641337009E+01 0.10410490933E+02 0.11391405324E+02 0.13287387904E+02
 0.16669248475E+02 0.22876531056E+02 0.32985603189E+02 0.46834773907E+02 0.62912907097E+02
 0.78834297700E+02 0.92117279118E+02 0.10083080029E+03 0.10385289275E+03 0.10083021862E+03
 0.92116147019E+02 0.51938654322E+02 0.39809225793E+02 0.29099209368E+02 0.21082291309E+02
 0.15997531328E+02 0.13089961473E+02 0.11391674642E+02 0.10484269993E+02 0.10057359156E+02
 0.98878947514E+01 0.98370849781E+01 0.98371961345E+01 0.98880662840E+01 0.10057292064E+02
 0.10483888097E+02 0.11391247274E+02 0.13089799465E+02 0.15997560677E+02 0.21082043775E+02
 0.29098362520E+02 0.39808126974E+02 0.51938130067E+02 0.63552990334E+02 0.72634717902E+02
 0.77599069218E+02 0.77598541843E+02 0.72633673821E+02 0.63552479957E+02 0.31688983159E+02
 0.24249864078E+02 0.18540682846E+02 0.14803374037E+02 0.12532068885E+02 0.11157013049E+02
 0.10410857680E+02 0.10057358957E+02 0.99196046643E+01 0.98814324874E+01 0.98761005106E+01
 0.98815087678E+01 0.99198663376E+01 0.10057670018E+02 0.10410870523E+02 0.11156700961E+02
 0.12531877908E+02 0.14803552764E+02 0.18540717760E+02 0.24249026782E+02 0.31687393449E+02
 0.39851037689E+02 0.47266267049E+02 0.52442205303E+02 0.54297844291E+02 0.52441972166E+02
 0.47266616688E+02 0.39852367508E+02 0.19357761231E+02 0.15772506559E+02 0.13317763154E+02
 0.11706880059E+02 0.10723167829E+02 0.10198845025E+02 0.99642244585E+01 0.98878944363E+01
 0.98814323544E+01 0.98909673343E+01 0.98908314722E+01 0.98813455454E+01 0.98882714331E+01
 0.99648240100E+01 0.10199074140E+02 0.10723030137E+02 0.11707066439E+02 0.13318631869E+02
 0.15773424823E+02 0.19357822076E+02 0.23881750342E+02 0.28633095067E+02 0.32613740535E+02
 0.34884871288E+02 0.34885007169E+02 0.32614304657E+02 0.28634115949E+02 0.23882613263E+02
 0.13223843999E+02 0.11753428211E+02 0.10744337478E+02 0.10152481043E+02 0.98711724798E+01
 0.97831005028E+01 0.97932443696E+01 0.98370845953E+01 0.98761002592E+01 0.98908313373E+01
 0.98756892808E+01 0.98367550399E+01 0.97933373516E+01 0.97833991732E+01 0.98712711147E+01
 0.10152400143E+02 0.10744542608E+02 0.11754236521E+02 0.13224993748E+02 0.15191101738E+02
 0.17538714310E+02 0.19845528954E+02 0.21547633896E+02 0.22175522545E+02 0.21547897473E+02
 0.19845732420E+02 0.17538438543E+02 0.15190208603E+02 0.10295178455E+02 0.97772567971E+01
 0.95205272335E+01 0.94631306197E+01 0.95260135036E+01 0.96389371457E+01 0.97521599449E+01
 0.98371956180E+01 0.98815083458E+01 0.98813452436E+01 0.98367548849E+01 0.97516391952E+01
 0.96386264948E+01 0.95259699601E+01 0.94629997561E+01 0.95199566153E+01 0.97764941171E+01
 0.10294960782E+02 0.11083782338E+02 0.12068494409E+02 0.13112001082E+02 0.14022266861E+02
 0.14559570361E+02 0.14559720541E+02 0.14022333804E+02 0.13111418999E+02 0.12067434898E+02
 0.11083092431E+02 0.89074847839E+01 0.88981600949E+01 0.90180313828E+01 0.92157432077E+01
 0.94373031344E+01 0.96389909253E+01 0.97933559159E+01 0.98880655464E+01 0.99198657160E+01
 0.98882709671E+01 0.97933370542E+01 0.96386263570E+01 0.94370142326E+01 0.92157752309E+01
 0.90179221704E+01 0.88973483518E+01 0.89062319933E+01 0.90761762132E+01 0.93994340912E+01
 0.98198353687E+01 0.10241126513E+02 0.10553305614E+02 0.10668704723E+02 0.10553575880E+02
 0.10241146421E+02 0.98194937485E+01 0.93993874564E+01 0.90769780827E+01 0.83384289325E+01
 0.85803448894E+01 0.88864070257E+01 0.92157102232E+01 0.95261052027E+01 0.97831105887E+01
 0.99641326763E+01 0.10057291155E+02 0.10057669278E+02 0.99648234522E+01 0.97833987834E+01
 0.95259697211E+01 0.92157751267E+01 0.88869855853E+01 0.85809519833E+01 0.83384091965E+01
 0.81895525196E+01 0.81452131095E+01 0.81922533598E+01 0.82952648144E+01 0.84053947334E+01
 0.84751974858E+01 0.84752414547E+01 0.84054787956E+01 0.82954069509E+01 0.81926576334E+01
 0.81459474610E+01 0.81902088386E+01 0.81894083336E+01 0.85802152392E+01 0.90177462403E+01
 0.94631076698E+01 0.98711990118E+01 0.10198690215E+02 0.10410489914E+02 0.10483887252E+02
 0.10410869844E+02 0.10199073598E+02 0.98712706932E+01 0.94629994631E+01 0.90179220152E+01
 0.85809519428E+01 0.81904363288E+01 0.78719490351E+01 0.76359360150E+01 0.74792816040E+01
 0.73889290756E+01 0.73460044236E+01 0.73305441248E+01 0.73271690929E+01 0.73302400308E+01
 0.73457880535E+01 0.73890820785E+01 0.74795797313E+01 0.76358491397E+01 0.78712255251E+01
 0.83385649099E+01 0.88980033081E+01 0.95204611841E+01 0.10152554123E+02 0.10723151640E+02
 0.11156966528E+02 0.11391404738E+02 0.11391246787E+02 0.11156700501E+02 0.10723029682E+02
 0.10152399734E+02 0.95199563255E+01 0.88973482271E+01 0.83384092153E+01 0.78719491061E+01
 0.75037469402E+01 0.72250296229E+01 0.70218173824E+01 0.68809316799E+01 0.67922752423E+01
 0.67493025236E+01 0.67490571252E+01 0.67918651930E+01 0.68808163231E+01 0.70218466033E+01
 0.72246607870E+01 0.75029323926E+01 0.78713482875E+01 0.89075332291E+01 0.97773506811E+01
 0.10744600505E+02 0.11706953114E+02 0.12532216601E+02 0.13090311128E+02 0.13287388091E+02
 0.13089799477E+02 0.12531877688E+02 0.11707066065E+02 0.10744542239E+02 0.97764939043E+01
 0.89062320039E+01 0.81895527114E+01 0.76359362672E+01 0.72250297979E+01 0.69266022972E+01
 0.67142287100E+01 0.65704180954E+01 0.64861455899E+01 0.64581536435E+01 0.64860055790E+01
 0.65704534873E+01 0.67144517677E+01 0.69266069139E+01 0.72247075010E+01 0.76358836916E+01
 0.81903487250E+01 0.10295039497E+02 0.11753583035E+02 0.13317820971E+02 0.14803260266E+02
 0.15997804288E+02 0.16669449493E+02 0.16669249409E+02 0.15997561042E+02 0.14803552647E+02
 0.13318631520E+02 0.11754236226E+02 0.10294960737E+02 0.90761764638E+01 0.81452135648E+01
 0.74792821060E+01 0.70218177815E+01 0.67142289167E+01 0.65120915447E+01 0.63881325774E+01
 0.63287293900E+01 0.63288305312E+01 0.63883854251E+01 0.65123569413E+01 0.67143842995E+01
 0.70219414325E+01 0.74796436462E+01 0.81459199865E+01 0.90768602494E+01 0.13223715239E+02
 0.15772406630E+02 0.18540261107E+02 0.21081984501E+02 0.22876580327E+02 0.23524059785E+02
 0.22876532293E+02 0.21082044135E+02 0.18540717556E+02 0.15773424473E+02 0.13224993598E+02
 0.11083782555E+02 0.93994346519E+01 0.81922541146E+01 0.73889298368E+01 0.68809322937E+01
 0.65704184814E+01 0.63881327369E+01 0.62926138586E+01 0.62630155477E+01 0.62929134721E+01
 0.63882987816E+01 0.65702422739E+01 0.68807595086E+01 0.73891462820E+01 0.81926473271E+01
 0.93993529933E+01 0.11082906429E+02 0.19357868461E+02 0.24249729521E+02 0.29098883895E+02
 0.32985589159E+02 0.35140780669E+02 0.35140901739E+02 0.32985604085E+02 0.29098362534E+02
 0.24249026411E+02 0.19357821791E+02 0.15191101829E+02 0.12068494946E+02 0.98198362461E+01
 0.82952658424E+01 0.73460054047E+01 0.67922760236E+01 0.64861460940E+01 0.63287296294E+01
 0.62630156105E+01 0.62631360947E+01 0.63288256917E+01 0.64858837727E+01 0.67918612421E+01
 0.73458799254E+01 0.82953253309E+01 0.98194765954E+01 0.12067554391E+02 0.15190287788E+02
 0.31689247724E+02 0.39809584133E+02 0.46835063552E+02 0.51553911006E+02 0.53209915335E+02
 0.51554253932E+02 0.46834774027E+02 0.39808126583E+02 0.31687393039E+02 0.23881750264E+02
 0.17538714709E+02 0.13112001919E+02 0.10241127642E+02 0.84053959636E+01 0.73305452645E+01
 0.67493034118E+01 0.64581541956E+01 0.63288307722E+01 0.62929135200E+01 0.63288256819E+01
 0.64580283970E+01 0.67491318443E+01 0.73305534987E+01 0.84055182921E+01 0.10240970375E+02
 0.13111516315E+02 0.17538611292E+02 0.23882776289E+02 0.51938771807E+02 0.62912838692E+02
 0.71072710670E+02 0.75370346502E+02 0.75370605143E+02 0.71073180064E+02 0.62912906583E+02
 0.51938129603E+02 0.39851037517E+02 0.28633095306E+02 0.19845529616E+02 0.14022267880E+02
 0.10553306875E+02 0.84751988333E+01 0.73271703290E+01 0.67490580599E+01 0.64860061170E+01
 0.63883856204E+01 0.63882987968E+01 0.64858837631E+01 0.67491318619E+01 0.73274520468E+01
 0.84754473846E+01 0.10553345263E+02 0.14022269007E+02 0.19845887700E+02 0.28633974786E+02
 0.39852097150E+02 0.78832806176E+02 0.90833945040E+02 0.98277068086E+02 0.10076984191E+03
 0.98277288959E+02 0.90834829190E+02 0.78834297294E+02 0.63552990331E+02 0.47266267319E+02
 0.32613741023E+02 0.21547634627E+02 0.14559571371E+02 0.10668705991E+02 0.84752428461E+01
 0.73302413050E+01 0.67918661144E+01 0.65704539691E+01 0.65123570943E+01 0.65702423083E+01
 0.67918613063E+01 0.73305535959E+01 0.84754474367E+01 0.10668549176E+02 0.14559471819E+02
 0.21548061644E+02 0.32614332671E+02 0.47266104606E+02 0.63551780228E+02 0.10787327181E+03
 0.11832950689E+03 0.12335949653E+03 0.12335919281E+03 0.11832922309E+03 0.10787398919E+03
 0.92117279702E+02 0.72634718676E+02 0.52442205893E+02 0.34884871709E+02 0.22175523043E+02
 0.14559721353E+02 0.10553577063E+02 0.84054801762E+01 0.73457893037E+01 0.68808171739E+01
 0.67144521830E+01 0.67143844655E+01 0.68807596510E+01 0.73458801239E+01 0.84055184528E+01
 0.10553345262E+02 0.14559471689E+02 0.22175676515E+02 0.34885211829E+02 0.52441882412E+02
 0.72633345843E+02 0.92115659309E+02 0.13307315549E+03 0.14000221793E+03 0.14208234900E+03
 0.14000117506E+03 0.13307193648E+03 0.12004591615E+03 0.10083080219E+03 0.77599070488E+02
 0.54297844681E+02 0.34885007064E+02 0.21547897472E+02 0.14022334317E+02 0.10241147489E+02
 0.82954082751E+01 0.73890832352E+01 0.70218473419E+01 0.69266072931E+01 0.70219416938E+01
 0.73891465893E+01 0.82953256146E+01 0.10240970412E+02 0.14022268656E+02 0.21548061033E+02
 0.34885211340E+02 0.54297750913E+02 0.77598656963E+02 0.10083057537E+03 0.12004645281E+03
 0.14993737106E+03 0.15304143756E+03 0.15304122328E+03 0.14993670673E+03 0.14171069230E+03
 0.12629128693E+03 0.10385289532E+03 0.77598542744E+02 0.52441971663E+02 0.32614303664E+02
 0.19845731834E+02 0.13111419249E+02 0.98194947195E+01 0.81926588537E+01 0.74795807327E+01
 0.72246614110E+01 0.72247079115E+01 0.74796440651E+01 0.81926477500E+01 0.98194767438E+01
 0.13111515865E+02 0.19845886588E+02 0.32614331243E+02 0.52441881274E+02 0.77598656527E+02
 0.10385351806E+03 0.12629232567E+03 0.14171172201E+03 0.15778667731E+03 0.15843720385E+03
 0.15778792413E+03 0.15426720681E+03 0.14450540086E+03 0.12629170312E+03 0.10083022053E+03
 0.72633673377E+02 0.47266614844E+02 0.28634114044E+02 0.17538437537E+02 0.12067435032E+02
 0.93993883640E+01 0.81459485326E+01 0.76358499621E+01 0.75029329544E+01 0.76358842115E+01
 0.81459205492E+01 0.93993533354E+01 0.12067554036E+02 0.17538609927E+02 0.28633972593E+02
 0.47266102320E+02 0.72633344387E+02 0.10083057518E+03 0.12629232621E+03 0.14450526296E+03
 0.15426599739E+03 0.15965716262E+03 0.15965815360E+03 0.15895321520E+03 0.15426744847E+03
 0.14171204365E+03 0.12004647367E+03 0.92116147066E+02 0.63552477705E+02 0.39852364437E+02
 0.23882610820E+02 0.15190207526E+02 0.11083092629E+02 0.90769789482E+01 0.81902097407E+01
 0.78712262091E+01 0.78713488827E+01 0.81903493965E+01 0.90768608294E+01 0.11082906376E+02
 0.15190286534E+02 0.23882773716E+02 0.39852093887E+02 0.63551777516E+02 0.92115658338E+02
 0.12004645387E+03 0.14171172411E+03 0.15426599890E+03 0.15895116623E+03 0.15952674585E+03
 0.15922948171E+03 0.15661920156E+03 0.14794461634E+03 0.13054177568E+03 0.10529088451E+03
 0.76649453007E+02 0.50395747508E+02 0.30783403632E+02 0.18919566200E+02 0.13035274981E+02
 0.10206158155E+02 0.88670645740E+01 0.83188875295E+01 0.81755743719E+01 0.83190183304E+01
 0.88671104234E+01 0.10206022642E+02 0.13035148941E+02 0.18919667881E+02 0.30783657445E+02
 0.50395859717E+02 0.76649278361E+02 0.10529058701E+03 0.13054160368E+03 0.14794463170E+03
 0.15661929055E+03 0.15922953879E+03 0.15922948012E+03 0.15750284774E+03 0.15135191985E+03
 0.13767064563E+03 0.11574832048E+03 0.88467749255E+02 0.61094393076E+02 0.38640202407E+02
 0.23626281444E+02 0.15491084045E+02 0.11621579013E+02 0.97134125919E+01 0.88661255414E+01
 0.85604392518E+01 0.85603140323E+01 0.88659740693E+01 0.97135041091E+01 0.11621731526E+02
 0.15490990379E+02 0.23626150323E+02 0.38640548441E+02 0.61095165740E+02 0.88468242643E+02
 0.11574824350E+03 0.13767079221E+03 0.15135318548E+03 0.15750476406E+03 0.15923042385E+03
 0.15661919772E+03 0.15135191793E+03 0.13984246580E+03 0.12082164859E+03 0.95837422069E+02
 0.69080729949E+02 0.45458988950E+02 0.28302420968E+02 0.18153384898E+02 0.13140093888E+02
 0.10653722724E+02 0.94735929702E+01 0.89900784357E+01 0.88636923043E+01 0.89898029483E+01
 0.94735284517E+01 0.10653977223E+02 0.13140152094E+02 0.18152975900E+02 0.28302096279E+02
 0.45459352105E+02 0.69081438321E+02 0.95837613921E+02 0.12082129131E+03 0.13984254405E+03
 0.15135299176E+03 0.15662038631E+03 0.15799762699E+03 0.14794461146E+03 0.13767064318E+03
 0.12082164813E+03 0.98314190556E+02 0.73299373158E+02 0.50050502481E+02 0.32057972608E+02
 0.20598704481E+02 0.14577302747E+02 0.11589334754E+02 0.10089788347E+02 0.94261938797E+01
 0.91886803780E+01 0.91886485257E+01 0.94261707489E+01 0.10089856544E+02 0.11589403319E+02
 0.14577190439E+02 0.20598397995E+02 0.32057675271E+02 0.50050370520E+02 0.73299290164E+02
 0.98313891418E+02 0.12082103343E+03 0.13766989660E+03 0.14794402871E+03 0.15252310445E+03
 0.15252331946E+03 0.13054177201E+03 0.11574831947E+03 0.95837422791E+02 0.73299374057E+02
 0.51664028552E+02 0.34143477415E+02 0.22326442788E+02 0.15729344205E+02 0.12391411275E+02
 0.10645889167E+02 0.98255084490E+01 0.94940988041E+01 0.94091727976E+01 0.94941883802E+01
 0.98255340072E+01 0.10645871199E+02 0.12391551667E+02 0.15729608011E+02 0.22326452915E+02
 0.34143065187E+02 0.51663631600E+02 0.73299493943E+02 0.95837779881E+02 0.11574803565E+03
 0.13054056929E+03 0.13929923906E+03 0.14215255037E+03 0.13930042619E+03 0.10529088375E+03
 0.88467750779E+02 0.69080732469E+02 0.50050504593E+02 0.34143478398E+02 0.22950232374E+02
 0.16376479097E+02 0.12933722351E+02 0.11068479790E+02 0.10145896832E+02 0.97467422685E+01
 0.96088888803E+01 0.96089422500E+01 0.97467551544E+01 0.10145748915E+02 0.11068433414E+02
 0.12934062129E+02 0.16376945402E+02 0.22950292911E+02 0.34143205178E+02 0.50050678830E+02
 0.69081790336E+02 0.88469010517E+02 0.10529130228E+03 0.11738000120E+03 0.12361048384E+03
 0.12361084842E+03 0.11738046953E+03 0.76649455282E+02 0.61094396701E+02 0.45458992603E+02
 0.32057975243E+02 0.22326444092E+02 0.16376479433E+02 0.13125528005E+02 0.11297000898E+02
 0.10353072910E+02 0.99245299965E+01 0.97612831045E+01 0.97222794223E+01 0.97613916198E+01
 0.99244437210E+01 0.10352718344E+02 0.11296735852E+02 0.13125646407E+02 0.16376757926E+02
 0.22326456888E+02 0.32057756777E+02 0.45459077732E+02 0.61095153405E+02 0.76650623723E+02
 0.89681531749E+02 0.98256922630E+02 0.10123640299E+03 0.98256407860E+02 0.89680524985E+02
 0.50395751469E+02 0.38640206650E+02 0.28302424444E+02 0.20598706614E+02 0.15729345058E+02
 0.12933722421E+02 0.11297000756E+02 0.10424785993E+02 0.10015880538E+02 0.98545874335E+01
 0.98067490016E+01 0.98068539758E+01 0.98547497910E+01 0.10015815470E+02 0.10424413743E+02
 0.11296571330E+02 0.12933541491E+02 0.15729368731E+02 0.20598509053E+02 0.28301685076E+02
 0.38639209851E+02 0.50395240218E+02 0.61690387175E+02 0.70545356397E+02 0.75393942552E+02
 0.75393479755E+02 0.70544451347E+02 0.61689976201E+02 0.30783407458E+02 0.23626284779E+02
 0.18153387125E+02 0.14577303725E+02 0.12391411304E+02 0.11068479379E+02 0.10353072499E+02
 0.10015880334E+02 0.98858163427E+01 0.98507040884E+01 0.98461291180E+01 0.98507728811E+01
 0.98860660260E+01 0.10016183719E+02 0.10353084658E+02 0.11068155021E+02 0.12391174960E+02
 0.14577424214E+02 0.18153417714E+02 0.23625542765E+02 0.30781969802E+02 0.38661959239E+02
 0.45837789174E+02 0.50855341531E+02 0.52655805329E+02 0.50855142116E+02 0.45838127146E+02
 0.38663181334E+02 0.18919568600E+02 0.15491085683E+02 0.13140094556E+02 0.11589334583E+02
 0.10645888522E+02 0.10145896105E+02 0.99245294398E+01 0.98545871137E+01 0.98507039552E+01
 0.98610181944E+01 0.98608860801E+01 0.98506181223E+01 0.98549535076E+01 0.99251232423E+01
 0.10146139071E+02 0.10645755708E+02 0.11589465995E+02 0.13140848663E+02 0.15491905615E+02
 0.18919627287E+02 0.23255701844E+02 0.27821177749E+02 0.31653436379E+02 0.33842451115E+02
 0.33842562005E+02 0.31653920991E+02 0.27822079495E+02 0.23256470503E+02 0.13035275642E+02
 0.11621579080E+02 0.10653722239E+02 0.10089787521E+02 0.98255075451E+01 0.97467414870E+01
 0.97612825259E+01 0.98067486077E+01 0.98461288607E+01 0.98608859407E+01 0.98457338389E+01
 0.98064285596E+01 0.97613725717E+01 0.97470512368E+01 0.98256518239E+01 0.10089757709E+02
 0.10653921038E+02 0.11622293225E+02 0.13036286031E+02 0.14916205304E+02 0.17158998362E+02
 0.19365329287E+02 0.20995176146E+02 0.21596780446E+02 0.20995385245E+02 0.19365479086E+02
 0.17158736610E+02 0.14915414158E+02 0.10206157573E+02 0.97134117818E+01 0.94735920265E+01
 0.94261929211E+01 0.94940979226E+01 0.96088881162E+01 0.97222787742E+01 0.98068534294E+01
 0.98507724368E+01 0.98506178018E+01 0.98064283916E+01 0.97217619990E+01 0.96085659314E+01
 0.94940549132E+01 0.94261137168E+01 0.94731250650E+01 0.97127431781E+01 0.10205946722E+02
 0.10961546063E+02 0.11907861648E+02 0.12907049823E+02 0.13776250663E+02 0.14288975683E+02
 0.14289115196E+02 0.13776320278E+02 0.12906537134E+02 0.11906925809E+02 0.10960950215E+02
 0.88670635378E+01 0.88661245504E+01 0.89900774918E+01 0.91886794628E+01 0.94091718896E+01
 0.96089413462E+01 0.97613907456E+01 0.98547489931E+01 0.98860653541E+01 0.98549529974E+01
 0.97613722377E+01 0.96085657712E+01 0.94088423210E+01 0.91886609393E+01 0.89899705941E+01
 0.88654072159E+01 0.88659520775E+01 0.90226013894E+01 0.93282234631E+01 0.97288371758E+01
 0.10131694249E+02 0.10430715563E+02 0.10541335410E+02 0.10430999753E+02 0.10131758822E+02
 0.97285514645E+01 0.93281783082E+01 0.90233098784E+01 0.83188865621E+01 0.85604383454E+01
 0.88636913653E+01 0.91886474856E+01 0.94941872332E+01 0.97467539604E+01 0.99244425749E+01
 0.10015814458E+02 0.10016182888E+02 0.99251226013E+01 0.97470507749E+01 0.94940546199E+01
 0.91886608054E+01 0.88641637561E+01 0.85609550748E+01 0.83188659248E+01 0.81674714889E+01
 0.81175442502E+01 0.81566645640E+01 0.82509353131E+01 0.83535273126E+01 0.84189579897E+01
 0.84190114842E+01 0.83536278655E+01 0.82510684508E+01 0.81570038376E+01 0.81181689027E+01
 0.81680390741E+01 0.81755735065E+01 0.85603130646E+01 0.89898018018E+01 0.94261694317E+01
 0.98255326097E+01 0.10145747563E+02 0.10352717141E+02 0.10424412731E+02 0.10353083826E+02
 0.10146138390E+02 0.98256512818E+01 0.94261133280E+01 0.89899703733E+01 0.85609550012E+01
 0.81764650496E+01 0.78615086978E+01 0.76264236174E+01 0.74684430419E+01 0.73752686623E+01
 0.73290874555E+01 0.73110783529E+01 0.73067511583E+01 0.73107869133E+01 0.73288605730E+01
 0.73753687112E+01 0.74686827786E+01 0.76263401477E+01 0.78608787805E+01 0.83190173510E+01
 0.88659728886E+01 0.94735271210E+01 0.10089855187E+02 0.10645869952E+02 0.11068432357E+02
 0.11296734981E+02 0.11296570577E+02 0.11068154316E+02 0.10645755033E+02 0.10089757113E+02
 0.94731246257E+01 0.88654069820E+01 0.83188658738E+01 0.78615087357E+01 0.74990482696E+01
 0.72231637526E+01 0.70206169948E+01 0.68791053414E+01 0.67894151424E+01 0.67457285154E+01
 0.67454892803E+01 0.67890085755E+01 0.68789775653E+01 0.70206476478E+01 0.72228560887E+01
 0.74983466493E+01 0.78609971504E+01 0.88671093196E+01 0.97135029671E+01 0.10653976213E+02
 0.11589402577E+02 0.12391551216E+02 0.12934061865E+02 0.13125646150E+02 0.12933541087E+02
 0.12391174362E+02 0.11589465290E+02 0.10653920391E+02 0.97127427446E+01 0.88659519244E+01
 0.81674715693E+01 0.76264238030E+01 0.72231638978E+01 0.69286486702E+01 0.67177164696E+01
 0.65740181854E+01 0.64894326217E+01 0.64612727777E+01 0.64892916451E+01 0.65740523393E+01
 0.67179547952E+01 0.69287028606E+01 0.72229013242E+01 0.76263740486E+01 0.81681734080E+01
 0.10206021855E+02 0.11621731104E+02 0.13140152180E+02 0.14577190993E+02 0.15729608797E+02
 0.16376946080E+02 0.16376758201E+02 0.15729368483E+02 0.14577423546E+02 0.13140847837E+02
 0.11622292534E+02 0.10205946366E+02 0.90226014102E+01 0.81175445487E+01 0.74684434455E+01
 0.70206173392E+01 0.67177166532E+01 0.65173103887E+01 0.63936543395E+01 0.63341443609E+01
 0.63342389075E+01 0.63938970921E+01 0.65175792340E+01 0.67178877503E+01 0.70207375235E+01
 0.74687461060E+01 0.81181432147E+01 0.90231933911E+01 0.13035149162E+02 0.15490991372E+02
 0.18152977585E+02 0.20598400023E+02 0.22326454776E+02 0.22950294134E+02 0.22326457230E+02
 0.20598508583E+02 0.18153416763E+02 0.15491904615E+02 0.13036285342E+02 0.10961545862E+02
 0.93282237235E+01 0.81566651201E+01 0.73752693010E+01 0.68791058839E+01 0.65740185332E+01
 0.63936544835E+01 0.62985233589E+01 0.62689207871E+01 0.62988105896E+01 0.63938161216E+01
 0.65738478180E+01 0.68789183105E+01 0.73754306490E+01 0.81569973742E+01 0.93281435137E+01
 0.10960764575E+02 0.18919669555E+02 0.23626152885E+02 0.28302099315E+02 0.32057678152E+02
 0.34143067298E+02 0.34143206146E+02 0.32057756597E+02 0.28301684077E+02 0.23625541460E+02
 0.18919626175E+02 0.14916204710E+02 0.11907861662E+02 0.97288376932E+01 0.82509361163E+01
 0.73290883058E+01 0.67894158489E+01 0.64894330832E+01 0.63341445793E+01 0.62689208447E+01
 0.62690377738E+01 0.63342389148E+01 0.64891778290E+01 0.67890016555E+01 0.73289461818E+01
 0.82509926816E+01 0.97285369372E+01 0.11907036002E+02 0.14915483750E+02 0.30783660317E+02
 0.38640551847E+02 0.45459355372E+02 0.50050372986E+02 0.51663632850E+02 0.50050678814E+02
 0.45459076731E+02 0.38639208347E+02 0.30781968314E+02 0.23255700786E+02 0.17158997949E+02
 0.12907050061E+02 0.10131694988E+02 0.83535283205E+01 0.73110793757E+01 0.67457293419E+01
 0.64612732965E+01 0.63342391360E+01 0.62988106426E+01 0.63342389170E+01 0.64611552165E+01
 0.67455613828E+01 0.73110869563E+01 0.83536663965E+01 0.10131590786E+02 0.12906630049E+02
 0.17158899869E+02 0.23256624257E+02 0.50395862730E+02 0.61095168540E+02 0.69081440286E+02
 0.73299290978E+02 0.73299493660E+02 0.69081789254E+02 0.61095151900E+02 0.50395238646E+02
 0.38661957913E+02 0.27821176910E+02 0.19365329067E+02 0.13776251061E+02 0.10430716454E+02
 0.84189591526E+01 0.73067523147E+01 0.67454901823E+01 0.64892921738E+01 0.63938973001E+01
 0.63938161707E+01 0.64891778628E+01 0.67455614325E+01 0.73070259343E+01 0.84192126612E+01
 0.10430774454E+02 0.13776253841E+02 0.19365631045E+02 0.27821945648E+02 0.38662914923E+02
 0.76649280090E+02 0.88468243402E+02 0.95837613562E+02 0.98313890272E+02 0.95837778473E+02
 0.88469009207E+02 0.76650622589E+02 0.61690386159E+02 0.45837788286E+02 0.31653435765E+02
 0.20995176002E+02 0.14288976119E+02 0.10541336378E+02 0.84190127598E+01 0.73107881620E+01
 0.67890095053E+01 0.65740528490E+01 0.65175794401E+01 0.65738479311E+01 0.67890018098E+01
 0.73110871328E+01 0.84192127614E+01 0.10541184869E+02 0.14288858471E+02 0.20995540237E+02
 0.31653960689E+02 0.45837630086E+02 0.61689279097E+02 0.10529058653E+03 0.11574824178E+03
 0.12082128897E+03 0.12082103144E+03 0.11574803462E+03 0.10529130214E+03 0.89681531905E+02
 0.70545356291E+02 0.50855341025E+02 0.33842450499E+02 0.21596780165E+02 0.14289115550E+02
 0.10431000747E+02 0.83536292162E+01 0.73288618580E+01 0.68789784710E+01 0.67179552840E+01
 0.67178880197E+01 0.68789185858E+01 0.73289465267E+01 0.83536666960E+01 0.10430774567E+02
 0.14288858412E+02 0.21596903367E+02 0.33842774972E+02 0.50855073442E+02 0.70544107387E+02
 0.89680015844E+02 0.13054160132E+03 0.13767078909E+03 0.13984254150E+03 0.13766989579E+03
 0.13054057039E+03 0.11738000326E+03 0.98256924325E+02 0.75393943071E+02 0.52655804739E+02
 0.33842561008E+02 0.20995384632E+02 0.13776320494E+02 0.10131759827E+02 0.82510698299E+01
 0.73753699584E+01 0.70206484873E+01 0.69287033624E+01 0.70207379433E+01 0.73754311485E+01
 0.82509931769E+01 0.10131591039E+02 0.13776253697E+02 0.20995539802E+02 0.33842774589E+02
 0.52655759865E+02 0.75393594329E+02 0.98256705737E+02 0.11738043380E+03 0.14794462894E+03
 0.15135318294E+03 0.15135299112E+03 0.14794403076E+03 0.13929924304E+03 0.12361048792E+03
 0.10123640546E+03 0.75393480014E+02 0.50855140797E+02 0.31653919315E+02 0.19365478098E+02
 0.12906537259E+02 0.97285524889E+01 0.81570051815E+01 0.74686839154E+01 0.72228568564E+01
 0.72229019068E+01 0.74687467399E+01 0.81569980546E+01 0.97285373795E+01 0.12906629923E+02
 0.19365630275E+02 0.31653959581E+02 0.50855072541E+02 0.75393593995E+02 0.10123697879E+03
 0.12361143505E+03 0.13930017641E+03 0.15661928892E+03 0.15750476359E+03 0.15662038851E+03
 0.15252310937E+03 0.14215255631E+03 0.12361085305E+03 0.98256409654E+02 0.70544450365E+02
 0.45838124685E+02 0.27822077144E+02 0.17158735416E+02 0.11906925970E+02 0.93281793565E+01
 0.81181701440E+01 0.76263411398E+01 0.74983473941E+01 0.76263747893E+01 0.81181440514E+01
 0.93281441913E+01 0.11907036051E+02 0.17158898979E+02 0.27821943972E+02 0.45837628281E+02
 0.70544106264E+02 0.98256705654E+02 0.12361143553E+03 0.14215248159E+03 0.15252206552E+03
 0.15922953861E+03 0.15923042527E+03 0.15799763109E+03 0.15252332551E+03 0.13930043197E+03
 0.11738047280E+03 0.89680524876E+02 0.61689973532E+02 0.38663177863E+02 0.23256467842E+02
 0.14915413072E+02 0.10960950549E+02 0.90233109355E+01 0.81680401719E+01 0.78608796608E+01
 0.78609979657E+01 0.81681743486E+01 0.90231943104E+01 0.10960764954E+02 0.14915483045E+02
 0.23256622347E+02 0.38662912369E+02 0.61689276989E+02 0.89680015188E+02 0.11738043477E+03
 0.13930017811E+03 0.15252206663E+03 0.15799581146E+03 0.15786144303E+03 0.15680043832E+03
 0.15229605782E+03 0.14155837123E+03 0.12291184669E+03 0.97751847614E+02 0.70400947170E+02
 0.46044360897E+02 0.28260272838E+02 0.17708830148E+02 0.12507630059E+02 0.99546713372E+01
 0.87515780000E+01 0.82616844556E+01 0.81342785528E+01 0.82618016146E+01 0.87516182974E+01
 0.99545479732E+01 0.12507514833E+02 0.17708920315E+02 0.28260501565E+02 0.46044463816E+02
 0.70400791903E+02 0.97751580477E+02 0.12291169239E+03 0.14155838797E+03 0.15229614347E+03
 0.15680049441E+03 0.15680043615E+03 0.15378103755E+03 0.14572456682E+03 0.13049552750E+03
 0.10811867213E+03 0.81639855743E+02 0.55933562804E+02 0.35363986563E+02 0.21897092302E+02
 0.14711400259E+02 0.11249687914E+02 0.95323558468E+01 0.87740730261E+01 0.85022684490E+01
 0.85021560755E+01 0.87739372634E+01 0.95324413378E+01 0.11249835066E+02 0.14711327593E+02
 0.21896976700E+02 0.35364302191E+02 0.55934303116E+02 0.81640393658E+02 0.10811865734E+03
 0.13049553255E+03 0.14572535895E+03 0.15378236428E+03 0.15680110849E+03 0.15229605315E+03
 0.14572456459E+03 0.13288521339E+03 0.11325773766E+03 0.88751425933E+02 0.63397135330E+02