   2   2   0   0
  0.2249649E+02  0.3202730E-09  0.3202730E-09  0.5064930E-09  0.5000000E-15
  1.000000000000000E-004
  CAR 
 Hf                                      
     22.70218257    -33.05398916  301      4.88325530      1.00000000
    -33.054  0.0000E+00  0.0000E+00
    -32.868  0.0000E+00  0.0000E+00
    -32.682  0.0000E+00  0.0000E+00
    -32.496  0.0000E+00  0.0000E+00
    -32.311  0.0000E+00  0.0000E+00
    -32.125  0.0000E+00  0.0000E+00
    -31.939  0.0000E+00  0.0000E+00
    -31.753  0.0000E+00  0.0000E+00
    -31.567  0.0000E+00  0.0000E+00
    -31.381  0.0000E+00  0.0000E+00
    -31.195  0.0000E+00  0.0000E+00
    -31.010  0.0000E+00  0.0000E+00
    -30.824  0.0000E+00  0.0000E+00
    -30.638  0.1023E-02  0.1902E-03
    -30.452  0.1213E+02  0.2255E+01
    -30.266  0.8966E+01  0.3921E+01
    -30.080  0.4250E+00  0.4000E+01
    -29.894  0.5044E-06  0.4000E+01
    -29.709  0.0000E+00  0.4000E+01
    -29.523  0.0000E+00  0.4000E+01
    -29.337  0.0000E+00  0.4000E+01
    -29.151  0.0000E+00  0.4000E+01
    -28.965  0.0000E+00  0.4000E+01
    -28.779  0.0000E+00  0.4000E+01
    -28.593  0.0000E+00  0.4000E+01
    -28.408  0.0000E+00  0.4000E+01
    -28.222  0.0000E+00  0.4000E+01
    -28.036  0.0000E+00  0.4000E+01
    -27.850  0.0000E+00  0.4000E+01
    -27.664  0.0000E+00  0.4000E+01
    -27.478  0.0000E+00  0.4000E+01
    -27.293  0.0000E+00  0.4000E+01
    -27.107  0.0000E+00  0.4000E+01
    -26.921  0.0000E+00  0.4000E+01
    -26.735  0.0000E+00  0.4000E+01
    -26.549  0.0000E+00  0.4000E+01
    -26.363  0.0000E+00  0.4000E+01
    -26.177  0.0000E+00  0.4000E+01
    -25.992  0.0000E+00  0.4000E+01
    -25.806  0.0000E+00  0.4000E+01
    -25.620  0.0000E+00  0.4000E+01
    -25.434  0.0000E+00  0.4000E+01
    -25.248  0.0000E+00  0.4000E+01
    -25.062  0.0000E+00  0.4000E+01
    -24.876  0.0000E+00  0.4000E+01
    -24.691  0.0000E+00  0.4000E+01
    -24.505  0.0000E+00  0.4000E+01
    -24.319  0.0000E+00  0.4000E+01
    -24.133  0.1867E-16  0.4000E+01
    -23.947  0.3749E-03  0.4000E+01
    -23.761  0.5126E+01  0.4953E+01
    -23.575  0.1243E+02  0.7263E+01
    -23.390  0.1008E+02  0.9137E+01
    -23.204  0.1245E+02  0.1145E+02
    -23.018  0.2953E+01  0.1200E+02
    -22.832  0.2688E-02  0.1200E+02
    -22.646  0.0000E+00  0.1200E+02
    -22.460  0.0000E+00  0.1200E+02
    -22.274  0.0000E+00  0.1200E+02
    -22.089  0.0000E+00  0.1200E+02
    -21.903  0.0000E+00  0.1200E+02
    -21.717  0.0000E+00  0.1200E+02
    -21.531  0.0000E+00  0.1200E+02
    -21.345  0.0000E+00  0.1200E+02
    -21.159  0.0000E+00  0.1200E+02
    -20.973  0.0000E+00  0.1200E+02
    -20.788  0.0000E+00  0.1200E+02
    -20.602  0.0000E+00  0.1200E+02
    -20.416  0.0000E+00  0.1200E+02
    -20.230  0.0000E+00  0.1200E+02
    -20.044  0.0000E+00  0.1200E+02
    -19.858  0.0000E+00  0.1200E+02
    -19.673  0.0000E+00  0.1200E+02
    -19.487  0.0000E+00  0.1200E+02
    -19.301  0.0000E+00  0.1200E+02
    -19.115  0.0000E+00  0.1200E+02
    -18.929  0.0000E+00  0.1200E+02
    -18.743  0.0000E+00  0.1200E+02
    -18.557  0.0000E+00  0.1200E+02
    -18.372  0.0000E+00  0.1200E+02
    -18.186  0.0000E+00  0.1200E+02
    -18.000  0.0000E+00  0.1200E+02
    -17.814  0.0000E+00  0.1200E+02
    -17.628  0.0000E+00  0.1200E+02
    -17.442  0.0000E+00  0.1200E+02
    -17.256  0.0000E+00  0.1200E+02
    -17.071  0.0000E+00  0.1200E+02
    -16.885  0.0000E+00  0.1200E+02
    -16.699  0.0000E+00  0.1200E+02
    -16.513  0.0000E+00  0.1200E+02
    -16.327  0.0000E+00  0.1200E+02
    -16.141  0.0000E+00  0.1200E+02
    -15.955  0.0000E+00  0.1200E+02
    -15.770  0.0000E+00  0.1200E+02
    -15.584  0.0000E+00  0.1200E+02
    -15.398  0.0000E+00  0.1200E+02
    -15.212  0.0000E+00  0.1200E+02
    -15.026  0.0000E+00  0.1200E+02
    -14.840  0.0000E+00  0.1200E+02
    -14.654  0.0000E+00  0.1200E+02
    -14.469  0.0000E+00  0.1200E+02
    -14.283  0.0000E+00  0.1200E+02
    -14.097  0.0000E+00  0.1200E+02
    -13.911  0.0000E+00  0.1200E+02
    -13.725  0.0000E+00  0.1200E+02
    -13.539  0.0000E+00  0.1200E+02
    -13.353  0.0000E+00  0.1200E+02
    -13.168  0.0000E+00  0.1200E+02
    -12.982  0.0000E+00  0.1200E+02
    -12.796  0.0000E+00  0.1200E+02
    -12.610  0.0000E+00  0.1200E+02
    -12.424  0.0000E+00  0.1200E+02
    -12.238  0.0000E+00  0.1200E+02
    -12.052  0.0000E+00  0.1200E+02
    -11.867  0.0000E+00  0.1200E+02
    -11.681  0.0000E+00  0.1200E+02
    -11.495  0.0000E+00  0.1200E+02
    -11.309  0.0000E+00  0.1200E+02
    -11.123  0.0000E+00  0.1200E+02
    -10.937  0.0000E+00  0.1200E+02
    -10.752  0.0000E+00  0.1200E+02
    -10.566  0.0000E+00  0.1200E+02
    -10.380  0.0000E+00  0.1200E+02
    -10.194  0.0000E+00  0.1200E+02
    -10.008  0.0000E+00  0.1200E+02
     -9.822  0.0000E+00  0.1200E+02
     -9.636  0.0000E+00  0.1200E+02
     -9.451  0.0000E+00  0.1200E+02
     -9.265  0.0000E+00  0.1200E+02
     -9.079  0.0000E+00  0.1200E+02
     -8.893  0.0000E+00  0.1200E+02
     -8.707  0.0000E+00  0.1200E+02
     -8.521  0.0000E+00  0.1200E+02
     -8.335  0.0000E+00  0.1200E+02
     -8.150  0.0000E+00  0.1200E+02
     -7.964  0.0000E+00  0.1200E+02
     -7.778  0.0000E+00  0.1200E+02
     -7.592  0.0000E+00  0.1200E+02
     -7.406  0.0000E+00  0.1200E+02
     -7.220  0.0000E+00  0.1200E+02
     -7.034  0.0000E+00  0.1200E+02
     -6.849  0.0000E+00  0.1200E+02
     -6.663  0.0000E+00  0.1200E+02
     -6.477  0.0000E+00  0.1200E+02
     -6.291  0.0000E+00  0.1200E+02
     -6.105  0.0000E+00  0.1200E+02
     -5.919  0.0000E+00  0.1200E+02
     -5.733  0.0000E+00  0.1200E+02
     -5.548  0.0000E+00  0.1200E+02
     -5.362  0.0000E+00  0.1200E+02
     -5.176  0.0000E+00  0.1200E+02
     -4.990  0.0000E+00  0.1200E+02
     -4.804  0.0000E+00  0.1200E+02
     -4.618  0.0000E+00  0.1200E+02
     -4.432  0.0000E+00  0.1200E+02
     -4.247  0.0000E+00  0.1200E+02
     -4.061  0.0000E+00  0.1200E+02
     -3.875  0.0000E+00  0.1200E+02
     -3.689  0.0000E+00  0.1200E+02
     -3.503  0.0000E+00  0.1200E+02
     -3.317  0.0000E+00  0.1200E+02
     -3.132  0.0000E+00  0.1200E+02
     -2.946  0.0000E+00  0.1200E+02
     -2.760  0.1694E-16  0.1200E+02
     -2.574  0.3274E-04  0.1200E+02
     -2.388  0.1626E-01  0.1200E+02
     -2.202  0.9248E-01  0.1202E+02
     -2.016  0.7775E-01  0.1203E+02
     -1.831  0.9509E-01  0.1205E+02
     -1.645  0.2044E+00  0.1209E+02
     -1.459  0.1535E+00  0.1212E+02
     -1.273  0.1926E+00  0.1215E+02
     -1.087  0.1759E+00  0.1219E+02
     -0.901  0.2951E+00  0.1224E+02
     -0.715  0.3111E+00  0.1230E+02
     -0.530  0.2566E+00  0.1235E+02
     -0.344  0.1797E+00  0.1238E+02
     -0.158  0.4086E+00  0.1246E+02
      0.028  0.4804E+00  0.1255E+02
      0.214  0.5231E+00  0.1264E+02
      0.400  0.3775E+00  0.1271E+02
      0.586  0.4049E+00  0.1279E+02
      0.771  0.5208E+00  0.1289E+02
      0.957  0.9639E+00  0.1306E+02
      1.143  0.1023E+01  0.1326E+02
      1.329  0.1098E+01  0.1346E+02
      1.515  0.1222E+01  0.1369E+02
      1.701  0.1744E+01  0.1401E+02
      1.887  0.1424E+01  0.1428E+02
      2.072  0.1278E+01  0.1451E+02
      2.258  0.1068E+01  0.1471E+02
      2.444  0.2258E+01  0.1513E+02
      2.630  0.1434E+01  0.1540E+02
      2.816  0.1814E+01  0.1573E+02
      3.002  0.1852E+01  0.1608E+02
      3.188  0.1340E+01  0.1633E+02
      3.373  0.1796E+01  0.1666E+02
      3.559  0.2343E+01  0.1710E+02
      3.745  0.2065E+01  0.1748E+02
      3.931  0.3020E+01  0.1804E+02
      4.117  0.3555E+01  0.1870E+02
      4.303  0.2838E+01  0.1923E+02
      4.488  0.1360E+01  0.1948E+02
      4.674  0.1440E+01  0.1975E+02
      4.860  0.1134E+01  0.1996E+02
      5.046  0.1873E+01  0.2031E+02
      5.232  0.3166E+01  0.2090E+02
      5.418  0.3532E+01  0.2155E+02
      5.604  0.3682E+01  0.2224E+02
      5.789  0.3133E+01  0.2282E+02
      5.975  0.3096E+01  0.2340E+02
      6.161  0.2572E+01  0.2387E+02
      6.347  0.2783E+01  0.2439E+02
      6.533  0.3195E+01  0.2499E+02
      6.719  0.2690E+01  0.2549E+02
      6.905  0.1824E+01  0.2582E+02
      7.090  0.1643E+01  0.2613E+02
      7.276  0.1153E+01  0.2634E+02
      7.462  0.1112E+01  0.2655E+02
      7.648  0.1367E+01  0.2680E+02
      7.834  0.1372E+01  0.2706E+02
      8.020  0.1026E+01  0.2725E+02
      8.206  0.1216E+01  0.2748E+02
      8.391  0.1469E+01  0.2775E+02
      8.577  0.1310E+01  0.2799E+02
      8.763  0.1157E+01  0.2821E+02
      8.949  0.1221E+01  0.2843E+02
      9.135  0.1365E+01  0.2869E+02
      9.321  0.1811E+01  0.2902E+02
      9.507  0.1621E+01  0.2933E+02
      9.692  0.1895E+01  0.2968E+02
      9.878  0.2154E+01  0.3008E+02
     10.064  0.2525E+01  0.3055E+02
     10.250  0.3222E+01  0.3115E+02
     10.436  0.3223E+01  0.3175E+02
     10.622  0.2737E+01  0.3225E+02
     10.808  0.2594E+01  0.3274E+02
     10.993  0.3218E+01  0.3333E+02
     11.179  0.2399E+01  0.3378E+02
     11.365  0.1193E+01  0.3400E+02
     11.551  0.1919E+01  0.3436E+02
     11.737  0.2105E+01  0.3475E+02
     11.923  0.1236E+01  0.3498E+02
     12.109  0.1206E+01  0.3520E+02
     12.294  0.6939E+00  0.3533E+02
     12.480  0.9890E+00  0.3552E+02
     12.666  0.9340E+00  0.3569E+02
     12.852  0.7802E+00  0.3584E+02
     13.038  0.1020E+01  0.3602E+02
     13.224  0.4079E+00  0.3610E+02
     13.409  0.9785E+00  0.3628E+02
     13.595  0.1363E+01  0.3654E+02
     13.781  0.1085E+01  0.3674E+02
     13.967  0.1566E+01  0.3703E+02
     14.153  0.2017E+01  0.3740E+02
     14.339  0.1217E+01  0.3763E+02
     14.525  0.1453E+01  0.3790E+02
     14.710  0.9842E+00  0.3808E+02
     14.896  0.9027E+00  0.3825E+02
     15.082  0.6941E+00  0.3838E+02
     15.268  0.8128E+00  0.3853E+02
     15.454  0.9423E+00  0.3871E+02
     15.640  0.8714E+00  0.3887E+02
     15.826  0.9869E+00  0.3905E+02
     16.011  0.1280E+01  0.3929E+02
     16.197  0.9912E+00  0.3947E+02
     16.383  0.9799E+00  0.3966E+02
     16.569  0.1749E+01  0.3998E+02
     16.755  0.1266E+01  0.4022E+02
     16.941  0.1296E+01  0.4046E+02
     17.127  0.1649E+01  0.4076E+02
     17.312  0.1462E+01  0.4103E+02
     17.498  0.2054E+01  0.4142E+02
     17.684  0.9454E+01  0.4317E+02
     17.870  0.1373E+02  0.4573E+02
     18.056  0.1982E+01  0.4609E+02
     18.242  0.1810E+01  0.4643E+02
     18.428  0.1524E+01  0.4671E+02
     18.613  0.1537E+01  0.4700E+02
     18.799  0.1218E+01  0.4723E+02
     18.985  0.8877E+00  0.4739E+02
     19.171  0.1046E+01  0.4758E+02
     19.357  0.1016E+01  0.4777E+02
     19.543  0.3471E+00  0.4784E+02
     19.729  0.3404E+00  0.4790E+02
     19.914  0.3055E+00  0.4796E+02
     20.100  0.2105E+00  0.4800E+02
     20.286  0.1663E-01  0.4800E+02
     20.472  0.5002E-05  0.4800E+02
     20.658  0.0000E+00  0.4800E+02
     20.844  0.0000E+00  0.4800E+02
     21.029  0.0000E+00  0.4800E+02
     21.215  0.0000E+00  0.4800E+02
     21.401  0.0000E+00  0.4800E+02
     21.587  0.0000E+00  0.4800E+02
     21.773  0.0000E+00  0.4800E+02
     21.959  0.0000E+00  0.4800E+02
     22.145  0.0000E+00  0.4800E+02
     22.330  0.0000E+00  0.4800E+02
     22.516  0.0000E+00  0.4800E+02
     22.702  0.0000E+00  0.4800E+02
