Hf                                      
           1
     3.202730    0.000000    0.000000
     1.601365    2.773646    0.000000
     0.000000    0.000000    5.064930
   Hf
     2
Direct configuration=     1
   0.00000000  0.00000000  0.00000000
   0.33333333  0.33333333  0.50000000
