 DBCSR| CPU Multiplication driver                                           BLAS (U)
 DBCSR| Multrec recursion limit                                              512 (U)
 DBCSR| Multiplication stack size                                           1000 (D)
 DBCSR| Maximum elements for images                                    UNLIMITED (U)
 DBCSR| Multiplicative factor virtual images                                   1 (U)
 DBCSR| Use multiplication densification                                       T (D)
 DBCSR| Multiplication size stacks                                             3 (U)
 DBCSR| Use memory pool for CPU allocation                                     F (U)
 DBCSR| Number of 3D layers                                               SINGLE (U)
 DBCSR| Use MPI memory allocation                                              F (U)
 DBCSR| Use RMA algorithm                                                      F (U)
 DBCSR| Use Communication thread                                               T (U)
 DBCSR| Communication thread load                                             45 (D)
 DBCSR| MPI: My process id                                                     0
 DBCSR| MPI: Number of processes                                              16
 DBCSR| OMP: Current number of threads                                        12
 DBCSR| OMP: Max number of threads                                            12
 DBCSR| Split modifier for TAS multiplication algorithm                  1.0E+00 (U)


  **** **** ******  **  PROGRAM STARTED AT               2025-08-05 22:27:06.992
 ***** ** ***  *** **   PROGRAM STARTED ON                          i04r01c03s11
 **    ****   ******    PROGRAM STARTED BY                               di38fab
 ***** **    ** ** **   PROGRAM PROCESS ID                               3735197
  **** **  *******  **  PROGRAM STARTED IN /hppfs/scratch/04/di38fab/09_GTH/Delt
                                           a_Set/He/aug-TZVP-MOLOPT-GTH-tier-1/8
                                           x8x8

 CP2K| version string:                 CP2K version 2025.1 (Development Version)
 CP2K| source code revision number:                                  git:3130539
 CP2K| cp2kflags: omp libint fftw3 libxc parallel scalapack max_contr=4         
 CP2K| is freely available from                            https://www.cp2k.org/
 CP2K| Program compiled at                         Tue Jun  3 16:14:32 CEST 2025
 CP2K| Program compiled on                                               login01
 CP2K| Program compiled for                                        Supermuc-foss
 CP2K| Data directory path                  /hppfs/work/pn36zo/di38fab/cp2k/data
 CP2K| Input file name                                                    GW.inp

 GLOBAL| Force Environment number                                              1
 GLOBAL| Basis set file name            /hppfs/scratch/04/di38fab/09_GTH/BASIS_A
 GLOBAL| Potential file name            /hppfs/work/pn36zo/di38fab/cp2k/data/GTH
 GLOBAL| MM Potential file name                                     MM_POTENTIAL
 GLOBAL| Coordinate file name                                             He.cif
 GLOBAL| Method name                                                        CP2K
 GLOBAL| Project name                                                       WSe2
 GLOBAL| Run type                                                         ENERGY
 GLOBAL| FFT library                                                       FFTW3
 GLOBAL| Diagonalization library                                       ScaLAPACK
 GLOBAL| Cholesky decomposition library                                ScaLAPACK
 GLOBAL| DGEMM library                                                      BLAS
 GLOBAL| Orthonormality check for eigenvectors                          DISABLED
 GLOBAL| Matrix multiplication library                                 ScaLAPACK
 GLOBAL| All-to-all communication in single precision                          F
 GLOBAL| FFTs using library dependent lengths                                  F
 GLOBAL| Grid backend                                                       AUTO
 GLOBAL| Global print level                                               MEDIUM
 GLOBAL| MPI I/O enabled                                                       T
 GLOBAL| Total number of message passing processes                            16
 GLOBAL| Number of threads for this process                                   12
 GLOBAL| This output is from process                                           0
 GLOBAL| OpenMP stack size per thread (OMP_STACKSIZE)                    default
 GLOBAL| CPU model name             Intel(R) Xeon(R) Platinum 8174 CPU @ 3.10GHz

 MEMORY| system memory details [Kb]
 MEMORY|                        rank 0           min           max       average
 MEMORY| MemTotal             98436660      98436660      98436896      98436721
 MEMORY| MemFree              84167616      84167616      84713612      84493102
 MEMORY| Buffers                     0             0             0             0
 MEMORY| Cached                2433056       2432052       2462208       2441102
 MEMORY| Slab                  1295416       1271452       1295416       1282365
 MEMORY| SReclaimable           287344        276764        287344        281947
 MEMORY| MemLikelyFree        86888016      86888016      87429232      87216151


 *** Fundamental physical constants (SI units) ***

 *** Literature: B. J. Mohr and B. N. Taylor,
 ***             CODATA recommended values of the fundamental physical
 ***             constants: 2006, Web Version 5.1
 ***             http://physics.nist.gov/constants

 Speed of light in vacuum [m/s]                             2.99792458000000E+08
 Magnetic constant or permeability of vacuum [N/A**2]       1.25663706143592E-06
 Electric constant or permittivity of vacuum [F/m]          8.85418781762039E-12
 Planck constant (h) [J*s]                                  6.62606896000000E-34
 Planck constant (h-bar) [J*s]                              1.05457162825177E-34
 Elementary charge [C]                                      1.60217648700000E-19
 Electron mass [kg]                                         9.10938215000000E-31
 Electron g factor [ ]                                     -2.00231930436220E+00
 Proton mass [kg]                                           1.67262163700000E-27
 Fine-structure constant                                    7.29735253760000E-03
 Rydberg constant [1/m]                                     1.09737315685270E+07
 Avogadro constant [1/mol]                                  6.02214179000000E+23
 Boltzmann constant [J/K]                                   1.38065040000000E-23
 Atomic mass unit [kg]                                      1.66053878200000E-27
 Bohr radius [m]                                            5.29177208590000E-11

 *** Conversion factors ***

 [u] -> [a.u.]                                              1.82288848426455E+03
 [Angstrom] -> [Bohr] = [a.u.]                              1.88972613288564E+00
 [a.u.] = [Bohr] -> [Angstrom]                              5.29177208590000E-01
 [a.u.] -> [s]                                              2.41888432650478E-17
 [a.u.] -> [fs]                                             2.41888432650478E-02
 [a.u.] -> [J]                                              4.35974393937059E-18
 [a.u.] -> [N]                                              8.23872205491840E-08
 [a.u.] -> [K]                                              3.15774647902944E+05
 [a.u.] -> [kJ/mol]                                         2.62549961709828E+03
 [a.u.] -> [kcal/mol]                                       6.27509468713739E+02
 [a.u.] -> [Pa]                                             2.94210107994716E+13
 [a.u.] -> [bar]                                            2.94210107994716E+08
 [a.u.] -> [atm]                                            2.90362800883016E+08
 [a.u.] -> [eV]                                             2.72113838565563E+01
 [a.u.] -> [Hz]                                             6.57968392072181E+15
 [a.u.] -> [1/cm] (wave numbers)                            2.19474631370540E+05
 [a.u./Bohr**2] -> [1/cm]                                   5.14048714338585E+03
 

 CELL_TOP| Volume [angstrom^3]:                                        35.449424
 CELL_TOP| Vector a [angstrom     2.927     0.000     0.000   |a| =     2.926610
 CELL_TOP| Vector b [angstrom     1.463     2.535     0.000   |b| =     2.926610
 CELL_TOP| Vector c [angstrom     0.000     0.000     4.779   |c| =     4.779130
 CELL_TOP| Angle (b,c), alpha [degree]:                                90.000000
 CELL_TOP| Angle (a,c), beta  [degree]:                                90.000000
 CELL_TOP| Angle (a,b), gamma [degree]:                                60.000000
 CELL_TOP| Numerically orthorhombic:                                          NO
 CELL_TOP| Periodicity                                                       XYZ

 CELL_CIF| Volume [angstrom^3]:                                        35.449424
 CELL_CIF| Vector a [angstrom     2.927     0.000     0.000   |a| =     2.926610
 CELL_CIF| Vector b [angstrom     1.463     2.535     0.000   |b| =     2.926610
 CELL_CIF| Vector c [angstrom     0.000     0.000     4.779   |c| =     4.779130
 CELL_CIF| Angle (b,c), alpha [degree]:                                90.000000
 CELL_CIF| Angle (a,c), beta  [degree]:                                90.000000
 CELL_CIF| Angle (a,b), gamma [degree]:                                60.000000
 CELL_CIF| Numerically orthorhombic:                                          NO
 CELL_CIF| Periodicity                                                       XYZ

 GENERATE|  Preliminary Number of Bonds generated:                             0
 GENERATE|  Achieved consistency in connectivity generation.

 CELL| Volume [angstrom^3]:                                            35.449424
 CELL| Vector a [angstrom]:       2.927     0.000     0.000   |a| =     2.926610
 CELL| Vector b [angstrom]:       1.463     2.535     0.000   |b| =     2.926610
 CELL| Vector c [angstrom]:       0.000     0.000     4.779   |c| =     4.779130
 CELL| Angle (b,c), alpha [degree]:                                    90.000000
 CELL| Angle (a,c), beta  [degree]:                                    90.000000
 CELL| Angle (a,b), gamma [degree]:                                    60.000000
 CELL| Numerically orthorhombic:                                              NO
 CELL| Periodicity                                                           XYZ

 CELL_REF| Volume [angstrom^3]:                                        35.449424
 CELL_REF| Vector a [angstrom     2.927     0.000     0.000   |a| =     2.926610
 CELL_REF| Vector b [angstrom     1.463     2.535     0.000   |b| =     2.926610
 CELL_REF| Vector c [angstrom     0.000     0.000     4.779   |c| =     4.779130
 CELL_REF| Angle (b,c), alpha [degree]:                                90.000000
 CELL_REF| Angle (a,c), beta  [degree]:                                90.000000
 CELL_REF| Angle (a,b), gamma [degree]:                                60.000000
 CELL_REF| Numerically orthorhombic:                                          NO
 CELL_REF| Periodicity                                                       XYZ

 *** WARNING in cryssym.F:180 :: Symmetry library SPGLIB not available ***


 *******************************************************************************
                                    Kpoints
 *******************************************************************************
 BRILLOUIN| K-point scheme                                        Monkhorst-Pack
 BRILLOUIN| K-Point grid                                             8    8    8
 BRILLOUIN| Accuracy in Symmetry determination                      0.100000E-05
 BRILLOUIN| K-Point point group symmetrization                               OFF
 BRILLOUIN| Wavefunction type                                            COMPLEX
 BRILLOUIN| List of Kpoints [2 Pi/Bohr]                                      256
 BRILLOUIN| Number           Weight            X              Y              Z
 BRILLOUIN|     1           0.00391       -0.43750       -0.43750       -0.43750
 BRILLOUIN|     2           0.00391       -0.43750       -0.43750       -0.31250
 BRILLOUIN|     3           0.00391       -0.43750       -0.43750       -0.18750
 BRILLOUIN|     4           0.00391       -0.43750       -0.43750       -0.06250
 BRILLOUIN|     5           0.00391       -0.43750       -0.43750        0.06250
 BRILLOUIN|     6           0.00391       -0.43750       -0.43750        0.18750
 BRILLOUIN|     7           0.00391       -0.43750       -0.43750        0.31250
 BRILLOUIN|     8           0.00391       -0.43750       -0.43750        0.43750
 BRILLOUIN|     9           0.00391       -0.43750       -0.31250       -0.43750
 BRILLOUIN|    10           0.00391       -0.43750       -0.31250       -0.31250
 BRILLOUIN|    11           0.00391       -0.43750       -0.31250       -0.18750
 BRILLOUIN|    12           0.00391       -0.43750       -0.31250       -0.06250
 BRILLOUIN|    13           0.00391       -0.43750       -0.31250        0.06250
 BRILLOUIN|    14           0.00391       -0.43750       -0.31250        0.18750
 BRILLOUIN|    15           0.00391       -0.43750       -0.31250        0.31250
 BRILLOUIN|    16           0.00391       -0.43750       -0.31250        0.43750
 BRILLOUIN|    17           0.00391       -0.43750       -0.18750       -0.43750
 BRILLOUIN|    18           0.00391       -0.43750       -0.18750       -0.31250
 BRILLOUIN|    19           0.00391       -0.43750       -0.18750       -0.18750
 BRILLOUIN|    20           0.00391       -0.43750       -0.18750       -0.06250
 BRILLOUIN|    21           0.00391       -0.43750       -0.18750        0.06250
 BRILLOUIN|    22           0.00391       -0.43750       -0.18750        0.18750
 BRILLOUIN|    23           0.00391       -0.43750       -0.18750        0.31250
 BRILLOUIN|    24           0.00391       -0.43750       -0.18750        0.43750
 BRILLOUIN|    25           0.00391       -0.43750       -0.06250       -0.43750
 BRILLOUIN|    26           0.00391       -0.43750       -0.06250       -0.31250
 BRILLOUIN|    27           0.00391       -0.43750       -0.06250       -0.18750
 BRILLOUIN|    28           0.00391       -0.43750       -0.06250       -0.06250
 BRILLOUIN|    29           0.00391       -0.43750       -0.06250        0.06250
 BRILLOUIN|    30           0.00391       -0.43750       -0.06250        0.18750
 BRILLOUIN|    31           0.00391       -0.43750       -0.06250        0.31250
 BRILLOUIN|    32           0.00391       -0.43750       -0.06250        0.43750
 BRILLOUIN|    33           0.00391       -0.43750        0.06250       -0.43750
 BRILLOUIN|    34           0.00391       -0.43750        0.06250       -0.31250
 BRILLOUIN|    35           0.00391       -0.43750        0.06250       -0.18750
 BRILLOUIN|    36           0.00391       -0.43750        0.06250       -0.06250
 BRILLOUIN|    37           0.00391       -0.43750        0.06250        0.06250
 BRILLOUIN|    38           0.00391       -0.43750        0.06250        0.18750
 BRILLOUIN|    39           0.00391       -0.43750        0.06250        0.31250
 BRILLOUIN|    40           0.00391       -0.43750        0.06250        0.43750
 BRILLOUIN|    41           0.00391       -0.43750        0.18750       -0.43750
 BRILLOUIN|    42           0.00391       -0.43750        0.18750       -0.31250
 BRILLOUIN|    43           0.00391       -0.43750        0.18750       -0.18750
 BRILLOUIN|    44           0.00391       -0.43750        0.18750       -0.06250
 BRILLOUIN|    45           0.00391       -0.43750        0.18750        0.06250
 BRILLOUIN|    46           0.00391       -0.43750        0.18750        0.18750
 BRILLOUIN|    47           0.00391       -0.43750        0.18750        0.31250
 BRILLOUIN|    48           0.00391       -0.43750        0.18750        0.43750
 BRILLOUIN|    49           0.00391       -0.43750        0.31250       -0.43750
 BRILLOUIN|    50           0.00391       -0.43750        0.31250       -0.31250
 BRILLOUIN|    51           0.00391       -0.43750        0.31250       -0.18750
 BRILLOUIN|    52           0.00391       -0.43750        0.31250       -0.06250
 BRILLOUIN|    53           0.00391       -0.43750        0.31250        0.06250
 BRILLOUIN|    54           0.00391       -0.43750        0.31250        0.18750
 BRILLOUIN|    55           0.00391       -0.43750        0.31250        0.31250
 BRILLOUIN|    56           0.00391       -0.43750        0.31250        0.43750
 BRILLOUIN|    57           0.00391       -0.43750        0.43750       -0.43750
 BRILLOUIN|    58           0.00391       -0.43750        0.43750       -0.31250
 BRILLOUIN|    59           0.00391       -0.43750        0.43750       -0.18750
 BRILLOUIN|    60           0.00391       -0.43750        0.43750       -0.06250
 BRILLOUIN|    61           0.00391       -0.43750        0.43750        0.06250
 BRILLOUIN|    62           0.00391       -0.43750        0.43750        0.18750
 BRILLOUIN|    63           0.00391       -0.43750        0.43750        0.31250
 BRILLOUIN|    64           0.00391       -0.43750        0.43750        0.43750
 BRILLOUIN|    65           0.00391       -0.31250       -0.43750       -0.43750
 BRILLOUIN|    66           0.00391       -0.31250       -0.43750       -0.31250
 BRILLOUIN|    67           0.00391       -0.31250       -0.43750       -0.18750
 BRILLOUIN|    68           0.00391       -0.31250       -0.43750       -0.06250
 BRILLOUIN|    69           0.00391       -0.31250       -0.43750        0.06250
 BRILLOUIN|    70           0.00391       -0.31250       -0.43750        0.18750
 BRILLOUIN|    71           0.00391       -0.31250       -0.43750        0.31250
 BRILLOUIN|    72           0.00391       -0.31250       -0.43750        0.43750
 BRILLOUIN|    73           0.00391       -0.31250       -0.31250       -0.43750
 BRILLOUIN|    74           0.00391       -0.31250       -0.31250       -0.31250
 BRILLOUIN|    75           0.00391       -0.31250       -0.31250       -0.18750
 BRILLOUIN|    76           0.00391       -0.31250       -0.31250       -0.06250
 BRILLOUIN|    77           0.00391       -0.31250       -0.31250        0.06250
 BRILLOUIN|    78           0.00391       -0.31250       -0.31250        0.18750
 BRILLOUIN|    79           0.00391       -0.31250       -0.31250        0.31250
 BRILLOUIN|    80           0.00391       -0.31250       -0.31250        0.43750
 BRILLOUIN|    81           0.00391       -0.31250       -0.18750       -0.43750
 BRILLOUIN|    82           0.00391       -0.31250       -0.18750       -0.31250
 BRILLOUIN|    83           0.00391       -0.31250       -0.18750       -0.18750
 BRILLOUIN|    84           0.00391       -0.31250       -0.18750       -0.06250
 BRILLOUIN|    85           0.00391       -0.31250       -0.18750        0.06250
 BRILLOUIN|    86           0.00391       -0.31250       -0.18750        0.18750
 BRILLOUIN|    87           0.00391       -0.31250       -0.18750        0.31250
 BRILLOUIN|    88           0.00391       -0.31250       -0.18750        0.43750
 BRILLOUIN|    89           0.00391       -0.31250       -0.06250       -0.43750
 BRILLOUIN|    90           0.00391       -0.31250       -0.06250       -0.31250
 BRILLOUIN|    91           0.00391       -0.31250       -0.06250       -0.18750
 BRILLOUIN|    92           0.00391       -0.31250       -0.06250       -0.06250
 BRILLOUIN|    93           0.00391       -0.31250       -0.06250        0.06250
 BRILLOUIN|    94           0.00391       -0.31250       -0.06250        0.18750
 BRILLOUIN|    95           0.00391       -0.31250       -0.06250        0.31250
 BRILLOUIN|    96           0.00391       -0.31250       -0.06250        0.43750
 BRILLOUIN|    97           0.00391       -0.31250        0.06250       -0.43750
 BRILLOUIN|    98           0.00391       -0.31250        0.06250       -0.31250
 BRILLOUIN|    99           0.00391       -0.31250        0.06250       -0.18750
 BRILLOUIN|   100           0.00391       -0.31250        0.06250       -0.06250
 BRILLOUIN|   101           0.00391       -0.31250        0.06250        0.06250
 BRILLOUIN|   102           0.00391       -0.31250        0.06250        0.18750
 BRILLOUIN|   103           0.00391       -0.31250        0.06250        0.31250
 BRILLOUIN|   104           0.00391       -0.31250        0.06250        0.43750
 BRILLOUIN|   105           0.00391       -0.31250        0.18750       -0.43750
 BRILLOUIN|   106           0.00391       -0.31250        0.18750       -0.31250
 BRILLOUIN|   107           0.00391       -0.31250        0.18750       -0.18750
 BRILLOUIN|   108           0.00391       -0.31250        0.18750       -0.06250
 BRILLOUIN|   109           0.00391       -0.31250        0.18750        0.06250
 BRILLOUIN|   110           0.00391       -0.31250        0.18750        0.18750
 BRILLOUIN|   111           0.00391       -0.31250        0.18750        0.31250
 BRILLOUIN|   112           0.00391       -0.31250        0.18750        0.43750
 BRILLOUIN|   113           0.00391       -0.31250        0.31250       -0.43750
 BRILLOUIN|   114           0.00391       -0.31250        0.31250       -0.31250
 BRILLOUIN|   115           0.00391       -0.31250        0.31250       -0.18750
 BRILLOUIN|   116           0.00391       -0.31250        0.31250       -0.06250
 BRILLOUIN|   117           0.00391       -0.31250        0.31250        0.06250
 BRILLOUIN|   118           0.00391       -0.31250        0.31250        0.18750
 BRILLOUIN|   119           0.00391       -0.31250        0.31250        0.31250
 BRILLOUIN|   120           0.00391       -0.31250        0.31250        0.43750
 BRILLOUIN|   121           0.00391       -0.31250        0.43750       -0.43750
 BRILLOUIN|   122           0.00391       -0.31250        0.43750       -0.31250
 BRILLOUIN|   123           0.00391       -0.31250        0.43750       -0.18750
 BRILLOUIN|   124           0.00391       -0.31250        0.43750       -0.06250
 BRILLOUIN|   125           0.00391       -0.31250        0.43750        0.06250
 BRILLOUIN|   126           0.00391       -0.31250        0.43750        0.18750
 BRILLOUIN|   127           0.00391       -0.31250        0.43750        0.31250
 BRILLOUIN|   128           0.00391       -0.31250        0.43750        0.43750
 BRILLOUIN|   129           0.00391       -0.18750       -0.43750       -0.43750
 BRILLOUIN|   130           0.00391       -0.18750       -0.43750       -0.31250
 BRILLOUIN|   131           0.00391       -0.18750       -0.43750       -0.18750
 BRILLOUIN|   132           0.00391       -0.18750       -0.43750       -0.06250
 BRILLOUIN|   133           0.00391       -0.18750       -0.43750        0.06250
 BRILLOUIN|   134           0.00391       -0.18750       -0.43750        0.18750
 BRILLOUIN|   135           0.00391       -0.18750       -0.43750        0.31250
 BRILLOUIN|   136           0.00391       -0.18750       -0.43750        0.43750
 BRILLOUIN|   137           0.00391       -0.18750       -0.31250       -0.43750
 BRILLOUIN|   138           0.00391       -0.18750       -0.31250       -0.31250
 BRILLOUIN|   139           0.00391       -0.18750       -0.31250       -0.18750
 BRILLOUIN|   140           0.00391       -0.18750       -0.31250       -0.06250
 BRILLOUIN|   141           0.00391       -0.18750       -0.31250        0.06250
 BRILLOUIN|   142           0.00391       -0.18750       -0.31250        0.18750
 BRILLOUIN|   143           0.00391       -0.18750       -0.31250        0.31250
 BRILLOUIN|   144           0.00391       -0.18750       -0.31250        0.43750
 BRILLOUIN|   145           0.00391       -0.18750       -0.18750       -0.43750
 BRILLOUIN|   146           0.00391       -0.18750       -0.18750       -0.31250
 BRILLOUIN|   147           0.00391       -0.18750       -0.18750       -0.18750
 BRILLOUIN|   148           0.00391       -0.18750       -0.18750       -0.06250
 BRILLOUIN|   149           0.00391       -0.18750       -0.18750        0.06250
 BRILLOUIN|   150           0.00391       -0.18750       -0.18750        0.18750
 BRILLOUIN|   151           0.00391       -0.18750       -0.18750        0.31250
 BRILLOUIN|   152           0.00391       -0.18750       -0.18750        0.43750
 BRILLOUIN|   153           0.00391       -0.18750       -0.06250       -0.43750
 BRILLOUIN|   154           0.00391       -0.18750       -0.06250       -0.31250
 BRILLOUIN|   155           0.00391       -0.18750       -0.06250       -0.18750
 BRILLOUIN|   156           0.00391       -0.18750       -0.06250       -0.06250
 BRILLOUIN|   157           0.00391       -0.18750       -0.06250        0.06250
 BRILLOUIN|   158           0.00391       -0.18750       -0.06250        0.18750
 BRILLOUIN|   159           0.00391       -0.18750       -0.06250        0.31250
 BRILLOUIN|   160           0.00391       -0.18750       -0.06250        0.43750
 BRILLOUIN|   161           0.00391       -0.18750        0.06250       -0.43750
 BRILLOUIN|   162           0.00391       -0.18750        0.06250       -0.31250
 BRILLOUIN|   163           0.00391       -0.18750        0.06250       -0.18750
 BRILLOUIN|   164           0.00391       -0.18750        0.06250       -0.06250
 BRILLOUIN|   165           0.00391       -0.18750        0.06250        0.06250
 BRILLOUIN|   166           0.00391       -0.18750        0.06250        0.18750
 BRILLOUIN|   167           0.00391       -0.18750        0.06250        0.31250
 BRILLOUIN|   168           0.00391       -0.18750        0.06250        0.43750
 BRILLOUIN|   169           0.00391       -0.18750        0.18750       -0.43750
 BRILLOUIN|   170           0.00391       -0.18750        0.18750       -0.31250
 BRILLOUIN|   171           0.00391       -0.18750        0.18750       -0.18750
 BRILLOUIN|   172           0.00391       -0.18750        0.18750       -0.06250
 BRILLOUIN|   173           0.00391       -0.18750        0.18750        0.06250
 BRILLOUIN|   174           0.00391       -0.18750        0.18750        0.18750
 BRILLOUIN|   175           0.00391       -0.18750        0.18750        0.31250
 BRILLOUIN|   176           0.00391       -0.18750        0.18750        0.43750
 BRILLOUIN|   177           0.00391       -0.18750        0.31250       -0.43750
 BRILLOUIN|   178           0.00391       -0.18750        0.31250       -0.31250
 BRILLOUIN|   179           0.00391       -0.18750        0.31250       -0.18750
 BRILLOUIN|   180           0.00391       -0.18750        0.31250       -0.06250
 BRILLOUIN|   181           0.00391       -0.18750        0.31250        0.06250
 BRILLOUIN|   182           0.00391       -0.18750        0.31250        0.18750
 BRILLOUIN|   183           0.00391       -0.18750        0.31250        0.31250
 BRILLOUIN|   184           0.00391       -0.18750        0.31250        0.43750
 BRILLOUIN|   185           0.00391       -0.18750        0.43750       -0.43750
 BRILLOUIN|   186           0.00391       -0.18750        0.43750       -0.31250
 BRILLOUIN|   187           0.00391       -0.18750        0.43750       -0.18750
 BRILLOUIN|   188           0.00391       -0.18750        0.43750       -0.06250
 BRILLOUIN|   189           0.00391       -0.18750        0.43750        0.06250
 BRILLOUIN|   190           0.00391       -0.18750        0.43750        0.18750
 BRILLOUIN|   191           0.00391       -0.18750        0.43750        0.31250
 BRILLOUIN|   192           0.00391       -0.18750        0.43750        0.43750
 BRILLOUIN|   193           0.00391       -0.06250       -0.43750       -0.43750
 BRILLOUIN|   194           0.00391       -0.06250       -0.43750       -0.31250
 BRILLOUIN|   195           0.00391       -0.06250       -0.43750       -0.18750
 BRILLOUIN|   196           0.00391       -0.06250       -0.43750       -0.06250
 BRILLOUIN|   197           0.00391       -0.06250       -0.43750        0.06250
 BRILLOUIN|   198           0.00391       -0.06250       -0.43750        0.18750
 BRILLOUIN|   199           0.00391       -0.06250       -0.43750        0.31250
 BRILLOUIN|   200           0.00391       -0.06250       -0.43750        0.43750
 BRILLOUIN|   201           0.00391       -0.06250       -0.31250       -0.43750
 BRILLOUIN|   202           0.00391       -0.06250       -0.31250       -0.31250
 BRILLOUIN|   203           0.00391       -0.06250       -0.31250       -0.18750
 BRILLOUIN|   204           0.00391       -0.06250       -0.31250       -0.06250
 BRILLOUIN|   205           0.00391       -0.06250       -0.31250        0.06250
 BRILLOUIN|   206           0.00391       -0.06250       -0.31250        0.18750
 BRILLOUIN|   207           0.00391       -0.06250       -0.31250        0.31250
 BRILLOUIN|   208           0.00391       -0.06250       -0.31250        0.43750
 BRILLOUIN|   209           0.00391       -0.06250       -0.18750       -0.43750
 BRILLOUIN|   210           0.00391       -0.06250       -0.18750       -0.31250
 BRILLOUIN|   211           0.00391       -0.06250       -0.18750       -0.18750
 BRILLOUIN|   212           0.00391       -0.06250       -0.18750       -0.06250
 BRILLOUIN|   213           0.00391       -0.06250       -0.18750        0.06250
 BRILLOUIN|   214           0.00391       -0.06250       -0.18750        0.18750
 BRILLOUIN|   215           0.00391       -0.06250       -0.18750        0.31250
 BRILLOUIN|   216           0.00391       -0.06250       -0.18750        0.43750
 BRILLOUIN|   217           0.00391       -0.06250       -0.06250       -0.43750
 BRILLOUIN|   218           0.00391       -0.06250       -0.06250       -0.31250
 BRILLOUIN|   219           0.00391       -0.06250       -0.06250       -0.18750
 BRILLOUIN|   220           0.00391       -0.06250       -0.06250       -0.06250
 BRILLOUIN|   221           0.00391       -0.06250       -0.06250        0.06250
 BRILLOUIN|   222           0.00391       -0.06250       -0.06250        0.18750
 BRILLOUIN|   223           0.00391       -0.06250       -0.06250        0.31250
 BRILLOUIN|   224           0.00391       -0.06250       -0.06250        0.43750
 BRILLOUIN|   225           0.00391       -0.06250        0.06250       -0.43750
 BRILLOUIN|   226           0.00391       -0.06250        0.06250       -0.31250
 BRILLOUIN|   227           0.00391       -0.06250        0.06250       -0.18750
 BRILLOUIN|   228           0.00391       -0.06250        0.06250       -0.06250
 BRILLOUIN|   229           0.00391       -0.06250        0.06250        0.06250
 BRILLOUIN|   230           0.00391       -0.06250        0.06250        0.18750
 BRILLOUIN|   231           0.00391       -0.06250        0.06250        0.31250
 BRILLOUIN|   232           0.00391       -0.06250        0.06250        0.43750
 BRILLOUIN|   233           0.00391       -0.06250        0.18750       -0.43750
 BRILLOUIN|   234           0.00391       -0.06250        0.18750       -0.31250
 BRILLOUIN|   235           0.00391       -0.06250        0.18750       -0.18750
 BRILLOUIN|   236           0.00391       -0.06250        0.18750       -0.06250
 BRILLOUIN|   237           0.00391       -0.06250        0.18750        0.06250
 BRILLOUIN|   238           0.00391       -0.06250        0.18750        0.18750
 BRILLOUIN|   239           0.00391       -0.06250        0.18750        0.31250
 BRILLOUIN|   240           0.00391       -0.06250        0.18750        0.43750
 BRILLOUIN|   241           0.00391       -0.06250        0.31250       -0.43750
 BRILLOUIN|   242           0.00391       -0.06250        0.31250       -0.31250
 BRILLOUIN|   243           0.00391       -0.06250        0.31250       -0.18750
 BRILLOUIN|   244           0.00391       -0.06250        0.31250       -0.06250
 BRILLOUIN|   245           0.00391       -0.06250        0.31250        0.06250
 BRILLOUIN|   246           0.00391       -0.06250        0.31250        0.18750
 BRILLOUIN|   247           0.00391       -0.06250        0.31250        0.31250
 BRILLOUIN|   248           0.00391       -0.06250        0.31250        0.43750
 BRILLOUIN|   249           0.00391       -0.06250        0.43750       -0.43750
 BRILLOUIN|   250           0.00391       -0.06250        0.43750       -0.31250
 BRILLOUIN|   251           0.00391       -0.06250        0.43750       -0.18750
 BRILLOUIN|   252           0.00391       -0.06250        0.43750       -0.06250
 BRILLOUIN|   253           0.00391       -0.06250        0.43750        0.06250
 BRILLOUIN|   254           0.00391       -0.06250        0.43750        0.18750
 BRILLOUIN|   255           0.00391       -0.06250        0.43750        0.31250
 BRILLOUIN|   256           0.00391       -0.06250        0.43750        0.43750
 *******************************************************************************

 *******************************************************************************
 *******************************************************************************
 **                                                                           **
 **     #####                         ##              ##                      **
 **    ##   ##            ##          ##              ##                      **
 **   ##     ##                       ##            ######                    **
 **   ##     ##  ##   ##  ##   #####  ##  ##   ####   ##    #####    #####    **
 **   ##     ##  ##   ##  ##  ##      ## ##   ##      ##   ##   ##  ##   ##   **
 **   ##  ## ##  ##   ##  ##  ##      ####     ###    ##   ######   ######    **
 **    ##  ###   ##   ##  ##  ##      ## ##      ##   ##   ##       ##        **
 **     #######   #####   ##   #####  ##  ##  ####    ##    #####   ##        **
 **           ##                                                    ##        **
 **                                                                           **
 **                                                ... make the atoms dance   **
 **                                                                           **
 **            Copyright (C) by CP2K developers group (2000-2025)             **
 **                      J. Chem. Phys. 152, 194103 (2020)                    **
 **                                                                           **
 *******************************************************************************

 DFT| Spin restricted Kohn-Sham (RKS) calculation                            RKS
 DFT| Multiplicity                                                             1
 DFT| Number of spin states                                                    1
 DFT| Charge                                                                   0
 DFT| Self-interaction correction (SIC)                                       NO
 DFT| Cutoffs: density                                              1.000000E-10
 DFT|          gradient                                             1.000000E-10
 DFT|          tau                                                  1.000000E-10
 DFT|          cutoff_smoothing_range                               0.000000E+00
 DFT| XC density smoothing                                                  NONE
 DFT| XC derivatives                                                          PW

 FUNCTIONAL| PBE:
 FUNCTIONAL| J.P.Perdew, K.Burke, M.Ernzerhof, Phys. Rev. Letter, vol. 77, n 18,
 FUNCTIONAL|  pp. 3865-3868, (1996) {spin unpolarized}                          


 QS| Method:                                                                 GPW
 QS| Density plane wave grid type                        NON-SPHERICAL FULLSPACE
 QS| Number of grid levels:                                                    4
 QS| Density cutoff [a.u.]:                                                500.0
 QS| Multi grid cutoff [a.u.]: 1) grid level                               500.0
 QS|                           2) grid level                               166.7
 QS|                           3) grid level                                55.6
 QS|                           4) grid level                                18.5
 QS| Grid level progression factor:                                          3.0
 QS| Relative density cutoff [a.u.]:                                        50.0
 QS| Interaction thresholds: eps_pgf_orb:                                1.0E-16
 QS|                         eps_filter_matrix:                          0.0E+00
 QS|                         eps_core_charge:                            1.0E-18
 QS|                         eps_rho_gspace:                             1.0E-16
 QS|                         eps_rho_rspace:                             1.0E-16
 QS|                         eps_gvg_rspace:                             1.0E-08
 QS|                         eps_ppl:                                    1.0E-02
 QS|                         eps_ppnl:                                   1.0E-10


 ATOMIC KIND INFORMATION

  1. Atomic kind: He                                    Number of atoms:       2

     Orbital Basis Set                                aug-TZVP-MOLOPT-GTH-tier-1

       Number of orbital shell sets:                                           1
       Number of orbital shells:                                               9
       Number of primitive Cartesian functions:                                7
       Number of Cartesian basis functions:                                   25
       Number of spherical basis functions:                                   23
       Norm type:                                                              2

       Normalised Cartesian orbitals:

                        Set   Shell   Orbital            Exponent    Coefficient

                          1       1    2s                0.080000       0.000000
                                                         0.146056      -0.042480
                                                         0.220000       0.000000
                                                         0.426205      -0.154189
                                                         1.278849      -0.276724
                                                         4.032733      -0.298772
                                                        13.015004      -0.233293

                          1       2    3s                0.080000       0.000000
                                                         0.146056      -0.174688
                                                         0.220000       0.000000
                                                         0.426205       0.050468
                                                         1.278849       0.437387
                                                         4.032733       0.509041
                                                        13.015004       0.504236

                          1       3    4s                0.080000       0.000000
                                                         0.146056       0.085668
                                                         0.220000       0.000000
                                                         0.426205      -0.557758
                                                         1.278849       1.481242
                                                         4.032733      -0.400273
                                                        13.015004      -4.986957

                          1       4    5s                0.080000       0.089311
                                                         0.146056       0.126329
                                                         0.220000      -0.135337
                                                         0.426205      -0.033286
                                                         1.278849      -0.001676
                                                         4.032733       0.000000
                                                        13.015004       0.000000

                          1       5    3px               0.080000       0.000000
                                                         0.146056      -0.009040
                                                         0.220000       0.000000
                                                         0.426205       0.324537
                                                         1.278849       0.887938
                                                         4.032733      -0.200512
                                                        13.015004       3.092878
                          1       5    3py               0.080000       0.000000
                                                         0.146056      -0.009040
                                                         0.220000       0.000000
                                                         0.426205       0.324537
                                                         1.278849       0.887938
                                                         4.032733      -0.200512
                                                        13.015004       3.092878
                          1       5    3pz               0.080000       0.000000
                                                         0.146056      -0.009040
                                                         0.220000       0.000000
                                                         0.426205       0.324537
                                                         1.278849       0.887938
                                                         4.032733      -0.200512
                                                        13.015004       3.092878

                          1       6    4px               0.080000       0.000000
                                                         0.146056       0.052765
                                                         0.220000       0.000000
                                                         0.426205       0.021987
                                                         1.278849      -0.345254
                                                         4.032733       0.192505
                                                        13.015004      32.656169
                          1       6    4py               0.080000       0.000000
                                                         0.146056       0.052765
                                                         0.220000       0.000000
                                                         0.426205       0.021987
                                                         1.278849      -0.345254
                                                         4.032733       0.192505
                                                        13.015004      32.656169
                          1       6    4pz               0.080000       0.000000
                                                         0.146056       0.052765
                                                         0.220000       0.000000
                                                         0.426205       0.021987
                                                         1.278849      -0.345254
                                                         4.032733       0.192505
                                                        13.015004      32.656169

                          1       7    5px               0.080000       0.087342
                                                         0.146056      -0.067824
                                                         0.220000       0.000668
                                                         0.426205       0.001926
                                                         1.278849       0.000776
                                                         4.032733       0.000000
                                                        13.015004       0.000000
                          1       7    5py               0.080000       0.087342
                                                         0.146056      -0.067824
                                                         0.220000       0.000668
                                                         0.426205       0.001926
                                                         1.278849       0.000776
                                                         4.032733       0.000000
                                                        13.015004       0.000000
                          1       7    5pz               0.080000       0.087342
                                                         0.146056      -0.067824
                                                         0.220000       0.000668
                                                         0.426205       0.001926
                                                         1.278849       0.000776
                                                         4.032733       0.000000
                                                        13.015004       0.000000

                          1       8    4dx2              0.080000       0.000000
                                                         0.146056      -0.005689
                                                         0.220000       0.000000
                                                         0.426205       0.354790
                                                         1.278849       0.264432
                                                         4.032733       0.342220
                                                        13.015004      27.494959
                          1       8    4dxy              0.080000       0.000000
                                                         0.146056      -0.009854
                                                         0.220000       0.000000
                                                         0.426205       0.614514
                                                         1.278849       0.458010
                                                         4.032733       0.592742
                                                        13.015004      47.622666
                          1       8    4dxz              0.080000       0.000000
                                                         0.146056      -0.009854
                                                         0.220000       0.000000
                                                         0.426205       0.614514
                                                         1.278849       0.458010
                                                         4.032733       0.592742
                                                        13.015004      47.622666
                          1       8    4dy2              0.080000       0.000000
                                                         0.146056      -0.005689
                                                         0.220000       0.000000
                                                         0.426205       0.354790
                                                         1.278849       0.264432
                                                         4.032733       0.342220
                                                        13.015004      27.494959
                          1       8    4dyz              0.080000       0.000000
                                                         0.146056      -0.009854
                                                         0.220000       0.000000
                                                         0.426205       0.614514
                                                         1.278849       0.458010
                                                         4.032733       0.592742
                                                        13.015004      47.622666
                          1       8    4dz2              0.080000       0.000000
                                                         0.146056      -0.005689
                                                         0.220000       0.000000
                                                         0.426205       0.354790
                                                         1.278849       0.264432
                                                         4.032733       0.342220
                                                        13.015004      27.494959

                          1       9    5dx2              0.080000      -0.004041
                                                         0.146056       0.081587
                                                         0.220000       0.014946
                                                         0.426205      -0.432622
                                                         1.278849       0.467821
                                                         4.032733       0.000000
                                                        13.015004       0.000000
                          1       9    5dxy              0.080000      -0.007000
                                                         0.146056       0.141313
                                                         0.220000       0.025887
                                                         0.426205      -0.749323
                                                         1.278849       0.810290
                                                         4.032733       0.000000
                                                        13.015004       0.000000
                          1       9    5dxz              0.080000      -0.007000
                                                         0.146056       0.141313
                                                         0.220000       0.025887
                                                         0.426205      -0.749323
                                                         1.278849       0.810290
                                                         4.032733       0.000000
                                                        13.015004       0.000000
                          1       9    5dy2              0.080000      -0.004041
                                                         0.146056       0.081587
                                                         0.220000       0.014946
                                                         0.426205      -0.432622
                                                         1.278849       0.467821
                                                         4.032733       0.000000
                                                        13.015004       0.000000
                          1       9    5dyz              0.080000      -0.007000
                                                         0.146056       0.141313
                                                         0.220000       0.025887
                                                         0.426205      -0.749323
                                                         1.278849       0.810290
                                                         4.032733       0.000000
                                                        13.015004       0.000000
                          1       9    5dz2              0.080000      -0.004041
                                                         0.146056       0.081587
                                                         0.220000       0.014946
                                                         0.426205      -0.432622
                                                         1.278849       0.467821
                                                         4.032733       0.000000
                                                        13.015004       0.000000

       Atomic covalent radius [Angstrom]:                                  0.930

       Atomic van der Waals radius [Angstrom]:                             1.400

     GTH Potential information for                                       GTH-PBE

       Description:                       Goedecker-Teter-Hutter pseudopotential
                                           Goedecker et al., PRB 54, 1703 (1996)
                                          Hartwigsen et al., PRB 58, 3641 (1998)
                                                      Krack, TCA 114, 145 (2005)

       Gaussian exponent of the core charge distribution:              12.500000
       Electronic configuration (s p d ...):                                   2

       Parameters of the local part of the GTH pseudopotential:

                          rloc        C1          C2          C3          C4
                        0.200000   -9.122144    1.702708


 MOLECULE KIND INFORMATION


 All atoms are their own molecule, skipping detailed information


 TOTAL NUMBERS AND MAXIMUM NUMBERS

  Total number of            - Atomic kinds:                                   1
                             - Atoms:                                          2
                             - Shell sets:                                     2
                             - Shells:                                        18
                             - Primitive Cartesian functions:                 14
                             - Cartesian basis functions:                     50
                             - Spherical basis functions:                     46

  Maximum angular momentum of- Orbital basis functions:                        2
                             - Local part of the GTH pseudopotential:          2


 MODULE QUICKSTEP: ATOMIC COORDINATES IN ANGSTROM

   Atom Kind Element         X             Y             Z       Z(eff)     Mass
      1    1 He    2      0.000000      0.000000      0.000000   2.0000   4.0026
      2    1 He    2      1.463290      0.844831      2.389565   2.0000   4.0026



 SCF PARAMETERS         Density guess:                                    ATOMIC
                        --------------------------------------------------------
                        max_scf:                                             500
                        max_scf_history:                                       0
                        max_diis:                                              4
                        --------------------------------------------------------
                        eps_scf:                                        1.00E-09
                        eps_scf_history:                                0.00E+00
                        eps_diis:                                       1.00E-01
                        eps_eigval:                                     1.00E-05
                        --------------------------------------------------------
                        level_shift [a.u.]:                             0.000000
                        added MOs                                        44    0
                        --------------------------------------------------------
                        Mixing method:                            BROYDEN_MIXING
                                                charge density mixing in g-space
                        --------------------------------------------------------
                        No outer SCF

 PW_GRID| Information for grid number                                          1
 PW_GRID| Grid distributed over                                    16 processors
 PW_GRID| Real space group dimensions                                    16    1
 PW_GRID| the grid is blocked:                                                NO
 PW_GRID| Cutoff [a.u.]                                                    500.0
 PW_GRID| spherical cutoff:                                                   NO
 PW_GRID|   Bounds   1            -30      29                Points:          60
 PW_GRID|   Bounds   2            -30      29                Points:          60
 PW_GRID|   Bounds   3            -48      47                Points:          96
 PW_GRID| Volume element (a.u.^3)  0.6922E-03     Volume (a.u.^3)       239.2246
 PW_GRID| Grid span                                                    FULLSPACE
 PW_GRID|   Distribution                         Average         Max         Min
 PW_GRID|   G-Vectors                            21600.0       21600       21600
 PW_GRID|   G-Rays                                 360.0         360         360
 PW_GRID|   Real Space Points                    21600.0       23040       17280

 PW_GRID| Information for grid number                                          2
 PW_GRID| Number of the reference grid                                         1
 PW_GRID| Grid distributed over                                    16 processors
 PW_GRID| Real space group dimensions                                    16    1
 PW_GRID| the grid is blocked:                                                NO
 PW_GRID| Cutoff [a.u.]                                                    166.7
 PW_GRID| spherical cutoff:                                                   NO
 PW_GRID|   Bounds   1            -18      17                Points:          36
 PW_GRID|   Bounds   2            -18      17                Points:          36
 PW_GRID|   Bounds   3            -27      26                Points:          54
 PW_GRID| Volume element (a.u.^3)  0.3418E-02     Volume (a.u.^3)       239.2246
 PW_GRID| Grid span                                                    FULLSPACE
 PW_GRID|   Distribution                         Average         Max         Min
 PW_GRID|   G-Vectors                             4374.0        4536        4284
 PW_GRID|   G-Rays                                 121.5         126         119
 PW_GRID|   Real Space Points                     4374.0        5832        3888

 PW_GRID| Information for grid number                                          3
 PW_GRID| Number of the reference grid                                         1
 PW_GRID| Grid distributed over                                    16 processors
 PW_GRID| Real space group dimensions                                    16    1
 PW_GRID| the grid is blocked:                                                NO
 PW_GRID| Cutoff [a.u.]                                                     55.6
 PW_GRID| spherical cutoff:                                                   NO
 PW_GRID|   Bounds   1            -10       9                Points:          20
 PW_GRID|   Bounds   2            -10       9                Points:          20
 PW_GRID|   Bounds   3            -16      15                Points:          32
 PW_GRID| Volume element (a.u.^3)  0.1869E-01     Volume (a.u.^3)       239.2246
 PW_GRID| Grid span                                                    FULLSPACE
 PW_GRID|   Distribution                         Average         Max         Min
 PW_GRID|   G-Vectors                              800.0         860         720
 PW_GRID|   G-Rays                                  40.0          43          36
 PW_GRID|   Real Space Points                      800.0        1280         640

 PW_GRID| Information for grid number                                          4
 PW_GRID| Number of the reference grid                                         1
 PW_GRID| Grid distributed over                                    16 processors
 PW_GRID| Real space group dimensions                                     4    4
 PW_GRID| the grid is blocked:                                                NO
 PW_GRID| Cutoff [a.u.]                                                     18.5
 PW_GRID| spherical cutoff:                                                   NO
 PW_GRID|   Bounds   1             -6       5                Points:          12
 PW_GRID|   Bounds   2             -6       5                Points:          12
 PW_GRID|   Bounds   3             -9       8                Points:          18
 PW_GRID| Volume element (a.u.^3)  0.9229E-01     Volume (a.u.^3)       239.2246
 PW_GRID| Grid span                                                    FULLSPACE
 PW_GRID|   Distribution                         Average         Max         Min
 PW_GRID|   G-Vectors                              162.0         180         156
 PW_GRID|   G-Rays                                  13.5          15          13
 PW_GRID|   Real Space Points                      162.0         162         162

 POISSON| Solver                                                        PERIODIC
 POISSON| Periodicity                                                        XYZ

 RS_GRID| Information for grid number                                          1
 RS_GRID|   Bounds   1            -30      29                Points:          60
 RS_GRID|   Bounds   2            -30      29                Points:          60
 RS_GRID|   Bounds   3            -48      47                Points:          96
 RS_GRID| Real space fully replicated
 RS_GRID| Group size                                                           1

 RS_GRID| Information for grid number                                          2
 RS_GRID|   Bounds   1            -18      17                Points:          36
 RS_GRID|   Bounds   2            -18      17                Points:          36
 RS_GRID|   Bounds   3            -27      26                Points:          54
 RS_GRID| Real space fully replicated
 RS_GRID| Group size                                                           1

 RS_GRID| Information for grid number                                          3
 RS_GRID|   Bounds   1            -10       9                Points:          20
 RS_GRID|   Bounds   2            -10       9                Points:          20
 RS_GRID|   Bounds   3            -16      15                Points:          32
 RS_GRID| Real space fully replicated
 RS_GRID| Group size                                                           1

 RS_GRID| Information for grid number                                          4
 RS_GRID|   Bounds   1             -6       5                Points:          12
 RS_GRID|   Bounds   2             -6       5                Points:          12
 RS_GRID|   Bounds   3             -9       8                Points:          18
 RS_GRID| Real space fully replicated
 RS_GRID| Group size                                                           1

 Number of electrons:                                                          4
 Number of occupied orbitals:                                                  2
 Number of molecular orbitals:                                                46

 Number of orbital functions:                                                 46
 Number of independent orbital functions:                                     46

 Extrapolation method: initial_guess

 Atomic guess: The first density matrix is obtained in terms of atomic orbitals
               and electronic configurations assigned to each atomic kind

 Guess for atomic kind: He

 Electronic structure
    Total number of core electrons                                          0.00
    Total number of valence electrons                                       2.00
    Total number of electrons                                               2.00
    Multiplicity                                                   not specified
    S      2.00


 *******************************************************************************
                  Iteration          Convergence                     Energy [au]
 *******************************************************************************
                          1        0.542254E-01                  -2.821416083722
                          2        0.228651E-01                  -2.822555127639
                          3        0.131688E-03                  -2.822787341207
                          4        0.356778E-05                  -2.822787346498
                          5        0.647824E-07                  -2.822787346503

 Energy components [Hartree]           Total Energy ::           -2.822787346503
                                        Band Energy ::           -1.121961158092
                                     Kinetic Energy ::            2.716700739249
                                   Potential Energy ::           -5.539488085753
                                      Virial (-V/T) ::            2.039049795114
                                        Core Energy ::           -3.851614794563
                                          XC Energy ::           -0.974833318351
                                     Coulomb Energy ::            2.003660766410
                       Total Pseudopotential Energy ::           -6.577346631697
                       Local Pseudopotential Energy ::           -6.577346631697
                    Nonlocal Pseudopotential Energy ::            0.000000000000
                                        Confinement ::            0.090310978844

 Orbital energies  State     L     Occupation   Energy[a.u.]          Energy[eV]

                       1     0          2.000      -0.560981          -15.265058


 Total Electron Density at R=0:                                         2.245676
 Re-scaling the density matrix to get the right number of electrons
                  # Electrons              Trace(P)               Scaling factor
                            4                 4.000                        1.000


 SCF WAVEFUNCTION OPTIMIZATION

  Step     Update method      Time    Convergence         Total energy    Change
  ------------------------------------------------------------------------------
     1 NoMix/Diag. 0.50E-01    3.8     0.04571899        -5.7811282896 -5.78E+00
     2 Broy./Diag. 0.50E-01    4.0     0.00040610        -5.6703638512  1.11E-01
     3 Broy./Diag. 0.50E-01    4.1     0.00716130        -5.7499959482 -7.96E-02
     4 Broy./Diag. 0.50E-01    4.0     0.00004264        -5.7779769075 -2.80E-02
     5 Broy./Diag. 0.50E-01    4.0     0.00048072        -5.7789102365 -9.33E-04
     6 Broy./Diag. 0.50E-01    4.0     0.00000764        -5.7809350320 -2.02E-03
     7 Broy./Diag. 0.50E-01    4.0     0.00009007        -5.7810223048 -8.73E-05
     8 Broy./Diag. 0.50E-01    4.1     0.00000322        -5.7812515395 -2.29E-04
     9 Broy./Diag. 0.50E-01    4.0     0.00003847        -5.7812694740 -1.79E-05
    10 Broy./Diag. 0.50E-01    4.0     0.00000384        -5.7812812395 -1.18E-05
    11 Broy./Diag. 0.50E-01    4.0     0.00000598        -5.7812819753 -7.36E-07
    12 Broy./Diag. 0.50E-01    4.0     0.00000961        -5.7812815185  4.57E-07
    13 Broy./Diag. 0.50E-01    4.0     0.00000004        -5.7812816401 -1.22E-07
    14 Broy./Diag. 0.50E-01    4.0     0.00000069        -5.7812845840 -2.94E-06
    15 Broy./Diag. 0.50E-01    4.0     0.00000031        -5.7812832707  1.31E-06
    16 Broy./Diag. 0.50E-01    4.0     0.00000010        -5.7812813988  1.87E-06
    17 Broy./Diag. 0.50E-01    4.0     0.00000002        -5.7812810494  3.49E-07
    18 Broy./Diag. 0.50E-01    4.0     0.00000006        -5.7812811615 -1.12E-07
    19 Broy./Diag. 0.50E-01    4.0     4.1758E-09        -5.7812812133 -5.18E-08
    20 Broy./Diag. 0.50E-01    4.0     0.00000001        -5.7812811839  2.94E-08
    21 Broy./Diag. 0.50E-01    4.0     8.0512E-09        -5.7812811424  4.15E-08
    22 Broy./Diag. 0.50E-01    4.0     0.00000001        -5.7812811540 -1.15E-08
    23 Broy./Diag. 0.50E-01    4.0     2.7419E-09        -5.7812811632 -9.28E-09
    24 Broy./Diag. 0.50E-01    4.0     0.00000001        -5.7812811558  7.42E-09
    25 Broy./Diag. 0.50E-01    4.0     1.3889E-10        -5.7812811514  4.41E-09

  *** SCF run converged in    25 steps ***


  Electronic density on regular grids:         -4.0000000000        0.0000000000
  Core density on regular grids:                4.0000000000       -0.0000000000
  Total charge density on r-space grids:        0.0000000000
  Total charge density g-space grids:           0.0000000000

  Overlap energy of the core charge distribution:               0.00000000000000
  Self energy of the core charge distribution:                -11.28379167095513
  Core Hamiltonian energy:                                      3.92423095408806
  Hartree energy:                                               3.66673440903861
  Exchange-correlation energy:                                 -2.08845484358203

  Total energy:                                                -5.78128115141049

 !-----------------------------------------------------------------------------!
                     Mulliken Population Analysis

 #  Atom  Element  Kind  Atomic population                           Net charge
       1     He       1          2.000000                             -0.000000
       2     He       1          2.000000                              0.000000
 # Total charge                              4.000000                  0.000000

 !-----------------------------------------------------------------------------!

 !-----------------------------------------------------------------------------!
                           Hirshfeld Charges

  #Atom  Element  Kind  Ref Charge     Population                    Net charge
      1       He     1       2.000          2.000                        -0.000
      2       He     1       2.000          2.000                        -0.000

  Total Charge                                                           -0.000
 !-----------------------------------------------------------------------------!

 KPOINTS| Band Structure Calculation
 KPOINTS| Number of k-point sets                                               1
 KPOINTS| Number of added MOs/bands                                           -1
 KPOINTS| Number of k-points in set    1                                     148
 KPOINTS| In units of b-vector [2pi/Bohr]
 KPOINTS| Special point     1 not specifi     0.000000     0.000000     0.000000
 KPOINTS| Special point     2 not specifi     0.500000     0.000000     0.000000
 KPOINTS| Special point     3 not specifi     0.333333     0.333333     0.000000
 KPOINTS| Special point     4 not specifi     0.000000     0.000000     0.000000
 KPOINTS| Time for k-point line                                            1.530

 ENERGY| Total FORCE_EVAL ( QS ) energy [hartree]             -5.781281151410491

 -------------------------------------------------------------------------------
 -                                                                             -
 -                                DBCSR STATISTICS                             -
 -                                                                             -
 -------------------------------------------------------------------------------
 COUNTER                                    TOTAL       BLAS       SMM       ACC
 flops inhomo. stacks                           0       0.0%      0.0%      0.0%
 flops total                         0.000000E+00       0.0%      0.0%      0.0%
 flops max/rank                      0.000000E+00       0.0%      0.0%      0.0%
 matmuls inhomo. stacks                         0       0.0%      0.0%      0.0%
 matmuls total                                  0       0.0%      0.0%      0.0%
 number of processed stacks                     0       0.0%      0.0%      0.0%
 average stack size                                     0.0       0.0       0.0
 marketing flops                     0.000000E+00
 -------------------------------------------------------------------------------
 -                                                                             -
 -                      DBCSR MESSAGE PASSING PERFORMANCE                      -
 -                                                                             -
 -------------------------------------------------------------------------------
 ROUTINE             CALLS      AVE VOLUME [Bytes]
 MP_Bcast                1                     12.
 MP_Allreduce           19                     21.
 MP_Alltoall        572784                   2759.
 -------------------------------------------------------------------------------

 -------------------------------------------------------------------------------
 -                                                                             -
 -                                DBM STATISTICS                               -
 -                                                                             -
 -------------------------------------------------------------------------------
    M  x    N  x    K                                          COUNT     PERCENT
 -------------------------------------------------------------------------------

 -------------------------------------------------------------------------------
 -                                                                             -
 -                                GRID STATISTICS                              -
 -                                                                             -
 -------------------------------------------------------------------------------
 LP    KERNEL             BACKEND                              COUNT     PERCENT
 4     collocate general  CPU                                 544024      50.98%
 4     integrate general  CPU                                 523100      49.02%
 0     collocate general  CPU                                      4       0.00%
 0     integrate general  CPU                                      2       0.00%
 -------------------------------------------------------------------------------

 MEMORY| Estimated peak process memory [MiB]                                 303

 -------------------------------------------------------------------------------
 ----                             MULTIGRID INFO                            ----
 -------------------------------------------------------------------------------
 count for grid        1:         131334          cutoff [a.u.]          500.00
 count for grid        2:          51770          cutoff [a.u.]          166.67
 count for grid        3:          49954          cutoff [a.u.]           55.56
 count for grid        4:          62584          cutoff [a.u.]           18.52
 total gridlevel count  :         295642

 -------------------------------------------------------------------------------
 -                                                                             -
 -                         MESSAGE PASSING PERFORMANCE                         -
 -                                                                             -
 -------------------------------------------------------------------------------

 ROUTINE             CALLS      AVE VOLUME [Bytes]
 MP_Group                6
 MP_Bcast           234131                   1136.
 MP_Allreduce       119557                     30.
 MP_Sync                 4
 MP_Alltoall           507                 884146.
 MP_SendRecv          1590                  62962.
 MP_ISendRecv         1515                  61853.
 MP_Wait            160031
 MP_comm_split           4
 MP_ISend           163612                    287.
 MP_IRecv           272944                    170.
 -------------------------------------------------------------------------------


 -------------------------------------------------------------------------------
 -                                                                             -
 -                           R E F E R E N C E S                               -
 -                                                                             -
 -------------------------------------------------------------------------------
 
 CP2K version 2025.1 (Development Version), the CP2K developers group (2025).
 CP2K is freely available from https://www.cp2k.org/ .
 
 T. D. Kuehne, M. Iannuzzi, M. Del Ben, V. V. Rybkin, P. Seewald, F. Stein, T. 
 Laino, R. Z. Khaliullin, O. Schuett, F. Schiffmann, D. Golze, J. Wilhelm, S. 
 Chulkov, M. H. Bani-Hashemian, V. Weber, U. Borstnik, M. Taillefumier, A. S. 
 Jakobovits, A. Lazzaro, H. Pabst, T. Mueller, R. Schade, M. Guidon, S. 
 Andermatt, N. Holmberg, G. K. Schenter, A. Hehn, A. Bussy, F. Belleflamme, G. 
 Tabacchi, A. Gloess, M. Lass, I. Bethune, C. J. Mundy, C. Plessl, M. Watkins, 
 J. VandeVondele, M. Krack, J. Hutter.
 J. Chem. Phys. 152, 194103 (2020).
 CP2K: An electronic structure and molecular dynamics software package - 
 Quickstep: Efficient and accurate electronic structure calculations.
 https://doi.org/10.1063/5.0007045

 O. Schuett, P. Messmer, J. Hutter, J. VandeVondele.
 Electronic Structure Calculations on Graphics Processing Units, 173-190 (2016).
 GPU-Accelerated Sparse Matrix-Matrix Multiplication for Linear Scaling Density 
 Functional Theory.
 https://doi.org/10.1002/9781118670712.ch8

 J. Hutter, M. Iannuzzi, F. Schiffmann, J. VandeVondele.
 WIREs Comput Mol Sci. 4, 15-25 (2014).
 CP2K: atomistic simulations of condensed matter systems.
 https://doi.org/10.1002/wcms.1159

 U. Borstnik, J. VandeVondele, V. Weber, J. Hutter.
 Parallel Comput. 40, 47-58 (2014).
 Sparse matrix multiplication: The distributed block-compressed sparse row 
 library.
 https://doi.org/10.1016/j.parco.2014.03.012

 J. VandeVondele, J. Hutter.
 J. Chem. Phys. 127, 114105 (2007).
 Gaussian basis sets for accurate calculations on molecular systems in gas and 
 condensed phases.
 https://doi.org/10.1063/1.2770708

 J. VandeVondele, M. Krack, F. Mohamed, M. Parrinello, T. Chassaing, J. Hutter.
 Comput. Phys. Commun. 167, 103-128 (2005).
 QUICKSTEP: Fast and accurate density functional calculations using a mixed 
 Gaussian and plane waves approach.
 https://doi.org/10.1016/j.cpc.2004.12.014

 M. Krack.
 Theor. Chem. Acc. 114, 145-152 (2005).
 Pseudopotentials for H to Kr optimized for gradient-corrected 
 exchange-correlation functionals.
 https://doi.org/10.1007/s00214-005-0655-y

 M. Frigo, S. G. Johnson.
 Proc. IEEE 93, 216-231 (2005).
 The design and implementation of FFTW3.
 https://doi.org/10.1109/JPROC.2004.840301

 C. Hartwigsen, S. Goedecker, J. Hutter.
 Phys. Rev. B 58, 3641-3662 (1998).
 Relativistic separable dual-space Gaussian pseudopotentials from H to Rn.
 https://doi.org/10.1103/PhysRevB.58.3641

 G. Lippert, J. Hutter, M. Parrinello.
 Mol. Phys. 92, 477-487 (1997).
 A hybrid Gaussian and plane wave density functional scheme.
 https://doi.org/10.1080/002689797170220

 S. Goedecker, M. Teter, J. Hutter.
 Phys. Rev. B 54, 1703-1710 (1996).
 Separable dual-space Gaussian pseudopotentials.
 https://doi.org/10.1103/PhysRevB.54.1703

 J. P. Perdew, K. Burke, M. Ernzerhof.
 Phys. Rev. Lett. 77, 3865-3868 (1996).
 Generalized gradient approximation made simple.
 https://doi.org/10.1103/PhysRevLett.77.3865


 -------------------------------------------------------------------------------
 -                                                                             -
 -                                T I M I N G                                  -
 -                                                                             -
 -------------------------------------------------------------------------------
 SUBROUTINE                       CALLS  ASD         SELF TIME        TOTAL TIME
                                MAXIMUM       AVERAGE  MAXIMUM  AVERAGE  MAXIMUM
 CP2K                                 1  1.0    0.015    0.018  106.432  106.432
 qs_energies                          1  2.0    0.007    0.025  106.248  106.264
 scf_env_do_scf                       1  3.0    0.000    0.000  103.486  103.486
 scf_env_do_scf_inner_loop           25  4.0    0.035    0.037  103.485  103.486
 do_general_diag_kp                  26  5.9    0.136    0.154   93.058   94.089
 qs_scf_new_mos_kp                   25  5.0    0.000    0.000   91.565   92.591
 mp_alltoall_i22                  97696  8.7   58.359   71.543   58.359   71.543
 dbcsr_desymmetrize_deep          55544  7.4    0.796    0.910   45.442   54.551
 rskp_transform                   13096  6.9    7.836   42.142    7.836   42.142
 dbcsr_complete_redistribute      42152  8.2    1.278    1.499   30.507   34.499
 kpoint_density_transform            25  7.0    0.067    0.079   25.500   25.563
 copy_fm_to_dbcsr                 12800  8.0    0.073    0.085   20.141   23.882
 transform_dmat                    6400  8.0    3.747   20.078    3.747   20.078
 copy_dbcsr_to_fm                 29352  6.8    0.295    0.335   16.222   16.490
 qs_ks_update_qs_env                 25  5.0    0.000    0.000    3.070    7.602
 rebuild_ks_matrix                   25  6.0    0.000    0.000    1.784    6.316
 qs_ks_build_kohn_sham_matrix        25  7.0    0.065    0.068    1.783    6.316
 sum_up_and_integrate                25  8.0    0.000    0.000    1.227    5.735
 integrate_v_rspace                  25  9.0    0.013    0.066    1.226    5.735
 grid_integrate_task_list            25 10.0    1.029    5.509    1.029    5.509
 transfer_rs2pw                     106  8.0    0.001    0.002    4.487    5.484
 transfer_rs2pw_500                  28  8.9    0.034    0.038    4.448    5.445
 mp_sendrecv_dv                    1590 10.0    4.443    5.441    4.443    5.441
 qs_rho_update_rho_low               26  5.0    0.000    0.000    5.198    5.217
 calculate_rho_elec                  26  6.0    0.007    0.016    5.198    5.217
 density_rs2pw                       26  7.0    0.001    0.001    4.222    5.148
 grid_collocate_task_list            26  7.0    0.967    4.964    0.967    4.964
 cp_fm_start_copy_general         38992  7.3    0.437    0.735    3.982    4.047
 dbcsr_finalize                  123280  8.2    0.484    0.535    3.313    3.702
 mp_cart_sub                      58707  8.8    3.253    3.300    3.253    3.300
 mp_alltoall_d11v                293088  9.3    2.855    2.992    2.855    2.992
 write_kpoints_restart               25  5.0    0.013    0.017    2.729    2.729
 mp_alltoall_i11v                182000  8.9    2.065    2.124    2.065    2.124
 dbcsr_merge_all                  42152 10.2    1.082    1.307    1.858    2.089
 mp_allgather_i                   77984  8.3    1.933    2.009    1.933    2.009
 hybrid_alltoall_any              55544  8.4    0.218    0.252    1.827    1.926
 mp_cart_create                   29359  8.8    1.713    1.841    1.713    1.841
 dbcsr_dot                        79001  8.0    0.320    0.411    1.394    1.434
 evaluate_core_matrix_traces         25  6.0    0.000    0.000    1.286    1.286
 calculate_ptrace_kp                 50  7.0    0.057    0.059    1.286    1.286
 mp_bcast_iv                     155991  8.3    1.150    1.242    1.150    1.242
 dbcsr_create_new                230087  7.9    0.779    0.860    0.947    1.063
 mp_sum_d                         79617  9.0    0.966    1.059    0.966    1.059
 dbcsr_work_create                97696  8.7    0.593    0.624    0.900    1.022
 cp_fm_write_unformatted           3160  6.0    0.798    0.974    0.802    1.005
 dbcsr_copy                       93380  6.8    0.486    0.547    0.785    0.923
 dbcsr_iterator_start            386386  8.8    0.700    0.725    0.802    0.831
 dbcsr_data_new                 1063063  9.6    0.576    0.778    0.576    0.778
 cp_dbcsr_alloc_block_from_nbl    11212  5.0    0.151    0.693    0.172    0.763
 self_consistency_check              25  5.0    0.055    0.057    0.712    0.727
 dbcsr_work_destroy_all           97696  9.7    0.462    0.469    0.695    0.709
 tree_to_linear_d                 42152 11.2    0.617    0.662    0.617    0.662
 copy_dbcsr_to_fm_bc              29352  7.8    0.275    0.298    0.620    0.644
 qs_energies_init_hamiltonians        1  3.0    0.000    0.000    0.626    0.626
 cp_sm_mix                        39500  6.0    0.099    0.149    0.604    0.623
 copy_fm_to_dbcsr_bc              12800  9.0    0.162    0.180    0.540    0.611
 dbcsr_data_release             1560537 10.0    0.511    0.564    0.511    0.564
 dbcsr_iterator_stop             386386  8.8    0.448    0.461    0.532    0.556
 dbcsr_destroy                   151087  7.9    0.245    0.271    0.463    0.514
 build_core_hamiltonian_matrix        1  4.0    0.006    0.006    0.147    0.455
 mp_max_d                         39502  7.0    0.410    0.442    0.410    0.442
 init_scf_run                         1  3.0    0.000    0.000    0.392    0.430
 scf_env_initial_rho_setup            1  4.0    0.000    0.000    0.392    0.430
 qs_env_update_s_mstruct              1  4.0    0.000    0.000    0.357    0.403
 cp_cfm_geeig                       437  6.7    0.003    0.003    0.387    0.395
 calculate_rho_core                   1  5.0    0.000    0.001    0.316    0.386
 quick_finalize                   55544  9.4    0.144    0.186    0.242    0.346
 mp_bcast_im                      77984  8.3    0.332    0.341    0.332    0.341
 cp_cfm_heevd                       437  7.7    0.001    0.001    0.307    0.315
 cp_cfm_heevd_base                  437  8.7    0.307    0.315    0.307    0.315
 mp_comm_free                     88100  8.8    0.267    0.302    0.267    0.302
 fft_wrap_pw1pw2                    455 10.0    0.003    0.004    0.261    0.286
 mp_waitall_1                    160031  8.4    0.128    0.274    0.128    0.274
 fft_wrap_pw1pw2_500                302 11.3    0.012    0.013    0.229    0.255
 fft3d_ps                           455 12.0    0.069    0.072    0.222    0.248
 dbcsr_set                       156925  7.4    0.139    0.147    0.197    0.248
 dbcsr_copy_into_existing         14380  9.6    0.093    0.157    0.173    0.241
 mixing_allocate                      1  3.0    0.009    0.009    0.071    0.237
 potential_pw2rs                     25 10.0    0.001    0.001    0.184    0.211
 calculate_first_density_matrix       1  5.0    0.001    0.001    0.172    0.211
 calculate_atomic_block_dm            1  6.0    0.001    0.001    0.169    0.208
 qs_vxc_create                       25  8.0    0.000    0.000    0.148    0.149
 mp_alltoall_z22v                   455 14.0    0.123    0.149    0.123    0.149
 xc_vxc_pw_create                    25  9.0    0.006    0.006    0.148    0.149
 dbcsr_reserve_blocks             24012  8.7    0.061    0.117    0.075    0.140
 dbcsr_make_index_exist          230087  8.9    0.108    0.140    0.108    0.140
 calculate_ecore_overlap              1  4.0    0.000    0.000    0.111    0.135
 dbcsr_sort_indices              121708 10.9    0.066    0.135    0.066    0.135
 dbcsr_iterator_seek             386386  9.8    0.102    0.135    0.102    0.135
 build_overlap_matrix_low             1  5.0    0.012    0.020    0.042    0.130
 build_kinetic_matrix_low             1  5.0    0.011    0.019    0.041    0.129
 qs_env_rebuild_rho                   1  5.0    0.000    0.000    0.036    0.128
 qs_rho_rebuild                       1  6.0    0.005    0.005    0.036    0.128
 cp_fm_finish_copy_general        14548  7.8    0.074    0.091    0.092    0.123
 transfer_pw2rs                     101 11.0    0.001    0.001    0.117    0.117
 yz_to_x                            179 13.1    0.007    0.007    0.085    0.109
 mp_sum_iv                           24  5.3    0.083    0.102    0.083    0.102
 qs_scf_ensure_work_matrices          1  3.0    0.000    0.000    0.083    0.102
 xc_pw_derive                       150 11.0    0.000    0.000    0.096    0.101
 dbcsr_zero                      156925  8.4    0.059    0.101    0.059    0.101
 dbcsr_reserve_all_blocks         12800 10.0    0.018    0.022    0.075    0.097
 merge_index                      42152 11.2    0.083    0.093    0.083    0.093
 gspace_mixing                       24  5.0    0.004    0.004    0.092    0.092
 transfer_pw2rs_500                  26 11.8    0.038    0.043    0.081    0.084
 parser_read_line                  3885  4.1    0.001    0.001    0.080    0.083
 parser_read_line_low                22  6.3    0.006    0.029    0.079    0.082
 dbcsr_switch_data_area           55544 10.4    0.052    0.057    0.069    0.081
 mp_irecv_iv                     155968  8.3    0.005    0.079    0.005    0.079
 xc_rho_set_and_dset_create          25 10.0    0.005    0.006    0.076    0.078
 broadcast_input_information         22  7.3    0.026    0.029    0.073    0.078
 broyden_mixing                      24  6.0    0.068    0.070    0.072    0.072
 xc_pw_divergence                    25 10.0    0.000    0.000    0.064    0.068
 topology_control                     1  2.0    0.000    0.000    0.065    0.065
 x_to_yz                            225 13.1    0.015    0.016    0.060    0.062
 mp_isend_dv                      40768  8.3    0.054    0.058    0.054    0.058
 kpoint_density_matrices             25  7.0    0.005    0.005    0.055    0.056
 mp_isend_iv                      83080  8.3    0.007    0.053    0.007    0.053
 build_core_ppl                       1  5.0    0.008    0.050    0.008    0.050
 cp_fm_cleanup_copy_general       26992  7.0    0.031    0.033    0.047    0.050
 parallel_gemm_fm                  1600  8.0    0.001    0.001    0.049    0.050
 parallel_gemm_fm_gemm             1600  9.0    0.001    0.002    0.048    0.048
 cp_fm_gemm                        1600 10.0    0.046    0.047    0.046    0.047
 read_cell_cif                        2  4.5    0.002    0.004    0.044    0.045
 cp_cfm_triangular_multiply        1311  7.7    0.042    0.043    0.042    0.043
 dbcsr_distribution_new           42154  8.5    0.031    0.042    0.031    0.042
 create_qs_kind_set                   1  2.0    0.000    0.000    0.041    0.042
 read_qs_kind                         1  3.0    0.020    0.022    0.041    0.042
 dbcsr_get_data_size_used         97696  9.7    0.034    0.041    0.034    0.041
 dbcsr_make_dbcsr_index          121708 10.8    0.035    0.041    0.035    0.041
 coordinate_control                   1  3.0    0.001    0.001    0.040    0.040
 coordinate_control_READ_COORDI       1  4.0    0.000    0.000    0.039    0.040
 read_coordinate_cif                  1  5.0    0.002    0.002    0.039    0.040
 mp_irecv_im2                     77984  8.3    0.002    0.038    0.002    0.038
 mp_isendrecv_dv                   1515 13.0    0.014    0.038    0.014    0.038
 kpoint_set_mo_occupation            25  7.0    0.015    0.015    0.030    0.036
 mp_bcast_i_src                      88  8.3    0.028    0.033    0.028    0.033
 mp_sum_dv                          320  3.3    0.019    0.032    0.019    0.032
 mp_recv_dv                        9480  7.0    0.002    0.031    0.002    0.031
 transfer_rs2pw_170                  26  9.0    0.006    0.006    0.026    0.031
 scf_post_calculation_gpw             1  3.0    0.000    0.000    0.030    0.031
 write_available_results              1  4.0    0.000    0.000    0.030    0.030
 write_mo_free_results                1  5.0    0.001    0.001    0.030    0.030
 mp_bcast_am_src                     22  8.3    0.013    0.015    0.019    0.029
 dbcsr_data_copy_aa2              42152 10.9    0.017    0.025    0.017    0.025
 transfer_pw2rs_170                  25 12.0    0.008    0.009    0.023    0.025
 mp_isend_im2                     41540  8.3    0.003    0.024    0.003    0.024
 qs_create_task_list                  1  5.0    0.000    0.000    0.005    0.023
 generate_qs_task_list                1  6.0    0.003    0.018    0.005    0.023
 mp_irecv_dv                      39732  8.3    0.022    0.023    0.022    0.023
 mp_comm_size                     79954  9.0    0.019    0.022    0.019    0.022
 xc_functional_eval                  25 11.0    0.000    0.000    0.020    0.022
 pbe_lda_eval                        25 12.0    0.020    0.022    0.020    0.022
 mp_sum_dm3                          25  8.0    0.015    0.021    0.015    0.021
 restraint_control                    1  2.0    0.000    0.000    0.016    0.021
 mp_sum_i                             5  4.6    0.016    0.021    0.016    0.021
 kpoint_init_cell_index               2  3.5    0.015    0.017    0.019    0.020
 mp_comm_rank                     79954  9.0    0.018    0.019    0.018    0.019
 qs_init_subsys                       1  2.0    0.001    0.001    0.018    0.018
 cp_cfm_cholesky_decompose          437  7.7    0.016    0.017    0.016    0.017
 cp_cfm_triangular_invert           437  7.7    0.015    0.016    0.015    0.016
 qs_env_setup                         1  3.0    0.000    0.000    0.015    0.016
 qs_env_rebuild_pw_env                2  3.5    0.000    0.000    0.015    0.015
 pw_env_rebuild                       1  5.0    0.000    0.001    0.015    0.015
 mp_sum_l                           429  2.1    0.010    0.015    0.010    0.015
 fft_wrap_pw1pw2_170                 51 10.5    0.001    0.001    0.013    0.014
 pw_poisson_solve                    25  8.0    0.000    0.000    0.012    0.012
 pw_grid_setup                        4  6.0    0.000    0.000    0.012    0.012
 pw_grid_setup_internal               4  7.0    0.000    0.001    0.011    0.012
 pw_scatter_p                       250 12.2    0.011    0.011    0.011    0.011
 mp_send_dv                        3160  7.0    0.002    0.011    0.002    0.011
 hirshfeld_integration                1  6.0    0.001    0.008    0.011    0.011
 -------------------------------------------------------------------------------

 The number of warnings for this run is : 1
 
 -------------------------------------------------------------------------------
  **** **** ******  **  PROGRAM ENDED AT                 2025-08-05 22:28:53.810
 ***** ** ***  *** **   PROGRAM RAN ON                              i04r01c03s11
 **    ****   ******    PROGRAM RAN BY                                   di38fab
 ***** **    ** ** **   PROGRAM PROCESS ID                               3735197
  **** **  *******  **  PROGRAM STOPPED IN /hppfs/scratch/04/di38fab/09_GTH/Delt
                                           a_Set/He/aug-TZVP-MOLOPT-GTH-tier-1/8
                                           x8x8
