As                                      
   1.00000000000000     
     3.820550    0.000000    0.000000
    -1.910275    3.308693    0.000000
     0.000000    0.000000   10.789630
   As
     6
Direct
  0.000000  0.000000  0.226570
  0.000000  0.000000  0.773430
  0.666667  0.333333  0.559900
  0.666667  0.333333  0.106760
  0.333333  0.666667  0.893240
  0.333333  0.666667  0.440100
 
   32   32   96
  3.3603      3.4200      3.6031      3.9213      4.3937      5.0454      5.9046      6.9970      8.3378      9.9200    
  11.703      13.605      15.499      17.229      18.624      19.532      19.848      19.532      18.624      17.229    
  15.499      13.605      11.703      9.9200      8.3378      6.9970      5.9046      5.0454      4.3937      3.9213    
  3.6031      3.4200      3.4200      3.4200      3.5415      3.7926      4.1893      4.7550      5.5181      6.5076    
  7.7462      9.2400      10.966      12.863      14.822      16.699      18.320      19.516      20.153      20.153    
  19.516      18.320      16.699      14.823      12.863      10.966      9.2398      7.7460      6.5075      5.5181    
  4.7551      4.1894      3.7926      3.5415      3.6031      3.5415      3.6031      3.7926      4.1233      4.6173    
  5.3041      6.2166      7.3854      8.8288      10.540      12.476      14.546      16.613      18.504      20.031    
  21.027      21.373      21.027      20.031      18.504      16.613      14.546      12.476      10.540      8.8286    
  7.3854      6.2166      5.3041      4.6174      4.1233      3.7926      3.9214      3.7926      3.7926      3.9213    
  4.1894      4.6174      5.2358      6.0819      7.1944      8.6040      10.321      12.319      14.528      16.821    
  19.025      20.935      22.350      23.103      23.103      22.349      20.935      19.025      16.821      14.528    
  12.319      10.321      8.6041      7.1945      6.0820      5.2358      4.6174      4.1893      4.3937      4.1894    
  4.1233      4.1893      4.3937      4.7551      5.3042      6.0820      7.1352      8.5070      10.225      12.284    
  14.633      17.162      19.703      22.037      23.931      25.168      25.599      25.168      23.931      22.037    
  19.702      17.162      14.633      12.284      10.225      8.5071      7.1352      6.0820      5.3041      4.7551    
  5.0454      4.7551      4.6174      4.6173      4.7550      5.0454      5.5181      6.2167      7.1947      8.5072    
  10.199      12.287      14.746      17.486      20.352      23.122      25.534      27.327      28.284      28.284    
  27.327      25.535      23.122      20.352      17.486      14.746      12.288      10.199      8.5071      7.1946    
  6.2167      5.5180      5.9044      5.5181      5.3042      5.2358      5.3041      5.5180      5.9045      6.5074    
  7.3854      8.6042      10.225      12.288      14.793      17.680      20.814      23.983      26.912      29.297    
  30.860      31.405      30.860      29.297      26.912      23.983      20.814      17.680      14.793      12.288    
  10.225      8.6041      7.3855      6.5075      6.9969      6.5074      6.2167      6.0821      6.0819      6.2166    
  6.5076      6.9970      7.7459      8.8285      10.321      12.284      14.746      17.680      20.981      24.459    
  27.841      30.800      33.006      34.186      34.186      33.006      30.800      27.841      24.459      20.981    
  17.680      14.746      12.284      10.320      8.8288      7.7462      8.3378      7.7460      7.3854      7.1947    
  7.1352      7.1944      7.3855      7.7463      8.3378      9.2396      10.540      12.319      14.633      17.486    
  20.814      24.459      28.169      31.614      34.431      36.281      36.926      36.280      34.430      31.614    
  28.169      24.459      20.814      17.487      14.633      12.319      10.540      9.2400      9.9202      9.2398    
  8.8286      8.6042      8.5072      8.5069      8.6040      8.8289      9.2401      9.9201      10.966      12.476    
  14.528      17.162      20.352      23.983      27.841      31.614      34.930      37.407      38.734      38.734    
  37.407      34.930      31.614      27.841      23.983      20.352      17.162      14.528      12.475      10.966    
  11.703      10.966      10.540      10.321      10.225      10.199      10.224      10.320      10.540      10.966    
  11.703      12.863      14.546      16.821      19.702      23.122      26.912      30.800      34.430      37.407    
  39.366      40.050      39.366      37.407      34.431      30.800      26.911      23.122      19.703      16.821    
  14.545      12.863      13.605      12.863      12.475      12.319      12.284      12.288      12.287      12.283    
  12.319      12.476      12.863      13.605      14.823      16.613      19.025      22.037      25.535      29.297    
  33.006      36.280      38.734      40.050      40.050      38.734      36.281      33.006      29.297      25.534    
  22.037      19.025      16.613      14.822      15.499      14.823      14.546      14.528      14.633      14.746    
  14.793      14.746      14.633      14.528      14.545      14.822      15.499      16.699      18.504      20.935    
  23.931      27.327      30.860      34.186      36.926      38.734      39.366      38.734      36.926      34.187    
  30.860      27.327      23.931      20.936      18.504      16.698      17.229      16.699      16.613      16.821    
  17.162      17.486      17.680      17.680      17.486      17.162      16.821      16.613      16.698      17.229    
  18.320      20.031      22.349      25.168      28.284      31.405      34.186      36.281      37.407      37.407    
  36.280      34.186      31.405      28.284      25.168      22.350      20.032      18.320      18.624      18.320    
  18.504      19.025      19.702      20.352      20.814      20.981      20.814      20.352      19.703      19.025    
  18.504      18.320      18.624      19.516      21.027      23.103      25.599      28.284      30.860      33.006    
  34.431      34.930      34.430      33.006      30.860      28.284      25.599      23.103      21.027      19.516    
  19.532      19.516      20.031      20.936      22.037      23.122      23.983      24.459      24.458      23.983    
  23.122      22.037      20.936      20.031      19.516      19.532      20.153      21.373      23.103      25.168    
  27.327      29.297      30.800      31.615      31.614      30.800      29.297      27.327      25.168      23.103    
  21.373      20.153      19.848      20.153      21.027      22.350      23.931      25.535      26.912      27.841    
  28.169      27.841      26.912      25.534      23.931      22.350      21.027      20.153      19.848      20.153    
  21.027      22.350      23.931      25.534      26.912      27.841      28.169      27.841      26.912      25.535    
  23.931      22.350      21.027      20.153      19.532      20.153      21.373      23.103      25.168      27.327    
  29.297      30.800      31.614      31.615      30.800      29.297      27.327      25.168      23.103      21.373    
  20.153      19.532      19.516      20.031      20.936      22.037      23.122      23.983      24.458      24.459    
  23.983      23.122      22.037      20.936      20.031      19.516      18.624      19.516      21.027      23.103    
  25.599      28.284      30.860      33.006      34.430      34.930      34.431      33.006      30.860      28.284    
  25.599      23.103      21.027      19.516      18.624      18.320      18.504      19.025      19.703      20.352    
  20.814      20.981      20.814      20.352      19.702      19.025      18.504      18.320      17.229      18.320    
  20.032      22.350      25.168      28.284      31.405      34.186      36.280      37.407      37.407      36.281    
  34.186      31.405      28.284      25.168      22.349      20.031      18.320      17.229      16.698      16.613    
  16.821      17.162      17.486      17.680      17.680      17.486      17.162      16.821      16.613      16.699    
  15.499      16.698      18.504      20.936      23.931      27.327      30.860      34.187      36.926      38.734    
  39.366      38.734      36.926      34.186      30.860      27.327      23.931      20.935      18.504      16.699    
  15.499      14.822      14.545      14.528      14.633      14.746      14.793      14.746      14.633      14.528    
  14.546      14.823      13.605      14.822      16.613      19.025      22.037      25.534      29.297      33.006    
  36.281      38.734      40.050      40.050      38.734      36.280      33.006      29.297      25.535      22.037    
  19.025      16.613      14.823      13.605      12.863      12.476      12.319      12.283      12.287      12.288    
  12.284      12.319      12.475      12.863      11.703      12.863      14.545      16.821      19.703      23.122    
  26.911      30.800      34.431      37.407      39.366      40.050      39.366      37.407      34.430      30.800    
  26.912      23.122      19.702      16.821      14.546      12.863      11.703      10.966      10.540      10.320    
  10.224      10.199      10.225      10.321      10.540      10.966      9.9202      10.966      12.475      14.528    
  17.162      20.352      23.983      27.841      31.614      34.930      37.407      38.734      38.734      37.407    
  34.930      31.614      27.841      23.983      20.352      17.162      14.528      12.476      10.966      9.9201    
  9.2401      8.8289      8.6040      8.5069      8.5072      8.6042      8.8286      9.2398      8.3378      9.2400    
  10.540      12.319      14.633      17.487      20.814      24.459      28.169      31.614      34.430      36.280    
  36.926      36.281      34.431      31.614      28.169      24.459      20.814      17.486      14.633      12.319    
  10.540      9.2396      8.3378      7.7463      7.3855      7.1944      7.1352      7.1947      7.3854      7.7460    
  6.9969      7.7462      8.8288      10.320      12.284      14.746      17.680      20.981      24.459      27.841    
  30.800      33.006      34.186      34.186      33.006      30.800      27.841      24.459      20.981      17.680    
  14.746      12.284      10.321      8.8285      7.7459      6.9970      6.5076      6.2166      6.0819      6.0821    
  6.2167      6.5074      5.9044      6.5075      7.3855      8.6041      10.225      12.288      14.793      17.680    
  20.814      23.983      26.912      29.297      30.860      31.405      30.860      29.297      26.912      23.983    
  20.814      17.680      14.793      12.288      10.225      8.6042      7.3854      6.5074      5.9045      5.5180    
  5.3041      5.2358      5.3042      5.5181      5.0454      5.5180      6.2167      7.1946      8.5071      10.199    
  12.288      14.746      17.486      20.352      23.122      25.535      27.327      28.284      28.284      27.327    
  25.534      23.122      20.352      17.486      14.746      12.287      10.199      8.5072      7.1947      6.2167    
  5.5181      5.0454      4.7550      4.6173      4.6174      4.7551      4.3937      4.7551      5.3041      6.0820    
  7.1352      8.5071      10.225      12.284      14.633      17.162      19.702      22.037      23.931      25.168    
  25.599      25.168      23.931      22.037      19.703      17.162      14.633      12.284      10.225      8.5070    
  7.1352      6.0820      5.3042      4.7551      4.3937      4.1893      4.1233      4.1894      3.9214      4.1893    
  4.6174      5.2358      6.0820      7.1945      8.6041      10.321      12.319      14.528      16.821      19.025    
  20.935      22.349      23.103      23.103      22.350      20.935      19.025      16.821      14.528      12.319    
  10.321      8.6040      7.1944      6.0819      5.2358      4.6174      4.1894      3.9213      3.7926      3.7926    
  3.6031      3.7926      4.1233      4.6174      5.3041      6.2166      7.3854      8.8286      10.540      12.476    
  14.546      16.613      18.504      20.031      21.027      21.373      21.027      20.031      18.504      16.613    
  14.546      12.476      10.540      8.8288      7.3854      6.2166      5.3041      4.6173      4.1233      3.7926    
  3.6031      3.5415      3.4200      3.5415      3.7926      4.1894      4.7551      5.5181      6.5075      7.7460    
  9.2398      10.966      12.863      14.823      16.699      18.320      19.516      20.153      20.153      19.516    
  18.320      16.699      14.822      12.863      10.966      9.2400      7.7462      6.5076      5.5181      4.7550    
  4.1893      3.7926      3.5415      3.4200      3.4604      3.5206      3.7053      4.0263      4.5033      5.1624    
  6.0328      7.1414      8.5040      10.113      11.928      13.864      15.794      17.556      18.978      19.904    
  20.225      19.904      18.978      17.556      15.794      13.864      11.928      10.113      8.5040      7.1414    
  6.0328      5.1624      4.5033      4.0263      3.7053      3.5206      3.5206      3.5206      3.6506      3.9194    
  4.3451      4.9539      5.7785      6.8524      8.2021      9.8347      11.725      13.805      15.957      18.019    
  19.802      21.120      21.821      21.820      21.120      19.803      18.020      15.958      13.806      11.725    
  9.8344      8.2019      6.8524      5.7785      4.9539      4.3451      3.9194      3.6506      3.7053      3.6357    
  3.7053      3.9194      4.2940      4.8558      5.6407      6.6898      8.0410      9.7173      11.712      13.974    
  16.397      18.821      21.042      22.839      24.011      24.418      24.010      22.838      21.042      18.822    
  16.397      13.974      11.712      9.7172      8.0409      6.6898      5.6408      4.8558      4.2940      3.9194    
  4.0263      3.8734      3.8734      4.0263      4.3451      4.8559      5.5973      6.6178      7.9672      9.6858    
  11.787      14.243      16.963      19.794      22.521      24.889      26.644      27.581      27.581      26.644    
  24.889      22.520      19.794      16.963      14.243      11.788      9.6859      7.9673      6.6178      5.5974    
  4.8558      4.3451      4.5033      4.2490      4.1669      4.2490      4.5033      4.9540      5.6408      6.6179    
  7.9467      9.6848      11.869      14.497      17.503      20.749      24.018      27.030      29.479      31.082    
  31.640      31.082      29.479      27.030      24.018      20.749      17.503      14.497      11.870      9.6849    
  7.9467      6.6178      5.6407      4.9539      5.1623      4.7841      4.6048      4.6047      4.7841      5.1624    
  5.7785      6.6899      7.9674      9.6850      11.903      14.648      17.886      21.506      25.302      28.983    
  32.199      34.593      35.873      35.873      34.593      32.199      28.983      25.302      21.506      17.886    
  14.648      11.903      9.6849      7.9674      6.6899      5.7784      6.0326      5.5052      5.2121      5.1182    
  5.2120      5.5051      6.0327      6.8523      8.0409      9.6860      11.870      14.648      18.024      21.923    
  26.168      30.474      34.465      37.724      39.865      40.611      39.865      37.724      34.465      30.474    
  26.168      21.923      18.024      14.648      11.869      9.6859      8.0411      6.8524      7.1413      6.4391    
  6.0168      5.8193      5.8192      6.0166      6.4393      7.1414      8.2018      9.7171      11.788      14.497    
  17.886      21.923      26.474      31.280      35.969      40.084      43.157      44.803      44.803      43.157    
  40.084      35.969      31.280      26.474      21.923      17.886      14.497      11.787      9.7173      8.2021    
  8.5040      7.6071      7.0442      6.7382      6.6413      6.7379      7.0442      7.6075      8.5040      9.8343    
  11.712      14.243      17.503      21.506      26.168      31.281      36.496      41.352      45.331      47.948    
  48.862      47.948      45.330      41.353      36.496      31.280      26.168      21.506      17.503      14.242    
  11.712      9.8347      10.114      9.0145      8.3094      7.8985      7.7111      7.7108      7.8983      8.3097    
  9.0149      10.113      11.725      13.974      16.963      20.749      25.302      30.474      35.969      41.352    
  46.090      49.636      51.537      51.536      49.635      46.090      41.352      35.969      30.474      25.302    
  20.749      16.963      13.973      11.725      11.929      10.640      9.8064      9.3076      9.0484      8.9685    
  9.0479      9.3075      9.8068      10.640      11.928      13.806      16.397      19.794      24.018      28.983    
  34.465      40.084      45.330      49.636      52.470      53.457      52.469      49.636      45.331      40.083    
  34.465      28.983      24.018      19.794      16.397      13.806      13.865      12.425      11.497      10.945    
  10.649      10.523      10.523      10.648      10.945      11.497      12.424      13.865      15.958      18.822    
  22.520      27.030      32.199      37.724      43.157      47.948      51.536      53.457      53.456      51.536    
  47.948      43.157      37.724      32.199      27.030      22.521      18.821      15.957      15.794      14.268    
  13.303      12.751      12.472      12.353      12.322      12.353      12.472      12.751      13.303      14.268    
  15.794      18.020      21.042      24.889      29.479      34.593      39.865      44.803      48.862      51.536    
  52.469      51.536      48.862      44.804      39.865      34.593      29.479      24.889      21.042      18.019    
  17.556      16.032      15.105      14.624      14.432      14.392      14.399      14.399      14.392      14.432    
  14.624      15.105      16.032      17.556      19.803      22.838      26.644      31.081      35.873      40.612    
  44.804      47.948      49.636      49.635      47.948      44.804      40.612      35.873      31.081      26.645    
  22.839      19.802      18.978      17.556      16.752      16.421      16.398      16.521      16.655      16.709    
  16.654      16.521      16.398      16.422      16.752      17.556      18.978      21.120      24.010      27.581    
  31.640      35.873      39.865      43.157      45.331      46.090      45.330      43.157      39.865      35.873    
  31.640      27.581      24.011      21.120      19.903      18.680      18.082      17.978      18.202      18.576    
  18.933      19.146      19.146      18.933      18.576      18.203      17.978      18.082      18.681      19.904    
  21.820      24.418      27.581      31.081      34.593      37.724      40.084      41.353      41.353      40.084    
  37.724      34.593      31.081      27.581      24.418      21.821      20.225      19.279      18.948      19.130    
  19.664      20.363      21.036      21.515      21.688      21.515      21.036      20.363      19.664      19.130    
  18.949      19.279      20.225      21.821      24.011      26.645      29.479      32.199      34.465      35.969    
  36.496      35.969      34.465      32.199      29.479      26.644      24.011      21.821      19.903      19.279    
  19.250      19.743      20.618      21.690      22.746      23.585      24.049      24.049      23.585      22.745    
  21.689      20.618      19.743      19.249      19.279      19.903      21.120      22.839      24.889      27.030    
  28.983      30.474      31.280      31.280      30.474      28.983      27.030      24.889      22.839      21.120    
  18.978      18.680      18.949      19.743      20.950      22.397      23.865      25.126      25.977      26.277    
  25.977      25.126      23.865      22.397      20.950      19.743      18.948      18.680      18.978      19.802    
  21.042      22.521      24.018      25.302      26.168      26.474      26.168      25.302      24.018      22.521    
  21.042      19.802      17.556      17.556      18.082      19.130      20.618      22.397      24.255      25.950    
  27.242      27.942      27.942      27.243      25.950      24.255      22.397      20.619      19.130      18.082    
  17.556      17.556      18.019      18.821      19.794      20.749      21.506      21.923      21.923      21.506    
  20.749      19.794      18.822      18.020      15.794      16.032      16.752      17.978      19.664      21.690    
  23.865      25.950      27.684      28.834      29.237      28.834      27.684      25.950      23.865      21.690    
  19.664      17.978      16.752      16.032      15.794      15.957      16.397      16.963      17.503      17.886    
  18.024      17.886      17.503      16.963      16.397      15.958      13.865      14.268      15.105      16.422    
  18.203      20.363      22.746      25.126      27.243      28.834      29.689      29.689      28.834      27.242    
  25.126      22.746      20.364      18.202      16.421      15.105      14.268      13.865      13.805      13.973    
  14.242      14.497      14.648      14.648      14.497      14.242      13.973      13.806      11.929      12.424    
  13.303      14.624      16.398      18.576      21.035      23.585      25.977      27.942      29.237      29.689    
  29.237      27.942      25.977      23.585      21.036      18.576      16.398      14.624      13.303      12.425    
  11.928      11.725      11.712      11.787      11.869      11.903      11.870      11.787      11.712      11.725    
  10.114      10.640      11.497      12.751      14.432      16.521      18.933      21.515      24.049      26.277    
  27.942      28.834      28.834      27.942      26.277      24.048      21.515      18.933      16.521      14.432    
  12.751      11.497      10.640      10.114      9.8348      9.7174      9.6858      9.6848      9.6850      9.6860    
  9.7171      9.8345      8.5040      9.0148      9.8066      10.945      12.472      14.392      16.655      19.146    
  21.688      24.049      25.977      27.242      27.684      27.243      25.977      24.049      21.688      19.146    
  16.655      14.392      12.472      10.945      9.8064      9.0144      8.5040      8.2022      8.0411      7.9673    
  7.9467      7.9675      8.0410      8.2018      7.1413      7.6073      8.3096      9.3075      10.649      12.353    
  14.399      16.710      19.146      21.515      23.585      25.126      25.949      25.950      25.126      23.585    
  21.515      19.146      16.710      14.399      12.353      10.649      9.3076      8.3093      7.6070      7.1413    
  6.8524      6.6898      6.6178      6.6179      6.6899      6.8523      6.0326      6.4392      7.0442      7.8984    
  9.0481      10.523      12.322      14.399      16.654      18.933      21.036      22.746      23.865      24.255    
  23.865      22.746      21.036      18.933      16.654      14.399      12.322      10.523      9.0485      7.8985    
  7.0441      6.4391      6.0327      5.7784      5.6407      5.5974      5.6408      5.7785      5.1623      5.5052    
  6.0167      6.7381      7.7110      8.9686      10.523      12.353      14.391      16.521      18.576      20.364    
  21.690      22.397      22.397      21.690      20.363      18.576      16.521      14.392      12.353      10.523    
  8.9686      7.7111      6.7382      6.0168      5.5052      5.1623      4.9539      4.8558      4.8558      4.9539    
  4.5033      4.7841      5.2121      5.8192      6.6413      7.7110      9.0482      10.649      12.472      14.432    
  16.398      18.202      19.664      20.619      20.951      20.619      19.664      18.203      16.398      14.432    
  12.472      10.648      9.0480      7.7109      6.6413      5.8193      5.2121      4.7842      4.5033      4.3450    
  4.2940      4.3451      4.0263      4.2490      4.6047      5.1182      5.8192      6.7380      7.8984      9.3076    
  10.945      12.751      14.624      16.421      17.978      19.130      19.743      19.743      19.130      17.978    
  16.421      14.624      12.751      10.945      9.3076      7.8983      6.7379      5.8191      5.1182      4.6048    
  4.2490      4.0263      3.9194      3.9194      3.7053      3.8734      4.1669      4.6047      5.2120      6.0167    
  7.0441      8.3094      9.8066      11.497      13.303      15.105      16.752      18.082      18.948      19.249    
  18.948      18.082      16.752      15.105      13.303      11.497      9.8068      8.3096      7.0442      6.0166    
  5.2120      4.6047      4.1668      3.8734      3.7053      3.6506      3.5206      3.6357      3.8734      4.2490    
  4.7841      5.5052      6.4392      7.6072      9.0145      10.640      12.424      14.268      16.032      17.556    
  18.680      19.279      19.279      18.681      17.556      16.032      14.268      12.424      10.640      9.0148    
  7.6074      6.4393      5.5052      4.7841      4.2490      3.8734      3.6357      3.5206      3.7653      3.8270    
  4.0163      4.3459      4.8368      5.5176      6.4211      7.5769      9.0024      10.690      12.596      14.632    
  16.662      18.518      20.016      20.992      21.331      20.992      20.016      18.518      16.662      14.632    
  12.596      10.690      9.0024      7.5769      6.4211      5.5177      4.8368      4.3458      4.0163      3.8270    
  3.8270      3.8270      3.9678      4.2596      4.7228      5.3886      6.2956      7.4838      8.9844      10.807    
  12.922      15.254      17.671      19.990      21.998      23.483      24.274      24.274      23.483      21.998    
  19.990      17.671      15.254      12.922      10.806      8.9842      7.4837      6.2956      5.3887      4.7228    
  4.2595      3.9678      4.0163      3.9373      4.0163      4.2595      4.6865      5.3299      6.2344      7.4511    
  9.0273      10.992      13.337      16.004      18.868      21.740      24.377      26.514      27.910      28.396    
  27.910      26.514      24.377      21.740      18.869      16.004      13.337      10.991      9.0272      7.4511    
  6.2345      5.3299      4.6865      4.2596      4.3459      4.1656      4.1655      4.3458      4.7229      5.3299    
  6.2165      7.4441      9.0770      11.166      13.731      16.737      20.077      23.564      26.933      29.867    
  32.047      33.211      33.211      32.047      29.866      26.933      23.564      20.077      16.737      13.731    
  11.166      9.0770      7.4442      6.2165      5.3299      4.7228      4.8368      4.5266      4.4266      4.5265    
  4.8368      5.3887      6.2345      7.4442      9.0978      11.270      14.010      17.316      21.112      25.226    
  29.384      33.228      36.362      38.419      39.136      38.419      36.362      33.228      29.383      25.226    
  21.112      17.316      14.010      11.270      9.0978      7.4442      6.2344      5.3886      5.5176      5.0420    
  4.8171      4.8170      5.0419      5.5176      6.2956      7.4512      9.0771      11.270      14.110      17.635    
  21.809      26.492      31.423      36.224      40.433      43.575      45.258      45.258      43.575      40.433    
  36.224      31.423      26.492      21.809      17.636      14.110      11.270      9.0771      7.4512      6.2955    
  6.4209      5.7385      5.3602      5.2391      5.3600      5.7385      6.4211      7.4837      9.0272      11.166    
  14.010      17.636      22.055      27.177      32.776      38.481      43.789      48.138      50.999      51.997    
  50.999      48.138      43.790      38.481      32.776      27.177      22.055      17.636      14.010      11.166    
  9.0274      7.4837      7.5768      6.6434      6.0812      5.8182      5.8181      6.0810      6.6436      7.5769    
  8.9841      10.991      13.731      17.317      21.809      27.177      33.250      39.694      46.005      51.558    
  55.677      57.851      57.851      55.677      51.558      46.005      39.694      33.250      27.177      21.809    
  17.316      13.731      10.992      8.9844      9.0024      7.7777      7.0033      6.5798      6.4453      6.5794    
  7.0033      7.7781      9.0024      10.806      13.337      16.737      21.112      26.492      32.776      39.694    
  46.779      53.383      58.688      62.067      63.220      62.066      58.687      53.383      46.779      39.694    
  32.776      26.492      21.112      16.737      13.337      10.807      10.690      9.1469      8.1399      7.5432    
  7.2676      7.2673      7.5429      8.1402      9.1474      10.690      12.922      16.004      20.077      25.225    
  31.423      38.481      46.005      53.383      59.720      64.244      66.569      66.568      64.243      59.720    
  53.383      46.004      38.481      31.423      25.226      20.077      16.004      12.922      12.597      10.730    
  9.4853      8.7143      8.3005      8.1705      8.2999      8.7142      9.4858      10.730      12.596      15.255    
  18.869      23.564      29.383      36.224      43.789      51.558      58.687      64.243      67.697      68.860    
  67.697      64.244      58.688      51.558      43.789      36.224      29.384      23.564      18.868      15.254    
  14.632      12.469      11.005      10.075      9.5400      9.2982      9.2978      9.5396      10.076      11.005    
  12.468      14.632      17.671      21.740      26.933      33.228      40.433      48.138      55.677      62.066    
  66.568      68.860      68.860      66.568      62.067      55.678      48.138      40.432      33.228      26.933    
  21.740      17.671      16.662      14.265      12.629      11.578      10.954      10.634      10.536      10.633    