As                                      
   1.00000000000000     
     3.820550    0.000000    0.000000
    -1.910275    3.308693    0.000000
     0.000000    0.000000   10.789630
   As
     6
Direct
  0.000000  0.000000  0.226570
  0.000000  0.000000  0.773430
  0.666667  0.333333  0.559900
  0.666667  0.333333  0.106760
  0.333333  0.666667  0.893240
  0.333333  0.666667  0.440100
 
   32   32   96
 0.33602821272E+01 0.34200062156E+01 0.36031178587E+01 0.39213422408E+01 0.43937434712E+01
 0.50454225368E+01 0.59045761784E+01 0.69970462163E+01 0.83378305075E+01 0.99200075030E+01
 0.11703111848E+02 0.13604664903E+02 0.15499318341E+02 0.17228960074E+02 0.18624025589E+02
 0.19532213587E+02 0.19847596839E+02 0.19532213587E+02 0.18624025589E+02 0.17228960074E+02
 0.15499318341E+02 0.13604664903E+02 0.11703111848E+02 0.99200075030E+01 0.83378305075E+01
 0.69970462163E+01 0.59045761784E+01 0.50454225368E+01 0.43937434712E+01 0.39213422408E+01
 0.36031178587E+01 0.34200062156E+01 0.34200038190E+01 0.34200038533E+01 0.35414734189E+01
 0.37925537380E+01 0.41893276308E+01 0.47550495621E+01 0.55180775295E+01 0.65075758167E+01
 0.77462366055E+01 0.92400137459E+01 0.10966173868E+02 0.12862582285E+02 0.14822421925E+02
 0.16698542332E+02 0.18319609972E+02 0.19516442124E+02 0.20152839785E+02 0.20152803567E+02
 0.19516406135E+02 0.18319709902E+02 0.16698812718E+02 0.14822723743E+02 0.12862713275E+02
 0.10966056328E+02 0.92397600155E+01 0.77460289468E+01 0.65075053787E+01 0.55181077524E+01
 0.47551003852E+01 0.41893563050E+01 0.37925617575E+01 0.35414742167E+01 0.36031175217E+01
 0.35414710224E+01 0.36031179817E+01 0.37925657340E+01 0.41232811299E+01 0.46173407663E+01
 0.53040627469E+01 0.62165860885E+01 0.73854444120E+01 0.88287965232E+01 0.10540120859E+02
 0.12475685414E+02 0.14545569528E+02 0.16612723094E+02 0.18503650358E+02 0.20031389041E+02
 0.21027163727E+02 0.21373138897E+02 0.21027058562E+02 0.20031326149E+02 0.18503756617E+02
 0.16612955243E+02 0.14545747356E+02 0.12475669222E+02 0.10539941370E+02 0.88286087488E+01
 0.73853726323E+01 0.62166287582E+01 0.53041350742E+01 0.46173773919E+01 0.41232815799E+01
 0.37925593610E+01 0.39213524402E+01 0.37925663339E+01 0.37925555346E+01 0.39213484103E+01
 0.41893775541E+01 0.46174086694E+01 0.52358044628E+01 0.60819171534E+01 0.71944195378E+01
 0.86039661522E+01 0.10320551245E+02 0.12319296145E+02 0.14528025478E+02 0.16821232203E+02
 0.19024985665E+02 0.20935413098E+02 0.22349588834E+02 0.23102862879E+02 0.23102813498E+02
 0.22349476319E+02 0.20935292014E+02 0.19024867792E+02 0.16821119565E+02 0.14527958199E+02
 0.12319313648E+02 0.10320636622E+02 0.86040710708E+01 0.71945131738E+01 0.60819782971E+01
 0.52358091793E+01 0.46173671925E+01 0.41893437091E+01 0.43937434712E+01 0.41893740146E+01
 0.41232814668E+01 0.41893233675E+01 0.43937432845E+01 0.47551331650E+01 0.53042083770E+01
 0.60820473988E+01 0.71352224266E+01 0.85069737050E+01 0.10224514517E+02 0.12283550409E+02
 0.14632673068E+02 0.17162153283E+02 0.19702515071E+02 0.22037213645E+02 0.23930696884E+02
 0.25168316837E+02 0.25599024317E+02 0.25168336164E+02 0.23930695993E+02 0.22037088017E+02
 0.19702230506E+02 0.17161893315E+02 0.14632675094E+02 0.12283798606E+02 0.10224765719E+02
 0.85070747202E+01 0.71352219196E+01 0.60820120850E+01 0.53041354112E+01 0.47550587944E+01
 0.50453598874E+01 0.47551098150E+01 0.46174034158E+01 0.46173358206E+01 0.47550265282E+01
 0.50453908501E+01 0.55181080128E+01 0.62167016433E+01 0.71946534839E+01 0.85072115114E+01
 0.10198901723E+02 0.12287464868E+02 0.14745884940E+02 0.17486323298E+02 0.20351828422E+02
 0.23121742779E+02 0.25534463218E+02 0.27326922051E+02 0.28283889153E+02 0.28283928359E+02
 0.27327068159E+02 0.25534653260E+02 0.23121765794E+02 0.20351651922E+02 0.17486228187E+02
 0.14746044849E+02 0.12287655531E+02 0.10198869372E+02 0.85070560581E+01 0.71945860226E+01
 0.62166914076E+01 0.55180474995E+01 0.59044307535E+01 0.55180751330E+01 0.53042078349E+01
 0.52358146622E+01 0.53040629521E+01 0.55180453634E+01 0.59045033338E+01 0.65074295854E+01
 0.73853714012E+01 0.86041896914E+01 0.10224944211E+02 0.12287754272E+02 0.14792609671E+02
 0.17679583559E+02 0.20813903810E+02 0.23983023076E+02 0.26911605675E+02 0.29296808589E+02
 0.30860266137E+02 0.31405078165E+02 0.30860226588E+02 0.29296977559E+02 0.26911930448E+02
 0.23983177141E+02 0.20813863450E+02 0.17679611038E+02 0.14792680689E+02 0.12287592882E+02
 0.10224620294E+02 0.86040812702E+01 0.73855177203E+01 0.65075029822E+01 0.69968985784E+01
 0.65074305753E+01 0.62167337264E+01 0.60820749907E+01 0.60819437481E+01 0.62166166548E+01
 0.65075772234E+01 0.69969736556E+01 0.77458934025E+01 0.88284944772E+01 0.10320630439E+02
 0.12283904349E+02 0.14746184456E+02 0.17679714146E+02 0.20980819729E+02 0.24458640896E+02
 0.27840689822E+02 0.30800342481E+02 0.33006353007E+02 0.34186229929E+02 0.34186014598E+02
 0.33006078678E+02 0.30800452813E+02 0.27840952377E+02 0.24458667534E+02 0.20980745100E+02
 0.17679758676E+02 0.14746129837E+02 0.12283606981E+02 0.10320478785E+02 0.88287563868E+01
 0.77461741882E+01 0.83378305075E+01 0.77459680953E+01 0.73854447489E+01 0.71946802452E+01
 0.71352224266E+01 0.71944452266E+01 0.73855168261E+01 0.77463119472E+01 0.83378317239E+01
 0.92396483005E+01 0.10539763535E+02 0.12319178567E+02 0.14632673363E+02 0.17486360935E+02
 0.20814041232E+02 0.24458780652E+02 0.28168690922E+02 0.31614290939E+02 0.34430704749E+02
 0.36280968076E+02 0.36926221120E+02 0.36280465046E+02 0.34430420367E+02 0.31614408054E+02
 0.28168690756E+02 0.24458544265E+02 0.20814008874E+02 0.17486561743E+02 0.14632675094E+02
 0.12319032542E+02 0.10539941707E+02 0.92400333188E+01 0.99202358586E+01 0.92397829938E+01
 0.88285681677E+01 0.86041843084E+01 0.85071580732E+01 0.85069205064E+01 0.86039613359E+01
 0.88288704707E+01 0.92401475628E+01 0.99201208133E+01 0.10966057133E+02 0.12475541216E+02
 0.14527793374E+02 0.17161812953E+02 0.20351681962E+02 0.23983214956E+02 0.27840878805E+02
 0.31614235270E+02 0.34929630795E+02 0.37407243733E+02 0.38734276142E+02 0.38734005170E+02
 0.37406911815E+02 0.34929743013E+02 0.31614365502E+02 0.27840576383E+02 0.23982948785E+02
 0.20351942927E+02 0.17162165658E+02 0.14527740043E+02 0.12475440866E+02 0.10966287080E+02
 0.11703468198E+02 0.10966171472E+02 0.10539764171E+02 0.10320561445E+02 0.10224870868E+02
 0.10198839073E+02 0.10224442436E+02 0.10320482801E+02 0.10540119885E+02 0.10966285488E+02
 0.11703289405E+02 0.12862841627E+02 0.14545748732E+02 0.16821023222E+02 0.19702125379E+02
 0.23121695111E+02 0.26911857853E+02 0.30800340172E+02 0.34430314983E+02 0.37406922714E+02
 0.39366048208E+02 0.40049951576E+02 0.39365870799E+02 0.37407140170E+02 0.34430776717E+02
 0.30800305175E+02 0.26911428673E+02 0.23121703145E+02 0.19702586856E+02 0.16821129764E+02
 0.14545390669E+02 0.12862710878E+02 0.13604922422E+02 0.12862842201E+02 0.12475427895E+02
 0.12319048825E+02 0.12283851915E+02 0.12287785037E+02 0.12287496753E+02 0.12283499192E+02
 0.12319165179E+02 0.12475570379E+02 0.12862584108E+02 0.13604795125E+02 0.14822893675E+02
 0.16613056137E+02 0.19024862102E+02 0.22037028747E+02 0.25534623826E+02 0.29297015585E+02
 0.33006149270E+02 0.36280496307E+02 0.38733949234E+02 0.40049823816E+02 0.40049694057E+02
 0.38733976006E+02 0.36280993471E+02 0.33006483835E+02 0.29296720040E+02 0.25534333091E+02
 0.22037301549E+02 0.19025115111E+02 0.16612697724E+02 0.14822463828E+02 0.15499318341E+02
 0.14822766602E+02 0.14545569865E+02 0.14527672998E+02 0.14632673068E+02 0.14746289871E+02
 0.14792755096E+02 0.14745989813E+02 0.14632673363E+02 0.14527907299E+02 0.14545392381E+02
 0.14822293875E+02 0.15499316820E+02 0.16698915326E+02 0.18503862165E+02 0.20935326699E+02
 0.23930695994E+02 0.27327137813E+02 0.30860403797E+02 0.34186191021E+02 0.36926221965E+02
 0.38734033996E+02 0.39365691858E+02 0.38733705506E+02 0.36926221120E+02 0.34186504517E+02
 0.30860372013E+02 0.27326788528E+02 0.23930695993E+02 0.20935624096E+02 0.18503756954E+02
 0.16698472834E+02 0.17228755005E+02 0.16698745005E+02 0.16612928163E+02 0.16821016934E+02
 0.17161904227E+02 0.17486465718E+02 0.17679788628E+02 0.17679656714E+02 0.17486426773E+02
 0.17162246378E+02 0.16821228291E+02 0.16612593549E+02 0.16698367976E+02 0.17228857220E+02
 0.18319712860E+02 0.20031366047E+02 0.22349479474E+02 0.25168317258E+02 0.28283961453E+02
 0.31405184356E+02 0.34186328233E+02 0.36280958895E+02 0.37407127783E+02 0.37406810309E+02
 0.36280492100E+02 0.34186287360E+02 0.31405283234E+02 0.28283785939E+02 0.25168175082E+02
 0.22349691587E+02 0.20031531218E+02 0.18319507230E+02 0.18623815000E+02 0.18319607576E+02
 0.18503860609E+02 0.19024995865E+02 0.19702304483E+02 0.20351765773E+02 0.20813968974E+02
 0.20980672091E+02 0.20813830644E+02 0.20351910318E+02 0.19702692318E+02 0.19025119621E+02
 0.18503651577E+02 0.18319507791E+02 0.18623920589E+02 0.19516364777E+02 0.21027057529E+02
 0.23102779924E+02 0.25598920513E+02 0.28283756384E+02 0.30860193208E+02 0.33006406789E+02
 0.34430881922E+02 0.34929859150E+02 0.34430494160E+02 0.33006205369E+02 0.30860331300E+02
 0.28283826503E+02 0.25598813729E+02 0.23102823698E+02 0.21027268813E+02 0.19516403738E+02
 0.19532135266E+02 0.19516366199E+02 0.20031467362E+02 0.20935501619E+02 0.22037179311E+02
 0.23121727107E+02 0.23983101397E+02 0.24458571579E+02 0.24458431424E+02 0.23982908279E+02
 0.23121773432E+02 0.22037364587E+02 0.20935590659E+02 0.20031492795E+02 0.19516443098E+02
 0.19532173348E+02 0.20152802312E+02 0.21373179306E+02 0.23102858245E+02 0.25168190511E+02
 0.27326717211E+02 0.29296679745E+02 0.30800418493E+02 0.31614541947E+02 0.31614483525E+02
 0.30800411798E+02 0.29296886910E+02 0.27326937723E+02 0.25168194529E+02 0.23102774358E+02
 0.21373217218E+02 0.20152879492E+02 0.19847596839E+02 0.20152842181E+02 0.21027164063E+02
 0.22349578635E+02 0.23930696884E+02 0.25534525868E+02 0.26911751100E+02 0.27840837460E+02
 0.28168690922E+02 0.27840650450E+02 0.26911501503E+02 0.25534366307E+02 0.23930695994E+02
 0.22349684543E+02 0.21027268117E+02 0.20152880633E+02 0.19847598148E+02 0.20152880633E+02
 0.21027268117E+02 0.22349684543E+02 0.23930695994E+02 0.25534366307E+02 0.26911501503E+02
 0.27840650450E+02 0.28168690922E+02 0.27840837460E+02 0.26911751100E+02 0.25534525868E+02
 0.23930696884E+02 0.22349578635E+02 0.21027164063E+02 0.20152842181E+02 0.19532135266E+02
 0.20152879492E+02 0.21373217218E+02 0.23102774358E+02 0.25168194529E+02 0.27326937723E+02
 0.29296886910E+02 0.30800411798E+02 0.31614483525E+02 0.31614541947E+02 0.30800418493E+02
 0.29296679745E+02 0.27326717211E+02 0.25168190511E+02 0.23102858245E+02 0.21373179306E+02
 0.20152802312E+02 0.19532173348E+02 0.19516443098E+02 0.20031492795E+02 0.20935590659E+02
 0.22037364587E+02 0.23121773432E+02 0.23982908279E+02 0.24458431424E+02 0.24458571579E+02
 0.23983101397E+02 0.23121727107E+02 0.22037179311E+02 0.20935501619E+02 0.20031467362E+02
 0.19516366199E+02 0.18623815000E+02 0.19516403738E+02 0.21027268813E+02 0.23102823698E+02
 0.25598813729E+02 0.28283826503E+02 0.30860331300E+02 0.33006205369E+02 0.34430494160E+02
 0.34929859150E+02 0.34430881922E+02 0.33006406789E+02 0.30860193208E+02 0.28283756384E+02
 0.25598920513E+02 0.23102779924E+02 0.21027057529E+02 0.19516364777E+02 0.18623920589E+02
 0.18319507791E+02 0.18503651577E+02 0.19025119621E+02 0.19702692318E+02 0.20351910318E+02
 0.20813830644E+02 0.20980672091E+02 0.20813968974E+02 0.20351765773E+02 0.19702304483E+02
 0.19024995865E+02 0.18503860609E+02 0.18319607576E+02 0.17228755005E+02 0.18319507230E+02
 0.20031531218E+02 0.22349691587E+02 0.25168175082E+02 0.28283785939E+02 0.31405283234E+02
 0.34186287360E+02 0.36280492100E+02 0.37406810309E+02 0.37407127783E+02 0.36280958895E+02
 0.34186328233E+02 0.31405184356E+02 0.28283961453E+02 0.25168317258E+02 0.22349479474E+02
 0.20031366047E+02 0.18319712860E+02 0.17228857220E+02 0.16698367976E+02 0.16612593549E+02
 0.16821228291E+02 0.17162246378E+02 0.17486426773E+02 0.17679656714E+02 0.17679788628E+02
 0.17486465718E+02 0.17161904227E+02 0.16821016934E+02 0.16612928163E+02 0.16698745005E+02
 0.15499318341E+02 0.16698472834E+02 0.18503756954E+02 0.20935624096E+02 0.23930695993E+02
 0.27326788528E+02 0.30860372013E+02 0.34186504517E+02 0.36926221120E+02 0.38733705506E+02
 0.39365691858E+02 0.38734033996E+02 0.36926221965E+02 0.34186191021E+02 0.30860403797E+02
 0.27327137813E+02 0.23930695994E+02 0.20935326699E+02 0.18503862165E+02 0.16698915326E+02
 0.15499316820E+02 0.14822293875E+02 0.14545392381E+02 0.14527907299E+02 0.14632673363E+02
 0.14745989813E+02 0.14792755096E+02 0.14746289871E+02 0.14632673068E+02 0.14527672998E+02
 0.14545569865E+02 0.14822766602E+02 0.13604922422E+02 0.14822463828E+02 0.16612697724E+02
 0.19025115111E+02 0.22037301549E+02 0.25534333091E+02 0.29296720040E+02 0.33006483835E+02
 0.36280993471E+02 0.38733976006E+02 0.40049694057E+02 0.40049823816E+02 0.38733949234E+02
 0.36280496307E+02 0.33006149270E+02 0.29297015585E+02 0.25534623826E+02 0.22037028747E+02
 0.19024862102E+02 0.16613056137E+02 0.14822893675E+02 0.13604795125E+02 0.12862584108E+02
 0.12475570379E+02 0.12319165179E+02 0.12283499192E+02 0.12287496753E+02 0.12287785037E+02
 0.12283851915E+02 0.12319048825E+02 0.12475427895E+02 0.12862842201E+02 0.11703468198E+02
 0.12862710878E+02 0.14545390669E+02 0.16821129764E+02 0.19702586856E+02 0.23121703145E+02
 0.26911428673E+02 0.30800305175E+02 0.34430776717E+02 0.37407140170E+02 0.39365870799E+02
 0.40049951576E+02 0.39366048208E+02 0.37406922714E+02 0.34430314983E+02 0.30800340172E+02
 0.26911857853E+02 0.23121695111E+02 0.19702125379E+02 0.16821023222E+02 0.14545748732E+02
 0.12862841627E+02 0.11703289405E+02 0.10966285488E+02 0.10540119885E+02 0.10320482801E+02
 0.10224442436E+02 0.10198839073E+02 0.10224870868E+02 0.10320561445E+02 0.10539764171E+02
 0.10966171472E+02 0.99202358586E+01 0.10966287080E+02 0.12475440866E+02 0.14527740043E+02
 0.17162165658E+02 0.20351942927E+02 0.23982948785E+02 0.27840576383E+02 0.31614365502E+02
 0.34929743013E+02 0.37406911815E+02 0.38734005170E+02 0.38734276142E+02 0.37407243733E+02
 0.34929630795E+02 0.31614235270E+02 0.27840878805E+02 0.23983214956E+02 0.20351681962E+02
 0.17161812953E+02 0.14527793374E+02 0.12475541216E+02 0.10966057133E+02 0.99201208133E+01
 0.92401475628E+01 0.88288704707E+01 0.86039613359E+01 0.85069205064E+01 0.85071580732E+01
 0.86041843084E+01 0.88285681677E+01 0.92397829938E+01 0.83378305075E+01 0.92400333188E+01
 0.10539941707E+02 0.12319032542E+02 0.14632675094E+02 0.17486561743E+02 0.20814008874E+02
 0.24458544265E+02 0.28168690756E+02 0.31614408054E+02 0.34430420367E+02 0.36280465046E+02
 0.36926221120E+02 0.36280968076E+02 0.34430704749E+02 0.31614290939E+02 0.28168690922E+02
 0.24458780652E+02 0.20814041232E+02 0.17486360935E+02 0.14632673363E+02 0.12319178567E+02
 0.10539763535E+02 0.92396483005E+01 0.83378317239E+01 0.77463119472E+01 0.73855168261E+01
 0.71944452266E+01 0.71352224266E+01 0.71946802452E+01 0.73854447489E+01 0.77459680953E+01
 0.69968985784E+01 0.77461741882E+01 0.88287563868E+01 0.10320478785E+02 0.12283606981E+02
 0.14746129837E+02 0.17679758676E+02 0.20980745100E+02 0.24458667534E+02 0.27840952377E+02
 0.30800452813E+02 0.33006078678E+02 0.34186014598E+02 0.34186229929E+02 0.33006353007E+02
 0.30800342481E+02 0.27840689822E+02 0.24458640896E+02 0.20980819729E+02 0.17679714146E+02
 0.14746184456E+02 0.12283904349E+02 0.10320630439E+02 0.88284944772E+01 0.77458934025E+01
 0.69969736556E+01 0.65075772234E+01 0.62166166548E+01 0.60819437481E+01 0.60820749907E+01
 0.62167337264E+01 0.65074305753E+01 0.59044307535E+01 0.65075029822E+01 0.73855177203E+01
 0.86040812702E+01 0.10224620294E+02 0.12287592882E+02 0.14792680689E+02 0.17679611038E+02
 0.20813863450E+02 0.23983177141E+02 0.26911930448E+02 0.29296977559E+02 0.30860226588E+02
 0.31405078165E+02 0.30860266137E+02 0.29296808589E+02 0.26911605675E+02 0.23983023076E+02
 0.20813903810E+02 0.17679583559E+02 0.14792609671E+02 0.12287754272E+02 0.10224944211E+02
 0.86041896914E+01 0.73853714012E+01 0.65074295854E+01 0.59045033338E+01 0.55180453634E+01
 0.53040629521E+01 0.52358146622E+01 0.53042078349E+01 0.55180751330E+01 0.50453598874E+01
 0.55180474995E+01 0.62166914076E+01 0.71945860226E+01 0.85070560581E+01 0.10198869372E+02
 0.12287655531E+02 0.14746044849E+02 0.17486228187E+02 0.20351651922E+02 0.23121765794E+02
 0.25534653260E+02 0.27327068159E+02 0.28283928359E+02 0.28283889153E+02 0.27326922051E+02
 0.25534463218E+02 0.23121742779E+02 0.20351828422E+02 0.17486323298E+02 0.14745884940E+02
 0.12287464868E+02 0.10198901723E+02 0.85072115114E+01 0.71946534839E+01 0.62167016433E+01
 0.55181080128E+01 0.50453908501E+01 0.47550265282E+01 0.46173358206E+01 0.46174034158E+01
 0.47551098150E+01 0.43937434712E+01 0.47550587944E+01 0.53041354112E+01 0.60820120850E+01
 0.71352219196E+01 0.85070747202E+01 0.10224765719E+02 0.12283798606E+02 0.14632675094E+02
 0.17161893315E+02 0.19702230506E+02 0.22037088017E+02 0.23930695993E+02 0.25168336164E+02
 0.25599024317E+02 0.25168316837E+02 0.23930696884E+02 0.22037213645E+02 0.19702515071E+02
 0.17162153283E+02 0.14632673068E+02 0.12283550409E+02 0.10224514517E+02 0.85069737050E+01
 0.71352224266E+01 0.60820473988E+01 0.53042083770E+01 0.47551331650E+01 0.43937432845E+01
 0.41893233675E+01 0.41232814668E+01 0.41893740146E+01 0.39213524402E+01 0.41893437091E+01
 0.46173671925E+01 0.52358091793E+01 0.60819782971E+01 0.71945131738E+01 0.86040710708E+01
 0.10320636622E+02 0.12319313648E+02 0.14527958199E+02 0.16821119565E+02 0.19024867792E+02
 0.20935292014E+02 0.22349476319E+02 0.23102813498E+02 0.23102862879E+02 0.22349588834E+02
 0.20935413098E+02 0.19024985665E+02 0.16821232203E+02 0.14528025478E+02 0.12319296145E+02
 0.10320551245E+02 0.86039661522E+01 0.71944195378E+01 0.60819171534E+01 0.52358044628E+01
 0.46174086694E+01 0.41893775541E+01 0.39213484103E+01 0.37925555346E+01 0.37925663339E+01
 0.36031175217E+01 0.37925593610E+01 0.41232815799E+01 0.46173773919E+01 0.53041350742E+01
 0.62166287582E+01 0.73853726323E+01 0.88286087488E+01 0.10539941370E+02 0.12475669222E+02
 0.14545747356E+02 0.16612955243E+02 0.18503756617E+02 0.20031326149E+02 0.21027058562E+02
 0.21373138897E+02 0.21027163727E+02 0.20031389041E+02 0.18503650358E+02 0.16612723094E+02
 0.14545569528E+02 0.12475685414E+02 0.10540120859E+02 0.88287965232E+01 0.73854444120E+01
 0.62165860885E+01 0.53040627469E+01 0.46173407663E+01 0.41232811299E+01 0.37925657340E+01
 0.36031179817E+01 0.35414710224E+01 0.34200038190E+01 0.35414742167E+01 0.37925617575E+01
 0.41893563050E+01 0.47551003852E+01 0.55181077524E+01 0.65075053787E+01 0.77460289468E+01
 0.92397600155E+01 0.10966056328E+02 0.12862713275E+02 0.14822723743E+02 0.16698812718E+02
 0.18319709902E+02 0.19516406135E+02 0.20152803567E+02 0.20152839785E+02 0.19516442124E+02
 0.18319609972E+02 0.16698542332E+02 0.14822421925E+02 0.12862582285E+02 0.10966173868E+02
 0.92400137459E+01 0.77462366055E+01 0.65075758167E+01 0.55180775295E+01 0.47550495621E+01
 0.41893276308E+01 0.37925537380E+01 0.35414734189E+01 0.34200038533E+01 0.34604056571E+01
 0.35206215821E+01 0.37052846291E+01 0.40263271248E+01 0.45033397704E+01 0.51623632441E+01
 0.60327653552E+01 0.71414351327E+01 0.85039714967E+01 0.10113377464E+02 0.11928287248E+02
 0.13864484198E+02 0.15794173325E+02 0.17556257223E+02 0.18977867446E+02 0.19903535416E+02
 0.20225019758E+02 0.19903536285E+02 0.18977905090E+02 0.17556309417E+02 0.15794169091E+02
 0.13864417838E+02 0.11928229869E+02 0.10113365700E+02 0.85039739235E+01 0.71414350621E+01
 0.60327848911E+01 0.51623943737E+01 0.45033397099E+01 0.40262957407E+01 0.37052674614E+01
 0.35206289208E+01 0.35206189937E+01 0.35206083639E+01 0.36505594402E+01 0.39194060371E+01
 0.43450521542E+01 0.49538731351E+01 0.57784504428E+01 0.68524446851E+01 0.82020957126E+01
 0.98346569964E+01 0.11725275582E+02 0.13805448047E+02 0.15957496163E+02 0.18019423500E+02
 0.19802449187E+02 0.21119741914E+02 0.21820506858E+02 0.21820459288E+02 0.21119701979E+02
 0.19802579821E+02 0.18019720207E+02 0.15957779951E+02 0.13805547054E+02 0.11725155362E+02
 0.98344131079E+01 0.82018801057E+01 0.68523680541E+01 0.57784998159E+01 0.49539402792E+01
 0.43450657069E+01 0.39193946525E+01 0.36505671383E+01 0.37052841140E+01 0.36356510101E+01
 0.37052587064E+01 0.39194010341E+01 0.42940275105E+01 0.48557871066E+01 0.56406804796E+01
 0.66897747048E+01 0.80410366918E+01 0.97173416464E+01 0.11711879445E+02 0.13973630871E+02
 0.16397108786E+02 0.18821329603E+02 0.21042081558E+02 0.22838549605E+02 0.24010596517E+02
 0.24418017538E+02 0.24010453785E+02 0.22838459423E+02 0.21042190615E+02 0.18821573563E+02
 0.16397303731E+02 0.13973652962E+02 0.11711740482E+02 0.97171560611E+01 0.80409358768E+01
 0.66898030163E+01 0.56407613937E+01 0.48558241478E+01 0.42940193061E+01 0.39194067060E+01
 0.40263374326E+01 0.38734334905E+01 0.38734057067E+01 0.40263077845E+01 0.43450882630E+01
 0.48558511696E+01 0.55973451890E+01 0.66177545598E+01 0.79672378955E+01 0.96858146351E+01
 0.11787457204E+02 0.14242607721E+02 0.16962996825E+02 0.19794078703E+02 0.22520577483E+02
 0.24888735338E+02 0.26644499055E+02 0.27580688274E+02 0.27580618754E+02 0.26644347864E+02
 0.24888588540E+02 0.22520450866E+02 0.19793972336E+02 0.16962961366E+02 0.14242671928E+02
 0.11787561800E+02 0.96858945011E+01 0.79672998260E+01 0.66178102585E+01 0.55973543613E+01
 0.48558044366E+01 0.43450580492E+01 0.45033397099E+01 0.42490305142E+01 0.41668633523E+01
 0.42489654763E+01 0.45033395885E+01 0.49539614068E+01 0.56408175348E+01 0.66178654708E+01
 0.79466879998E+01 0.96848370735E+01 0.11869285289E+02 0.14496564189E+02 0.17502792559E+02
 0.20748934446E+02 0.24017995206E+02 0.27030173718E+02 0.29478557070E+02 0.31081505844E+02
 0.31639834476E+02 0.31081518195E+02 0.29478554203E+02 0.27030045900E+02 0.24017694548E+02
 0.20748655658E+02 0.17502793601E+02 0.14496818016E+02 0.11869523489E+02 0.96849167815E+01
 0.79466880947E+01 0.66178465530E+01 0.56407447411E+01 0.49538722200E+01 0.51622995212E+01
 0.47841481793E+01 0.46047708565E+01 0.46046975924E+01 0.47840674087E+01 0.51623564378E+01
 0.57784935691E+01 0.66898669065E+01 0.79674264831E+01 0.96850434348E+01 0.11903130554E+02
 0.14647552803E+02 0.17885914994E+02 0.21505795867E+02 0.25302330698E+02 0.28983441411E+02
 0.32198817415E+02 0.34592926930E+02 0.35872947821E+02 0.35872992120E+02 0.34593097428E+02
 0.32199047320E+02 0.28983481008E+02 0.25302124919E+02 0.21505656818E+02 0.17886052381E+02
 0.14647736249E+02 0.11903093027E+02 0.96848999154E+01 0.79673924090E+01 0.66898758881E+01
 0.57784148905E+01 0.60326180630E+01 0.55051652083E+01 0.52121221401E+01 0.51182355706E+01
 0.52119644982E+01 0.55051469961E+01 0.60327206265E+01 0.68523087863E+01 0.80409438441E+01
 0.96860032109E+01 0.11869677769E+02 0.14647811808E+02 0.18024206328E+02 0.21923299907E+02
 0.26168152886E+02 0.30473718685E+02 0.34464892711E+02 0.37724210795E+02 0.39864774005E+02
 0.40611459381E+02 0.39864735126E+02 0.37724415635E+02 0.34465270976E+02 0.30473882411E+02
 0.26168074843E+02 0.21923302682E+02 0.18024288939E+02 0.14647663377E+02 0.11869356661E+02
 0.96859142123E+01 0.80411193575E+01 0.68523801076E+01 0.71412867579E+01 0.64391408622E+01
 0.60167773285E+01 0.58193131536E+01 0.58191596464E+01 0.60166349049E+01 0.64393019812E+01
 0.71413801691E+01 0.82017690837E+01 0.97170598532E+01 0.11787552973E+02 0.14496899224E+02
 0.17886162020E+02 0.21923392874E+02 0.26473744146E+02 0.31280454331E+02 0.35968977672E+02
 0.40083521726E+02 0.43157180293E+02 0.44803471798E+02 0.44803225147E+02 0.43156868336E+02
 0.40083651132E+02 0.35969272185E+02 0.31280468768E+02 0.26473654527E+02 0.21923472967E+02
 0.17886149794E+02 0.14496591725E+02 0.11787371804E+02 0.97173263459E+01 0.82020624440E+01
 0.85039739235E+01 0.76071135043E+01 0.70441917039E+01 0.67381955250E+01 0.66413298651E+01
 0.67379073283E+01 0.70442466495E+01 0.76074850555E+01 0.85039743290E+01 0.98343085502E+01
 0.11711578299E+02 0.14242550499E+02 0.17502793239E+02 0.21505781550E+02 0.26168246920E+02
 0.31280582805E+02 0.36496133487E+02 0.41352390361E+02 0.45330639771E+02 0.47948329431E+02
 0.48862024259E+02 0.47947741264E+02 0.45330303098E+02 0.41352520148E+02 0.36496133391E+02
 0.31280323958E+02 0.26168241671E+02 0.21506044785E+02 0.17502793601E+02 0.14242337122E+02
 0.11711723829E+02 0.98347161493E+01 0.10113610996E+02 0.90145326440E+01 0.83093748232E+01
 0.78985406499E+01 0.77110903222E+01 0.77108100898E+01 0.78982706718E+01 0.83097084741E+01
 0.90149299922E+01 0.10113452617E+02 0.11725144289E+02 0.13973539690E+02 0.16962826979E+02
 0.20748598623E+02 0.25302158220E+02 0.30473905398E+02 0.35969172694E+02 0.41352319628E+02
 0.46090229216E+02 0.49635885478E+02 0.51536560697E+02 0.51536242713E+02 0.49635492624E+02
 0.46090353533E+02 0.41352472329E+02 0.35968834624E+02 0.30473615135E+02 0.25302465067E+02
 0.20748978940E+02 0.16962713801E+02 0.13973385685E+02 0.11725410585E+02 0.11928648140E+02
 0.10639911579E+02 0.98063644731E+01 0.93075585554E+01 0.90483938595E+01 0.89685240206E+01
 0.90479116580E+01 0.93074935707E+01 0.98067915908E+01 0.10640018764E+02 0.11928383616E+02
 0.13805664425E+02 0.16397312019E+02 0.19793893293E+02 0.24017605305E+02 0.28983415602E+02
 0.34465188310E+02 0.40083515995E+02 0.45330177314E+02 0.49635505077E+02 0.52469635882E+02
 0.53456798033E+02 0.52469427466E+02 0.49635759900E+02 0.45330721369E+02 0.40083480847E+02
 0.34464685877E+02 0.28983408136E+02 0.24018112819E+02 0.19793992048E+02 0.16396902112E+02
 0.13805559108E+02 0.13864742009E+02 0.12424620450E+02 0.11497075897E+02 0.10944579008E+02
 0.10648805276E+02 0.10523290278E+02 0.10522964785E+02 0.10648426742E+02 0.10944760738E+02
 0.11497273768E+02 0.12424310683E+02 0.13864547096E+02 0.15957936610E+02 0.18821656397E+02
 0.22520436838E+02 0.27029993828E+02 0.32199031800E+02 0.37724463021E+02 0.43156941829E+02
 0.47947771458E+02 0.51536178458E+02 0.53456650145E+02 0.53456495842E+02 0.51536207799E+02
 0.47948358550E+02 0.43157340811E+02 0.37724113445E+02 0.32198672257E+02 0.27030292085E+02
 0.22520733345E+02 0.18821271373E+02 0.15957489814E+02 0.15794169091E+02 0.14268041106E+02
 0.13303161125E+02 0.12750709825E+02 0.12471737880E+02 0.12353322432E+02 0.12322042070E+02
 0.12352959507E+02 0.12471737998E+02 0.12751012207E+02 0.13302998252E+02 0.14267520158E+02
 0.15794169068E+02 0.18019803153E+02 0.21042272206E+02 0.24888608798E+02 0.29478553953E+02
 0.34593182728E+02 0.39864942125E+02 0.44803429988E+02 0.48862025283E+02 0.51536277269E+02
 0.52469217611E+02 0.51535892419E+02 0.48862024259E+02 0.44803796434E+02 0.39864901954E+02
 0.34592769298E+02 0.29478554203E+02 0.24888969831E+02 0.21042173962E+02 0.18019307152E+02
 0.17556046946E+02 0.16031922061E+02 0.15105191298E+02 0.14623603341E+02 0.14431876671E+02
 0.14391694172E+02 0.14399180785E+02 0.14399001536E+02 0.14391593854E+02 0.14432234305E+02
 0.14623849291E+02 0.15104838473E+02 0.16031535292E+02 0.17556207894E+02 0.19802579415E+02
 0.22838491908E+02 0.26644338331E+02 0.31081490434E+02 0.35873034942E+02 0.40611592412E+02
 0.44803590500E+02 0.47948314138E+02 0.49635745567E+02 0.49635377711E+02 0.47947773846E+02
 0.44803542003E+02 0.40611699871E+02 0.35872824502E+02 0.31081333711E+02 0.26644608065E+02
 0.22838699913E+02 0.19802327277E+02 0.18977654519E+02 0.17555592075E+02 0.16752239016E+02
 0.16421432920E+02 0.16397922258E+02 0.16520685000E+02 0.16654536140E+02 0.16709498175E+02
 0.16654349241E+02 0.16520810381E+02 0.16398326660E+02 0.16421544290E+02 0.16751997723E+02
 0.17555511983E+02 0.18977815335E+02 0.21119677353E+02 0.24010460982E+02 0.27580578736E+02
 0.31639711885E+02 0.35872794452E+02 0.39864691554E+02 0.43157244019E+02 0.45330846156E+02
 0.46090496493E+02 0.45330389201E+02 0.43157010008E+02 0.39864857747E+02 0.35872874949E+02
 0.31639583906E+02 0.27580638465E+02 0.24010721008E+02 0.21119714032E+02 0.19903457741E+02
 0.18680433748E+02 0.18082058376E+02 0.17978297045E+02 0.18202467005E+02 0.18575885903E+02
 0.18933049725E+02 0.19146262399E+02 0.19146110786E+02 0.18932853121E+02 0.18575958452E+02
 0.18202659917E+02 0.17978345506E+02 0.18082050292E+02 0.18680526562E+02 0.19903514938E+02
 0.21820477964E+02 0.24418071186E+02 0.27580679261E+02 0.31081350468E+02 0.34592681202E+02
 0.37724060306E+02 0.40083616519E+02 0.41352687428E+02 0.41352604931E+02 0.40083591487E+02
 0.37724311320E+02 0.34592954582E+02 0.31081349314E+02 0.27580568039E+02 0.24418118063E+02
 0.21820571866E+02 0.20225019758E+02 0.19278606901E+02 0.18948477139E+02 0.19129677028E+02
 0.19664121638E+02 0.20363426960E+02 0.21035723159E+02 0.21514858289E+02 0.21687839030E+02
 0.21514668253E+02 0.21035505795E+02 0.20363315735E+02 0.19664121263E+02 0.19129738533E+02
 0.18948557325E+02 0.19278655662E+02 0.20225021475E+02 0.21820551738E+02 0.24010711552E+02
 0.26644605571E+02 0.29478553953E+02 0.32198702859E+02 0.34464770039E+02 0.35968932168E+02
 0.36496133487E+02 0.35969121206E+02 0.34465059539E+02 0.32198917037E+02 0.29478557070E+02
 0.26644452593E+02 0.24010579864E+02 0.21820521555E+02 0.19903454269E+02 0.19278634120E+02
 0.19249523595E+02 0.19742607362E+02 0.20618479890E+02 0.21689630230E+02 0.22745651389E+02
 0.23585010579E+02 0.24048682481E+02 0.24048722351E+02 0.23585004706E+02 0.22745480778E+02
 0.21689449307E+02 0.20618465865E+02 0.19742666180E+02 0.19249493733E+02 0.19278569745E+02
 0.19903473580E+02 0.21119736519E+02 0.22838673232E+02 0.24888950633E+02 0.27030355185E+02
 0.28983474768E+02 0.30473578956E+02 0.31280208544E+02 0.31280343212E+02 0.30473777851E+02
 0.28983455116E+02 0.27030170557E+02 0.24888814215E+02 0.22838608771E+02 0.21119670694E+02
 0.18977688683E+02 0.18680469116E+02 0.18948550060E+02 0.19742636972E+02 0.20950396517E+02
 0.22397006669E+02 0.23865178896E+02 0.25126007842E+02 0.25976697886E+02 0.26277161213E+02
 0.25977030239E+02 0.25126183451E+02 0.23865063813E+02 0.22396945227E+02 0.20950486752E+02
 0.19742607013E+02 0.18948378562E+02 0.18680426037E+02 0.18977743527E+02 0.19802338925E+02
 0.21042093443E+02 0.22520739028E+02 0.24018202338E+02 0.25302425496E+02 0.26168068158E+02