   6   6   0   0
  0.2273200E+02  0.3820550E-09  0.3820550E-09  0.1078963E-08  0.5000000E-15
  1.000000000000000E-004
  CAR 
 As                                      
     25.09067943    -11.36013755  301      4.88777175      1.00000000
    -11.360  0.0000E+00  0.0000E+00
    -11.239  0.0000E+00  0.0000E+00
    -11.117  0.0000E+00  0.0000E+00
    -10.996  0.0000E+00  0.0000E+00
    -10.874  0.0000E+00  0.0000E+00
    -10.753  0.0000E+00  0.0000E+00
    -10.631  0.0000E+00  0.0000E+00
    -10.510  0.0000E+00  0.0000E+00
    -10.388  0.0000E+00  0.0000E+00
    -10.267  0.0000E+00  0.0000E+00
    -10.145  0.0000E+00  0.0000E+00
    -10.024  0.0000E+00  0.0000E+00
     -9.902  0.1550E-09  0.1883E-10
     -9.781  0.3486E-03  0.4235E-04
     -9.659  0.7137E-01  0.8714E-02
     -9.538  0.4390E+00  0.6205E-01
     -9.416  0.5807E+00  0.1326E+00
     -9.295  0.9171E+00  0.2440E+00
     -9.173  0.6866E+00  0.3275E+00
     -9.052  0.1306E+01  0.4861E+00
     -8.930  0.1275E+01  0.6410E+00
     -8.809  0.1147E+01  0.7805E+00
     -8.687  0.1381E+01  0.9482E+00
     -8.566  0.2116E+01  0.1205E+01
     -8.444  0.1847E+01  0.1430E+01
     -8.323  0.1919E+01  0.1663E+01
     -8.201  0.1795E+01  0.1881E+01
     -8.080  0.2246E+01  0.2154E+01
     -7.958  0.2648E+01  0.2476E+01
     -7.837  0.1855E+01  0.2701E+01
     -7.715  0.2038E+01  0.2949E+01
     -7.594  0.2194E+01  0.3215E+01
     -7.472  0.2657E+01  0.3538E+01
     -7.351  0.2885E+01  0.3889E+01
     -7.229  0.3121E+01  0.4268E+01
     -7.108  0.3184E+01  0.4655E+01
     -6.986  0.2382E+01  0.4944E+01
     -6.865  0.4295E+01  0.5466E+01
     -6.743  0.1504E+01  0.5649E+01
     -6.622  0.7889E+00  0.5745E+01
     -6.500  0.1219E+01  0.5893E+01
     -6.379  0.1981E+00  0.5917E+01
     -6.257  0.2382E+00  0.5946E+01
     -6.136  0.7791E+00  0.6040E+01
     -6.014  0.3599E+00  0.6084E+01
     -5.893  0.5002E+00  0.6145E+01
     -5.771  0.2034E+01  0.6392E+01
     -5.650  0.1690E+01  0.6597E+01
     -5.528  0.2407E+01  0.6890E+01
     -5.407  0.2490E+01  0.7192E+01
     -5.285  0.1612E+01  0.7388E+01
     -5.163  0.2438E+01  0.7684E+01
     -5.042  0.2222E+01  0.7954E+01
     -4.920  0.2838E+01  0.8299E+01
     -4.799  0.3243E+01  0.8693E+01
     -4.677  0.3881E+01  0.9165E+01
     -4.556  0.2538E+01  0.9473E+01
     -4.434  0.2183E+01  0.9738E+01
     -4.313  0.2139E+01  0.9998E+01
     -4.191  0.2482E+01  0.1030E+02
     -4.070  0.1576E+01  0.1049E+02
     -3.948  0.1110E+01  0.1063E+02
     -3.827  0.9207E+00  0.1074E+02
     -3.705  0.1224E+01  0.1089E+02
     -3.584  0.1008E+01  0.1101E+02
     -3.462  0.1353E+01  0.1117E+02
     -3.341  0.9267E+00  0.1129E+02
     -3.219  0.6112E+00  0.1136E+02
     -3.098  0.4337E+00  0.1141E+02
     -2.976  0.6225E+00  0.1149E+02
     -2.855  0.6389E+00  0.1157E+02
     -2.733  0.4958E+00  0.1163E+02
     -2.612  0.8057E+00  0.1172E+02
     -2.490  0.2294E+00  0.1175E+02
     -2.369  0.3047E+00  0.1179E+02
     -2.247  0.1913E+00  0.1181E+02
     -2.126  0.3592E+00  0.1186E+02
     -2.004  0.3179E+00  0.1189E+02
     -1.883  0.3093E+00  0.1193E+02
     -1.761  0.1104E+00  0.1195E+02
     -1.640  0.9754E-01  0.1196E+02
     -1.518  0.1397E+00  0.1197E+02
     -1.397  0.1600E+00  0.1199E+02
     -1.275  0.2481E-01  0.1200E+02
     -1.154  0.2224E-01  0.1200E+02
     -1.032  0.4536E-02  0.1200E+02
     -0.911  0.7111E+00  0.1209E+02
     -0.789  0.2720E+01  0.1242E+02
     -0.668  0.2522E+01  0.1272E+02
     -0.546  0.3092E+01  0.1310E+02
     -0.425  0.2631E+01  0.1342E+02
     -0.303  0.2632E+01  0.1374E+02
     -0.182  0.2478E+01  0.1404E+02
     -0.060  0.2270E+01  0.1432E+02
      0.061  0.1898E+01  0.1455E+02
      0.183  0.3360E+01  0.1495E+02
      0.304  0.3202E+01  0.1534E+02
      0.426  0.2565E+01  0.1566E+02
      0.547  0.2603E+01  0.1597E+02
      0.669  0.2815E+01  0.1631E+02
      0.790  0.4146E+01  0.1682E+02
      0.912  0.3490E+01  0.1724E+02
      1.033  0.4117E+01  0.1774E+02
      1.155  0.4163E+01  0.1825E+02
      1.276  0.4701E+01  0.1882E+02
      1.398  0.4524E+01  0.1937E+02
      1.519  0.4038E+01  0.1986E+02
      1.641  0.4436E+01  0.2040E+02
      1.762  0.4611E+01  0.2096E+02
      1.884  0.4338E+01  0.2149E+02
      2.005  0.4269E+01  0.2200E+02
      2.127  0.4950E+01  0.2261E+02
      2.248  0.4340E+01  0.2313E+02
      2.370  0.5500E+01  0.2380E+02
      2.491  0.4390E+01  0.2433E+02
      2.613  0.4259E+01  0.2485E+02
      2.734  0.4182E+01  0.2536E+02
      2.856  0.3640E+01  0.2580E+02
      2.977  0.3103E+01  0.2618E+02
      3.099  0.3818E+01  0.2664E+02
      3.220  0.3271E+01  0.2704E+02
      3.342  0.3253E+01  0.2744E+02
      3.463  0.2650E+01  0.2776E+02
      3.585  0.2002E+01  0.2800E+02
      3.706  0.2567E+01  0.2831E+02
      3.828  0.1890E+01  0.2854E+02
      3.949  0.2312E+01  0.2882E+02
      4.071  0.1912E+01  0.2906E+02
      4.192  0.1292E+01  0.2921E+02
      4.314  0.1277E+01  0.2937E+02
      4.435  0.1182E+01  0.2951E+02
      4.557  0.9837E+00  0.2963E+02
      4.678  0.1511E+01  0.2982E+02
      4.800  0.1044E+01  0.2994E+02
      4.921  0.5599E+00  0.3001E+02
      5.043  0.3335E+00  0.3005E+02
      5.164  0.2539E+00  0.3008E+02
      5.286  0.6321E+00  0.3016E+02
      5.407  0.1754E+01  0.3037E+02
      5.529  0.2053E+01  0.3062E+02
      5.650  0.3660E+01  0.3107E+02
      5.772  0.3348E+01  0.3147E+02
      5.893  0.4206E+01  0.3198E+02
      6.015  0.4361E+01  0.3251E+02
      6.136  0.4135E+01  0.3302E+02
      6.258  0.3597E+01  0.3345E+02
      6.379  0.4359E+01  0.3398E+02
      6.501  0.3799E+01  0.3444E+02
      6.622  0.4325E+01  0.3497E+02
      6.744  0.4743E+01  0.3555E+02
      6.865  0.4758E+01  0.3612E+02
      6.987  0.6464E+01  0.3691E+02
      7.108  0.5926E+01  0.3763E+02
      7.230  0.5442E+01  0.3829E+02
      7.351  0.4471E+01  0.3883E+02
      7.473  0.2827E+01  0.3918E+02
      7.594  0.3299E+01  0.3958E+02
      7.716  0.4027E+01  0.4007E+02
      7.837  0.3322E+01  0.4047E+02
      7.959  0.3390E+01  0.4088E+02
      8.080  0.3659E+01  0.4133E+02
      8.202  0.4382E+01  0.4186E+02
      8.323  0.3245E+01  0.4225E+02
      8.445  0.3787E+01  0.4271E+02
      8.566  0.4160E+01  0.4322E+02
      8.688  0.4478E+01  0.4376E+02
      8.809  0.3278E+01  0.4416E+02
      8.931  0.3114E+01  0.4454E+02
      9.052  0.2847E+01  0.4489E+02
      9.174  0.3293E+01  0.4529E+02
      9.295  0.2087E+01  0.4554E+02
      9.417  0.2113E+01  0.4580E+02
      9.538  0.2065E+01  0.4605E+02
      9.660  0.2054E+01  0.4630E+02
      9.781  0.1302E+01  0.4646E+02
      9.903  0.1463E+01  0.4663E+02
     10.024  0.2352E+01  0.4692E+02
     10.146  0.2473E+01  0.4722E+02
     10.267  0.2529E+01  0.4753E+02
     10.389  0.3680E+01  0.4797E+02
     10.510  0.3338E+01  0.4838E+02
     10.632  0.3347E+01  0.4879E+02
     10.753  0.4546E+01  0.4934E+02
     10.875  0.3902E+01  0.4981E+02
     10.996  0.3848E+01  0.5028E+02
     11.118  0.4437E+01  0.5082E+02
     11.239  0.3629E+01  0.5126E+02
     11.361  0.3737E+01  0.5171E+02
     11.482  0.3029E+01  0.5208E+02
     11.604  0.3374E+01  0.5249E+02
     11.725  0.3597E+01  0.5293E+02
     11.847  0.2929E+01  0.5328E+02
     11.968  0.3308E+01  0.5369E+02
     12.090  0.2392E+01  0.5398E+02
     12.211  0.2215E+01  0.5425E+02
     12.333  0.3087E+01  0.5462E+02
     12.454  0.2083E+01  0.5487E+02
     12.576  0.2285E+01  0.5515E+02
     12.697  0.2463E+01  0.5545E+02
     12.819  0.2716E+01  0.5578E+02
     12.940  0.2270E+01  0.5606E+02
     13.062  0.2460E+01  0.5636E+02
     13.183  0.2018E+01  0.5660E+02
     13.305  0.2377E+01  0.5689E+02
     13.426  0.2550E+01  0.5720E+02
     13.548  0.2563E+01  0.5751E+02
     13.669  0.2511E+01  0.5782E+02
     13.791  0.3294E+01  0.5822E+02
     13.912  0.3647E+01  0.5866E+02
     14.034  0.4644E+01  0.5922E+02
     14.155  0.3735E+01  0.5968E+02
     14.277  0.3330E+01  0.6008E+02
     14.398  0.3741E+01  0.6054E+02
     14.520  0.3737E+01  0.6099E+02
     14.641  0.3347E+01  0.6140E+02
     14.763  0.3277E+01  0.6180E+02
     14.884  0.4057E+01  0.6229E+02
     15.006  0.3333E+01  0.6269E+02
     15.127  0.4234E+01  0.6321E+02
     15.249  0.4322E+01  0.6373E+02
     15.370  0.5390E+01  0.6439E+02
     15.492  0.6133E+01  0.6513E+02
     15.613  0.5173E+01  0.6576E+02
     15.735  0.4925E+01  0.6636E+02
     15.856  0.4016E+01  0.6685E+02
     15.978  0.5307E+01  0.6749E+02
     16.099  0.5293E+01  0.6814E+02
     16.221  0.3523E+01  0.6856E+02
     16.342  0.4685E+01  0.6913E+02
     16.464  0.4394E+01  0.6967E+02
     16.585  0.4627E+01  0.7023E+02
     16.707  0.5257E+01  0.7087E+02
     16.828  0.7095E+01  0.7173E+02
     16.950  0.5276E+01  0.7237E+02
     17.071  0.5431E+01  0.7303E+02
     17.193  0.5358E+01  0.7368E+02
     17.315  0.4888E+01  0.7428E+02
     17.436  0.3899E+01  0.7475E+02
     17.558  0.5372E+01  0.7540E+02
     17.679  0.4586E+01  0.7596E+02
     17.801  0.4685E+01  0.7653E+02
     17.922  0.5528E+01  0.7720E+02
     18.044  0.5422E+01  0.7786E+02
     18.165  0.4904E+01  0.7846E+02
     18.287  0.5148E+01  0.7908E+02
     18.408  0.4569E+01  0.7964E+02
     18.530  0.4193E+01  0.8015E+02
     18.651  0.3174E+01  0.8053E+02
     18.773  0.3966E+01  0.8101E+02
     18.894  0.4037E+01  0.8150E+02
     19.016  0.2711E+01  0.8183E+02
     19.137  0.3323E+01  0.8224E+02
     19.259  0.4040E+01  0.8273E+02
     19.380  0.5223E+01  0.8336E+02
     19.502  0.5599E+01  0.8404E+02
     19.623  0.5142E+01  0.8467E+02
     19.745  0.5162E+01  0.8529E+02
     19.866  0.4588E+01  0.8585E+02
     19.988  0.4859E+01  0.8644E+02
     20.109  0.6016E+01  0.8717E+02
     20.231  0.5502E+01  0.8784E+02
     20.352  0.4246E+01  0.8836E+02
     20.474  0.4138E+01  0.8886E+02
     20.595  0.4727E+01  0.8943E+02
     20.717  0.3849E+01  0.8990E+02
     20.838  0.4872E+01  0.9049E+02
     20.960  0.4440E+01  0.9103E+02
     21.081  0.4600E+01  0.9159E+02
     21.203  0.5675E+01  0.9228E+02
     21.324  0.5037E+01  0.9289E+02
     21.446  0.5656E+01  0.9358E+02
     21.567  0.3913E+01  0.9406E+02
     21.689  0.4125E+01  0.9456E+02
     21.810  0.3242E+01  0.9495E+02
     21.932  0.2785E+01  0.9529E+02
     22.053  0.1983E+01  0.9553E+02
     22.175  0.1298E+01  0.9569E+02
     22.296  0.8683E+00  0.9579E+02
     22.418  0.7869E+00  0.9589E+02
     22.539  0.4136E+00  0.9594E+02
     22.661  0.1591E+00  0.9596E+02
     22.782  0.1056E+00  0.9597E+02
     22.904  0.5216E-01  0.9598E+02
     23.025  0.1226E-02  0.9598E+02
     23.147  0.4301E-02  0.9598E+02
     23.268  0.1044E+00  0.9599E+02
     23.390  0.1162E-01  0.9599E+02
     23.511  0.5028E-01  0.9600E+02
     23.633  0.8192E-03  0.9600E+02
     23.754  0.5312E-09  0.9600E+02
     23.876  0.0000E+00  0.9600E+02
     23.997  0.0000E+00  0.9600E+02
     24.119  0.0000E+00  0.9600E+02
     24.240  0.0000E+00  0.9600E+02
     24.362  0.0000E+00  0.9600E+02
     24.483  0.0000E+00  0.9600E+02
     24.605  0.0000E+00  0.9600E+02
     24.726  0.0000E+00  0.9600E+02
     24.848  0.0000E+00  0.9600E+02
     24.969  0.0000E+00  0.9600E+02
     25.091  0.0000E+00  0.9600E+02
