Sc                                      
   1.00000000000000     
     3.321450    0.000000    0.000000
     1.660725    2.876460    0.000000
     0.000000    0.000000    5.161920
   Sc
     2
Direct
  0.000000  0.000000  0.000000
  0.333333  0.333333  0.500000
 
   28   28   48
  499.06      477.05      416.30      330.60      237.43      152.68      86.995      44.169      21.506      12.000    
  8.0939      6.4233      5.7805      5.5783      5.5405      5.5779      5.7803      6.4236      8.0942      12.000    
  21.506      44.169      86.996      152.68      237.43      330.60      416.30      477.05      477.05      435.56    
  362.41      273.55      185.82      112.43      60.327      29.715      15.408      9.7028      7.2134      6.1972    
  5.8347      5.7396      5.7398      5.8349      6.1971      7.2132      9.7028      15.408      29.715      60.328    
  112.43      185.82      273.54      362.40      435.56      477.04      416.30      362.41      286.62      204.68    
  130.79      74.266      38.066      19.323      11.500      8.1376      6.6964      6.1382      5.9600      5.9263    
  5.9604      6.1383      6.6960      8.1373      11.500      19.324      38.066      74.267      130.79      204.68    
  286.62      362.40      416.29      435.84      330.60      273.55      204.68      137.48      82.349      44.339    
  22.888      13.203      9.0725      7.2215      6.4645      6.1918      6.1179      6.1178      6.1916      6.4644    
  7.2217      9.0727      13.203      22.887      44.338      82.348      137.48      204.68      273.55      330.61    
  363.05      363.05      237.43      185.82      130.79      82.349      46.670      25.029      14.473      9.8475    
  7.6919      6.7706      6.4134      6.2982      6.2754      6.2979      6.4133      6.7707      7.6921      9.8475    
  14.472      25.029      46.668      82.347      130.79      185.83      237.44      274.40      287.84      274.39    
  152.68      112.43      74.266      44.339      25.029      14.948      10.289      8.0198      7.0086      6.5981    
  6.4515      6.4119      6.4120      6.4517      6.5980      7.0084      8.0197      10.290      14.949      25.029    
  44.337      74.263      112.43      152.68      186.58      206.01      206.01      186.57      86.995      60.327    
  38.066      22.888      14.473      10.289      8.1372      7.1379      6.7199      6.5642      6.5168      6.5079    
  6.5169      6.5644      6.7199      7.1377      8.1371      10.290      14.474      22.889      38.067      60.325    
  86.991      112.85      131.72      138.65      131.73      112.85      44.169      29.715      19.323      13.203    
  9.8475      8.0198      7.1379      6.7620      6.6238      6.5835      6.5760      6.5759      6.5834      6.6239    
  6.7622      7.1374      8.0187      9.8470      13.205      19.327      29.719      44.170      60.371      74.553    
  82.857      82.859      74.557      60.374      21.506      15.408      11.500      9.0725      7.6919      7.0086    
  6.7199      6.6238      6.6064      6.6114      6.6151      6.6113      6.6063      6.6239      6.7200      7.0079    
  7.6901      9.0706      11.500      15.410      21.510      29.501      37.793      44.110      46.475      44.110    
  37.793      29.498      12.000      9.7028      8.1376      7.2215      6.7706      6.5981      6.5642      6.5835    
  6.6114      6.6287      6.6287      6.6114      6.5834      6.5646      6.5989      6.7710      7.2200      8.1342    
  9.6996      12.000      15.077      18.742      22.162      24.246      24.245      22.158      18.738      15.074    
  8.0939      7.2134      6.6964      6.4645      6.4134      6.4515      6.5168      6.5760      6.6151      6.6287    
  6.6152      6.5760      6.5167      6.4522      6.4151      6.4662      6.6964      7.2109      8.0901      9.3332    
  10.809      12.262      13.376      13.798      13.374      12.260      10.809      9.3360      6.4233      6.1972    
  6.1382      6.1918      6.2982      6.4119      6.5079      6.5759      6.6113      6.6114      6.5760      6.5076    
  6.4112      6.2980      6.1932      6.1413      6.2002      6.4239      6.8372      7.4118      8.0540      8.6177    
  8.9490      8.9490      8.6184      8.0565      7.4153      6.8395      5.7805      5.8347      5.9600      6.1179    
  6.2754      6.4120      6.5169      6.5834      6.6063      6.5834      6.5167      6.4112      6.2738      6.1163    
  5.9601      5.8374      5.7844      5.8278      5.9697      6.1812      6.4062      6.5780      6.6424      6.5788    
  6.4079      6.1829      5.9697      5.8252      5.5783      5.7396      5.9263      6.1178      6.2979      6.4517    
  6.5644      6.6239      6.6239      6.5646      6.4522      6.2980      6.1163      5.9233      5.7369      5.5780    
  5.4673      5.4176      5.4249      5.4685      5.5195      5.5522      5.5525      5.5199      5.4680      5.4228    
  5.4144      5.4651      5.5405      5.7398      5.9604      6.1916      6.4133      6.5980      6.7199      6.7622    
  6.7200      6.5989      6.4151      6.1932      5.9601      5.7369      5.5367      5.3681      5.2390      5.1531    
  5.1063      5.0867      5.0811      5.0804      5.0811      5.0860      5.1045      5.1513      5.2389      5.3707    
  5.5779      5.8349      6.1383      6.4644      6.7707      7.0084      7.1377      7.1374      7.0079      6.7710    
  6.4662      6.1413      5.8374      5.5780      5.3681      5.2030      5.0768      4.9859      4.9264      4.8925    
  4.8777      4.8777      4.8922      4.9259      4.9861      5.0787      5.2061      5.3705      5.7803      6.1971    
  6.6960      7.2217      7.6921      8.0197      8.1371      8.0187      7.6901      7.2200      6.6964      6.2002    
  5.7844      5.4673      5.2390      5.0768      4.9605      4.8785      4.8254      4.7968      4.7879      4.7966    
  4.8253      4.8791      4.9622      5.0788      5.2393      5.4648      6.4236      7.2132      8.1373      9.0727    
  9.8475      10.290      10.290      9.8470      9.0706      8.1342      7.2109      6.4239      5.8278      5.4176    
  5.1531      4.9859      4.8785      4.8096      4.7693      4.7510      4.7510      4.7693      4.8100      4.8791    
  4.9858      5.1515      5.4146      5.8252      8.0942      9.7028      11.500      13.203      14.472      14.949    
  14.474      13.205      11.500      9.6996      8.0901      6.8372      5.9697      5.4249      5.1063      4.9264    
  4.8254      4.7693      4.7410      4.7323      4.7409      4.7694      4.8255      4.9258      5.1044      5.4228    
  5.9694      6.8397      12.000      15.408      19.324      22.887      25.029      25.029      22.889      19.327    
  15.410      12.000      9.3332      7.4118      6.1812      5.4685      5.0867      4.8925      4.7968      4.7510    
  4.7323      4.7323      4.7510      4.7968      4.8922      5.0860      5.4683      6.1827      7.4150      9.3360    
  21.506      29.715      38.066      44.338      46.668      44.337      38.067      29.719      21.510      15.077    
  10.809      8.0540      6.4062      5.5195      5.0811      4.8777      4.7879      4.7510      4.7409      4.7510    
  4.7879      4.8776      5.0810      5.5201      6.4081      8.0563      10.809      15.074      44.169      60.328    
  74.267      82.348      82.347      74.263      60.325      44.170      29.501      18.742      12.262      8.6177    
  6.5780      5.5522      5.0804      4.8777      4.7966      4.7693      4.7694      4.7968      4.8776      5.0803    
  5.5527      6.5789      8.6180      12.260      18.739      29.498      86.996      112.43      130.79      137.48    
  130.79      112.43      86.991      60.371      37.793      22.162      13.376      8.9490      6.6424      5.5525    
  5.0811      4.8922      4.8253      4.8100      4.8255      4.8922      5.0810      5.5527      6.6427      8.9485    
  13.373      22.159      37.793      60.373      152.68      185.82      204.68      204.68      185.83      152.68    
  112.85      74.553      44.110      24.246      13.798      8.9490      6.5788      5.5199      5.0860      4.9259    
  4.8791      4.8791      4.9258      5.0860      5.5201      6.5789      8.9485      13.797      24.245      44.111    
  74.556      112.85      237.43      273.54      286.62      273.55      237.44      186.58      131.72      82.857    
  46.475      24.245      13.374      8.6184      6.4079      5.4680      5.1045      4.9861      4.9622      4.9858    
  5.1044      5.4683      6.4081      8.6180      13.373      24.245      46.478      82.860      131.72      186.57    
  330.60      362.40      362.40      330.61      274.40      206.01      138.65      82.859      44.110      22.158    
  12.260      8.0565      6.1829      5.4228      5.1513      5.0787      5.0788      5.1515      5.4228      6.1827    
  8.0563      12.260      22.159      44.111      82.860      138.65      206.00      274.39      416.30      435.56    
  416.29      363.05      287.84      206.01      131.73      74.557      37.793      18.738      10.809      7.4153    
  5.9697      5.4144      5.2389      5.2061      5.2393      5.4146      5.9694      7.4150      10.809      18.739    
  37.793      74.556      131.72      206.00      287.84      363.06      477.05      477.04      435.84      363.05    
  274.39      186.57      112.85      60.374      29.498      15.074      9.3360      6.8395      5.8252      5.4651    
  5.3707      5.3705      5.4648      5.8252      6.8397      9.3360      15.074      29.498      60.373      112.85    
  186.57      274.39      363.06      435.85      480.90      459.62      400.90      318.09      228.13      146.44    
  83.313      42.333      20.771      11.749      7.9980      6.3946      5.7761      5.5804      5.5449      5.5820    
  5.7759      6.3928      7.9984      11.751      20.771      42.331      83.313      146.44      228.13      318.09    
  400.90      459.63      459.62      419.53      348.83      263.00      178.37      107.74      57.773      28.571    
  14.996      9.5463      7.1568      6.1811      5.8314      5.7397      5.7413      5.8330      6.1796      7.1551    
  9.5477      14.997      28.569      57.773      107.74      178.38      263.00      348.82      419.52      459.62    
  400.90      348.83      275.63      196.55      125.39      71.121      36.523      18.712      11.276      8.0472    
  6.6647      6.1279      5.9558      5.9242      5.9580      6.1281      6.6625      8.0469      11.278      18.712    
  36.521      71.122      125.39      196.55      275.63      348.82      400.90      419.79      318.09      263.00    
  196.55      131.83      78.870      42.506      22.096      12.910      8.9477      7.1721      6.4459      6.1832    
  6.1122      6.1132      6.1841      6.4448      7.1712      8.9488      12.911      22.094      42.505      78.871    
  131.83      196.55      263.00      318.10      349.44      349.44      228.13      178.37      125.39      78.870    
  44.731      24.130      14.121      9.6944      7.6262      6.7432      6.4004      6.2895      6.2683      6.2904    
  6.4003      6.7423      7.6264      9.6954      14.121      24.128      44.730      78.869      125.39      178.38    
  228.14      263.81      276.78      263.80      146.44      107.74      71.121      42.506      24.130      14.573    
  10.120      7.9427      6.9740      6.5810      6.4406      6.4028      6.4034      6.4413      6.5805      6.9733    
  7.9432      10.121      14.574      24.129      42.504      71.118      107.74      146.44      179.09      197.81    
  197.81      179.08      83.313      57.773      36.523      22.096      14.121      10.120      8.0560      7.0992    
  6.6999      6.5515      6.5064      6.4983      6.5069      6.5516      6.6995      7.0990      8.0565      10.121    
  14.122      22.097      36.523      57.771      83.309      108.13      126.26      132.92      126.27      108.13    
  42.333      28.571      18.712      12.910      9.6944      7.9427      7.0992      6.7409      6.6100      6.5724    
  6.5658      6.5658      6.5724      6.6099      6.7409      7.0989      7.9420      9.6943      12.912      18.716    
  28.573      42.332      57.804      71.374      79.330      79.332      71.379      57.808      20.771      14.996    
  11.276      8.9477      7.6262      6.9740      6.6999      6.6100      6.5951      6.6009      6.6049      6.6009    
  6.5950      6.6100      6.6998      6.9732      7.6246      8.9463      11.277      14.999      20.775      28.357    
  36.244      42.262      44.518      42.263      36.244      28.355      11.749      9.5463      8.0472      7.1721    
  6.7432      6.5810      6.5515      6.5724      6.6009      6.6184      6.6185      6.6010      6.5724      6.5518    
  6.5817      6.7432      7.1702      8.0439      9.5440      11.750      14.672      18.142      21.380      23.356    
  23.355      21.378      18.139      14.669      7.9980      7.1568      6.6647      6.4459      6.4004      6.4406    
  6.5064      6.5658      6.6049      6.6185      6.6051      6.5659      6.5066      6.4415      6.4021      6.4470    
  6.6637      7.1537      7.9945      9.1857      10.601      11.990      13.049      13.450      13.047      11.988    
  10.600      9.1876      6.3946      6.1811      6.1279      6.1832      6.2895      6.4028      6.4983      6.5658    
  6.6009      6.6010      6.5659      6.4979      6.4023      6.2899      6.1851      6.1308      6.1831      6.3941    
  6.7876      7.3366      7.9514      8.4915      8.8091      8.8088      8.4916      7.9532      7.3400      6.7905    
  5.7761      5.8314      5.9558      6.1122      6.2683      6.4034      6.5069      6.5724      6.5950      6.5724    
  6.5066      6.4023      6.2667      6.1113      5.9568      5.8345      5.7797      5.8178      5.9509      6.1514    
  6.3656      6.5293      6.5906      6.5298      6.3672      6.1536      5.9518      5.8160      5.5804      5.7397    
  5.9242      6.1132      6.2904      6.4413      6.5516      6.6099      6.6100      6.5518      6.4415      6.2899    
  6.1113      5.9214      5.7378      5.5811      5.4711      5.4200      5.4240      5.4635      5.5107      5.5412    
  5.5415      5.5113      5.4636      5.4226      5.4169      5.4682      5.5449      5.7413      5.9580      6.1841    
  6.4003      6.5805      6.6995      6.7409      6.6998      6.5817      6.4021      6.1851      5.9568      5.7378    
  5.5412      5.3754      5.2478      5.1622      5.1144      5.0933      5.0865      5.0853      5.0867      5.0930    
  5.1128      5.1599      5.2468      5.3770      5.5820      5.8330      6.1281      6.4448      6.7423      6.9733    
  7.0990      7.0989      6.9732      6.7432      6.4470      6.1308      5.8345      5.5811      5.3754      5.2129    
  5.0883      4.9980      4.9382      4.9036      4.8884      4.8884      4.9034      4.9375      4.9977      5.0896    
  5.2159      5.3783      5.7759      6.1796      6.6625      7.1712      7.6264      7.9432      8.0565      7.9420    
  7.6246      7.1702      6.6637      6.1831      5.7797      5.4711      5.2478      5.0883      4.9732      4.8915    
  4.8380      4.8089      4.7999      4.8088      4.8378      4.8918      4.9749      5.0907      5.2490      5.4694    
  6.3928      7.1551      8.0469      8.9488      9.6954      10.121      10.121      9.6943      8.9463      8.0439    
  7.1537      6.3941      5.8178      5.4200      5.1622      4.9980      4.8915      4.8225      4.7817      4.7631    
  4.7630      4.7816      4.8229      4.8922      4.9984      5.1611      5.4172      5.8146      7.9984      9.5477    
  11.278      12.911      14.121      14.574      14.122      12.912      11.277      9.5440      7.9945      6.7876    
  5.9509      5.4240      5.1144      4.9382      4.8380      4.7817      4.7530      4.7441      4.7529      4.7819    
  4.8384      4.9379      5.1126      5.4215      5.9497      6.7893      11.751      14.997      18.712      22.094    
  24.128      24.129      22.097      18.716      14.999      11.750      9.1857      7.3366      6.1514      5.4635    
  5.0933      4.9036      4.8089      4.7631      4.7441      4.7441      4.7630      4.8090      4.9034      5.0924    
  5.4628      6.1523      7.3396      9.1891      20.771      28.569      36.521      42.505      44.730      42.504    
  36.523      28.573      20.775      14.672      10.601      7.9514      6.3656      5.5107      5.0865      4.8884    
  4.7999      4.7630      4.7529      4.7630      4.7999      4.8881      5.0862      5.5111      6.3674      7.9540    
  10.602      14.670      42.331      57.773      71.122      78.871      78.869      71.118      57.771      42.332    
  28.357      18.142      11.990      8.4915      6.5293      5.5412      5.0853      4.8884      4.8088      4.7816    
  4.7819      4.8090      4.8881      5.0850      5.5417      6.5305      8.4922      11.989      18.139      28.353    
  83.313      107.74      125.39      131.83      125.39      107.74      83.309      57.804      36.244      21.380    
  13.049      8.8091      6.5906      5.5415      5.0867      4.9034      4.8378      4.8229      4.8384      4.9034    
  5.0862      5.5417      6.5915      8.8088      13.046      21.377      36.243      57.806      146.44      178.38    
  196.55      196.55      178.38      146.44      108.13      71.374      42.262      23.356      13.450      8.8088    
  6.5298      5.5113      5.0930      4.9375      4.8918      4.8922      4.9379      5.0924      5.5111      6.5305    
  8.8088      13.448      23.355      42.264      71.378      108.13      228.13      263.00      275.63      263.00    
  228.14      179.09      126.26      79.330      44.518      23.355      13.047      8.4916      6.3672      5.4636    
  5.1128      4.9977      4.9749      4.9984      5.1126      5.4628      6.3674      8.4922      13.046      23.355    
  44.521      79.334      126.27      179.08      318.09      348.82      348.82      318.10      263.81      197.81    
  132.92      79.332      42.263      21.378      11.988      7.9532      6.1536      5.4226      5.1599      5.0896    
  5.0907      5.1611      5.4215      6.1523      7.9540      11.989      21.377      42.264      79.334      132.92    
  197.81      263.80      400.90      419.52      400.90      349.44      276.78      197.81      126.27      71.379    
  36.244      18.139      10.600      7.3400      5.9518      5.4169      5.2468      5.2159      5.2490      5.4172    
  5.9497      7.3396      10.602      18.139      36.243      71.378      126.27      197.81      276.78      349.44    
  459.63      459.62      419.79      349.44      263.80      179.08      108.13      57.808      28.355      14.669    
  9.1876      6.7905      5.8160      5.4682      5.3770      5.3783      5.4694      5.8146      6.7893      9.1891    
  14.670      28.353      57.806      108.13      179.08      263.80      349.44      419.80      430.09      410.87    
  357.83      283.14      202.22      129.13      73.166      37.322      18.788      11.058      7.7317      6.3121    
  5.7627      5.5871      5.5560      5.5906      5.7625      6.3086      7.7321      11.062      18.788      37.318    
  73.166      129.14      202.22      283.13      357.83      410.87      410.87      374.65      310.86      233.56    
  157.66      94.761      50.771      25.467      13.881      9.1127      6.9974      6.1338      5.8223      5.7403    
  5.7430      5.8251      6.1311      6.9946      9.1153      13.884      25.464      50.768      94.764      157.66    
  233.56      310.85      374.65      410.87      357.83      310.86      244.93      173.94      110.44      62.471    
  32.321      17.062      10.655      7.7953      6.5735      6.0981      5.9444      5.9169      5.9481      6.0982    
  6.5698      7.7951      10.659      17.062      32.318      62.472      110.44      173.94      244.92      310.85    
  357.83      374.88      283.14      233.56      173.94      116.17      69.288      37.503      19.954      12.106    
  8.6012      7.0325      6.3916      6.1588      6.0958      6.0976      6.1605      6.3897      7.0308      8.6031    
  12.107      19.951      37.501      69.290      116.17      173.94      233.56      283.14      311.38      311.38    
  202.22      157.66      110.44      69.288      39.436      21.695      13.163      9.2693      7.4424      6.6645    
  6.3627      6.2648      6.2466      6.2666      6.3626      6.6628      7.4425      9.2710      13.162      21.692    
  39.434      69.289      110.44      157.66      202.22      234.25      245.91      234.24      129.13      94.761    
  62.471      37.503      21.695      13.555      9.6500      7.7278      6.8756      6.5313      6.4087      6.3760    
  6.3770      6.4097      6.5304      6.8746      7.7287      9.6515      13.555      21.694      37.502      62.469    
  94.759      129.14      158.26      175.00      175.00      158.25      73.166      50.771      32.321      19.954    
  13.163      9.6500      7.8299      6.9899      6.6418      6.5140      6.4759      6.4695      6.4767      6.5140    
  6.6411      6.9899      7.8310      9.6511      13.164      19.954      32.320      50.768      73.162      95.071    
  111.15      117.06      111.15      95.073      37.322      25.467      17.062      12.106      9.2693      7.7278    
  6.9899      6.6799      6.5693      6.5394      6.5352      6.5353      6.5394      6.5690      6.6797      6.9898    
  7.7276      9.2695      12.108      17.065      25.469      37.320      50.769      62.639      69.622      69.623    
  62.643      50.773      18.788      13.881      10.655      8.6012      7.4424      6.8756      6.6418      6.5693    
  6.5612      6.5694      6.5740      6.5695      6.5611      6.5691      6.6415      6.8748      7.4410      8.6005    
  10.657      13.885      18.791      25.257      32.031      37.227      39.180      37.229      32.033      25.256    
  11.058      9.1127      7.7953      7.0325      6.6645      6.5313      6.5140      6.5394      6.5694      6.5874    
  6.5876      6.5697      6.5394      6.5141      6.5316      6.6640      7.0304      7.7925      9.1115      11.060    
  13.580      16.527      19.275      20.956      20.956      19.274      16.523      13.577      7.7317      6.9974    
  6.5735      6.3916      6.3627      6.4087      6.4759      6.5352      6.5740      6.5876      6.5743      6.5354    
  6.4761      6.4096      6.3641      6.3920      6.5717      6.9941      7.7288      8.7765      10.026      11.249    
  12.163      12.507      12.162      11.247      10.025      8.7774      6.3121      6.1338      6.0981      6.1588    
  6.2648      6.3760      6.4695      6.5353      6.5695      6.5697      6.5354      6.4691      6.3757      6.2656    
  6.1609      6.1004      6.1348      6.3108      6.6499      7.1285      7.6677      8.1431      8.4230      8.4225    
  8.1426      7.6689      7.1315      6.6529      5.7627      5.8223      5.9444      6.0958      6.2466      6.3770    
  6.4767      6.5394      6.5611      6.5394      6.4761      6.3757      6.2453      6.0957      5.9462      5.8256    
  5.7658      5.7894      5.8987      6.0693      6.2541      6.3962      6.4492      6.3963      6.2554      6.0717    
  5.9003      5.7885      5.5871      5.7403      5.9169      6.0976      6.2666      6.4097      6.5140      6.5690    
  6.5691      6.5141      6.4096      6.2656      6.0957      5.9146      5.7393      5.5887      5.4808      5.4262    
  5.4219      5.4505      5.4878      5.5124      5.5126      5.4884      5.4511      5.4212      5.4237      5.4776    
  5.5560      5.7430      5.9481      6.1605      6.3626      6.5304      6.6411      6.6797      6.6415      6.5316    
  6.3641      6.1609      5.9462      5.7393      5.5528      5.3948      5.2719      5.1873      5.1376      5.1129    
  5.1029      5.1006      5.1033      5.1129      5.1362      5.1850      5.2702      5.3955      5.5906      5.8251    
  6.0982      6.3897      6.6628      6.8746      6.9899      6.9898      6.8748      6.6640      6.3920      6.1004    
  5.8256      5.5887      5.3948      5.2402      5.1203      5.0319      4.9718      4.9358      4.9194      4.9195    
  4.9357      4.9710      5.0311      5.1208      5.2427      5.3980      5.7625      6.1311      6.5698      7.0308    
  7.4425      7.7287      7.8310      7.7276      7.4410      7.0304      6.5717      6.1348      5.7658      5.4808    
  5.2719      5.1203      5.0090      4.9284      4.8744      4.8444      4.8349      4.8442      4.8741      4.9284    
  5.0103      5.1228      5.2738      5.4801      6.3086      6.9946      7.7951      8.6031      9.2710      9.6515    
  9.6511      9.2695      8.6005      7.7925      6.9941      6.3108      5.7894      5.4262      5.1873      5.0319    
  4.9284      4.8596      4.8177      4.7983      4.7982      4.8176      4.8598      4.9292      5.0328      5.1870    
  5.4239      5.7860      7.7321      9.1153      10.659      12.107      13.162      13.555      13.164      12.108    
  10.657      9.1115      7.7288      6.6499      5.8987      5.4219      5.1376      4.9718      4.8744      4.8177    
  4.7880      4.7787      4.7879      4.8179      4.8750      4.9718      5.1361      5.4193      5.8968      6.6505    
  11.062      13.884      17.062      19.951      21.692      21.694      19.954      17.065      13.885      11.060    
  8.7765      7.1285      6.0693      5.4505      5.1129      4.9358      4.8444      4.7983      4.7787      4.7786    
  4.7983      4.8445      4.9357      5.1120      5.4493      6.0696      7.1311      8.7801      18.788      25.464    
  32.318      37.501      39.434      37.502      32.320      25.469      18.791      13.580      10.026      7.6677    
  6.2541      5.4878      5.1029      4.9194      4.8349      4.7982      4.7879      4.7983      4.8349      4.9192    
  5.1025      5.4878      6.2556      7.6705      10.028      13.579      37.318      50.768      62.472      69.290    
  69.289      62.469      50.768      37.320      25.257      16.527      11.249      8.1431      6.3962      5.5124    
  5.1006      4.9195      4.8442      4.8176      4.8179      4.8445      4.9192      5.1001      5.5128      6.3974    
  8.1442      11.249      16.524      25.254      73.166      94.764      110.44      116.17      110.44      94.759    
  73.162      50.769      32.031      19.275      12.163      8.4230      6.4492      5.5126      5.1033      4.9357    
  4.8741      4.8598      4.8750      4.9357      5.1025      5.5128      6.4506      8.4230      12.161      19.272    
  32.030      50.770      129.14      157.66      173.94      173.94      157.66      129.14      95.071      62.639    
  37.227      20.956      12.507      8.4225      6.3963      5.4884      5.1129      4.9710      4.9284      4.9292    
  4.9718      5.1120      5.4878      6.3974      8.4230      12.505      20.954      37.228      62.642      95.074    
  202.22      233.56      244.92      233.56      202.22      158.26      111.15      69.622      39.180      20.956    
  12.162      8.1426      6.2554      5.4511      5.1362      5.0311      5.0103      5.0328      5.1361      5.4493    
  6.2556      8.1442      12.161      20.954      39.182      69.627      111.15      158.25      283.13      310.85    
  310.85      283.14      234.25      175.00      117.06      69.623      37.229      19.274      11.247      7.6689    
  6.0717      5.4212      5.1850      5.1208      5.1228      5.1870      5.4193      6.0696      7.6705      11.249    
  19.272      37.228      69.627      117.06      175.00      234.24      357.83      374.65      357.83      311.38    
  245.91      175.00      111.15      62.643      32.033      16.523      10.025      7.1315      5.9003      5.4237    
  5.2702      5.2427      5.2738      5.4239      5.8968      7.1311      10.028      16.524      32.030      62.642    
  111.15      175.00      245.91      311.39      410.87      410.87      374.88      311.38      234.24      158.25    
  95.073      50.773      25.256      13.577      8.7774      6.6529      5.7885      5.4776      5.3955      5.3980    
  5.4801      5.7860      6.6505      8.7801      13.579      25.254      50.770      95.074      158.25      234.24    
  311.39      374.89      356.38      340.15      295.43      232.63      164.98      104.50      58.939      30.443    
  16.118      10.075      7.3514      6.1917      5.7411      5.5951      5.5695      5.5996      5.7409      6.1871    
  7.3517      10.079      16.118      30.438      58.938      104.51      164.98      232.62      295.43      340.16    
  340.15      309.61      255.92      191.14      128.04      76.429      41.056      21.257      12.359      8.4938    
  6.7673      6.0628      5.8068      5.7387      5.7421      5.8102      6.0593      6.7638      8.4972      12.362    
  21.254      41.053      76.433      128.04      191.14      255.91      309.61      340.15      295.43      255.92    
  200.65      141.53      89.223      50.390      26.574      14.833      9.7683      7.4335      6.4393      6.0518    
  5.9255      5.9033      5.9299      6.0519      6.4347      7.4333      9.7727      14.833      26.571      50.391    
  89.228      141.53      200.65      255.91      295.43      309.79      232.63      191.14      141.53      93.918    
  55.863      30.627      17.060      10.966      8.1045      6.8293      6.3096      6.1204      6.0691      6.0715    