Sc                                      
   1.00000000000000     
     3.321450    0.000000    0.000000
     1.660725    2.876460    0.000000
     0.000000    0.000000    5.161920
   Sc
     2
Direct
  0.000000  0.000000  0.000000
  0.333333  0.333333  0.500000
 
   28   28   48
 0.49905680620E+03 0.47704778325E+03 0.41629598793E+03 0.33060403784E+03 0.23743140189E+03
 0.15267834341E+03 0.86995265080E+02 0.44169465168E+02 0.21506094841E+02 0.12000235999E+02
 0.80938884275E+01 0.64233007635E+01 0.57805443041E+01 0.55783015161E+01 0.55405421041E+01
 0.55778657083E+01 0.57803471540E+01 0.64236443807E+01 0.80942227904E+01 0.11999995727E+02
 0.21505584671E+02 0.44169442965E+02 0.86995839407E+02 0.15267881927E+03 0.23743126268E+03
 0.33060358741E+03 0.41629578680E+03 0.47704785446E+03 0.47704778325E+03 0.43556499523E+03
 0.36240888791E+03 0.27354636012E+03 0.18582247270E+03 0.11243059815E+03 0.60327017882E+02
 0.29715161889E+02 0.15407971971E+02 0.97028238618E+01 0.72134095173E+01 0.61972286924E+01
 0.58346939598E+01 0.57395794927E+01 0.57397561105E+01 0.58349313257E+01 0.61971492390E+01
 0.72131710530E+01 0.97027869691E+01 0.15408093733E+02 0.29715348891E+02 0.60327798724E+02
 0.11243239462E+03 0.18582392945E+03 0.27354458829E+03 0.36240264274E+03 0.43555735625E+03
 0.47704430309E+03 0.41629598793E+03 0.36240888791E+03 0.28662452091E+03 0.20467525250E+03
 0.13078831022E+03 0.74266247998E+02 0.38066357902E+02 0.19323439732E+02 0.11500106822E+02
 0.81375509153E+01 0.66963945065E+01 0.61381622275E+01 0.59599862557E+01 0.59263128319E+01
 0.59604319117E+01 0.61383210320E+01 0.66960432331E+01 0.81373230276E+01 0.11500347280E+02
 0.19323620903E+02 0.38066239142E+02 0.74266757352E+02 0.13079009451E+03 0.20467671425E+03
 0.28662289655E+03 0.36240393336E+03 0.41629142313E+03 0.43584046912E+03 0.33060403784E+03
 0.27354636012E+03 0.20467525250E+03 0.13748208456E+03 0.82348764765E+02 0.44339004813E+02
 0.22887628676E+02 0.13203374895E+02 0.90724886867E+01 0.72214513800E+01 0.64644584535E+01
 0.61917524432E+01 0.61179474414E+01 0.61178478627E+01 0.61915782293E+01 0.64644473864E+01
 0.72216702734E+01 0.90726776033E+01 0.13203120465E+02 0.22886781033E+02 0.44337984538E+02
 0.82348431911E+02 0.13748319111E+03 0.20467786810E+03 0.27354970146E+03 0.33060682131E+03
 0.36305331939E+03 0.36305224041E+03 0.23743140189E+03 0.18582247270E+03 0.13078831022E+03
 0.82348764765E+02 0.46669848762E+02 0.25029139682E+02 0.14472593462E+02 0.98475019939E+01
 0.76918855000E+01 0.67705584172E+01 0.64133934381E+01 0.62981853484E+01 0.62754433105E+01
 0.62979147200E+01 0.64132512980E+01 0.67707147992E+01 0.76920823522E+01 0.98475286262E+01
 0.14472443635E+02 0.25028513196E+02 0.46668202752E+02 0.82346573254E+02 0.13078781948E+03
 0.18582593307E+03 0.23743801061E+03 0.27439736041E+03 0.28783913603E+03 0.27439193464E+03
 0.15267834341E+03 0.11243059815E+03 0.74266247998E+02 0.44339004813E+02 0.25029139682E+02
 0.14947638074E+02 0.10289036720E+02 0.80197893531E+01 0.70086173435E+01 0.65980508571E+01
 0.64515285293E+01 0.64118903389E+01 0.64119782073E+01 0.64516826922E+01 0.65980299784E+01
 0.70083608895E+01 0.80197291017E+01 0.10289763601E+02 0.14948902502E+02 0.25029468623E+02
 0.44337045237E+02 0.74262704267E+02 0.11242816404E+03 0.15267901908E+03 0.18657528300E+03
 0.20600673205E+03 0.20600525994E+03 0.18657260289E+03 0.86995265080E+02 0.60327017882E+02
 0.38066357902E+02 0.22887628676E+02 0.14472593462E+02 0.10289036720E+02 0.81371772731E+01
 0.71379323551E+01 0.67198966687E+01 0.65642482845E+01 0.65167670584E+01 0.65078915986E+01
 0.65168864810E+01 0.65643943606E+01 0.67198736501E+01 0.71376787472E+01 0.81370973206E+01
 0.10289820304E+02 0.14474396258E+02 0.22889467976E+02 0.38066623369E+02 0.60324788591E+02
 0.86991147759E+02 0.11284851204E+03 0.13172248477E+03 0.13864765175E+03 0.13172512725E+03
 0.11285278104E+03 0.44169465168E+02 0.29715161889E+02 0.19323439732E+02 0.13203374895E+02
 0.98475019939E+01 0.80197893531E+01 0.71379323551E+01 0.67620263440E+01 0.66237538911E+01
 0.65835242729E+01 0.65759994217E+01 0.65758748070E+01 0.65833963363E+01 0.66239208144E+01
 0.67621893947E+01 0.71374300255E+01 0.80186611738E+01 0.98470251668E+01 0.13205033856E+02
 0.19327104513E+02 0.29718504090E+02 0.44169671837E+02 0.60370691001E+02 0.74552502055E+02
 0.82857027162E+02 0.82859216483E+02 0.74557275455E+02 0.60374248575E+02 0.21506094841E+02
 0.15407971971E+02 0.11500106822E+02 0.90724886867E+01 0.76918855000E+01 0.70086173435E+01
 0.67198966687E+01 0.66237538911E+01 0.66064024463E+01 0.66114357420E+01 0.66150915616E+01
 0.66112795549E+01 0.66063084368E+01 0.66238870995E+01 0.67199793466E+01 0.70079483623E+01
 0.76901445161E+01 0.90706265634E+01 0.11499961991E+02 0.15410481487E+02 0.21509989198E+02
 0.29500990114E+02 0.37793200446E+02 0.44109856938E+02 0.46475288289E+02 0.44110457994E+02
 0.37792661071E+02 0.29498177908E+02 0.12000235999E+02 0.97028238618E+01 0.81375509153E+01
 0.72214513800E+01 0.67705584172E+01 0.65980508571E+01 0.65642482845E+01 0.65835242729E+01
 0.66114357420E+01 0.66286824566E+01 0.66287144539E+01 0.66114055968E+01 0.65834403922E+01
 0.65645663440E+01 0.65989324963E+01 0.67710004284E+01 0.72199868569E+01 0.81341578773E+01
 0.96996035346E+01 0.11999648702E+02 0.15076603878E+02 0.18742486437E+02 0.22161605907E+02
 0.24245723959E+02 0.24244539016E+02 0.22158374412E+02 0.18738486654E+02 0.15074045962E+02
 0.80938884275E+01 0.72134095173E+01 0.66963945065E+01 0.64644584535E+01 0.64133934381E+01
 0.64515285293E+01 0.65167670584E+01 0.65759994217E+01 0.66150915616E+01 0.66287144539E+01
 0.66152391757E+01 0.65759937559E+01 0.65167421118E+01 0.64522149277E+01 0.64151195949E+01
 0.64662053925E+01 0.66963808689E+01 0.72108590377E+01 0.80900540996E+01 0.93332357732E+01
 0.10808518962E+02 0.12261803735E+02 0.13375558320E+02 0.13798268424E+02 0.13373882984E+02
 0.12260106054E+02 0.10808765599E+02 0.93360037741E+01 0.64233007635E+01 0.61972286924E+01
 0.61381622275E+01 0.61917524432E+01 0.62981853484E+01 0.64118903389E+01 0.65078915986E+01
 0.65758748070E+01 0.66112795549E+01 0.66114055968E+01 0.65759937559E+01 0.65075515826E+01
 0.64111557431E+01 0.62979906337E+01 0.61932229275E+01 0.61412521039E+01 0.62001653391E+01
 0.64238789184E+01 0.68371997882E+01 0.74118254913E+01 0.80540388334E+01 0.86176756836E+01
 0.89490299472E+01 0.89490472393E+01 0.86184268287E+01 0.80564825472E+01 0.74153194543E+01
 0.68395160320E+01 0.57805443041E+01 0.58346939598E+01 0.59599862557E+01 0.61179474414E+01
 0.62754433105E+01 0.64119782073E+01 0.65168864810E+01 0.65833963363E+01 0.66063084368E+01
 0.65834403922E+01 0.65167421118E+01 0.64111557431E+01 0.62737531129E+01 0.61163048535E+01
 0.59601010955E+01 0.58373666559E+01 0.57844270769E+01 0.58277695061E+01 0.59697191039E+01
 0.61812274235E+01 0.64062471106E+01 0.65780022093E+01 0.66424091185E+01 0.65788443389E+01
 0.64079471718E+01 0.61829130063E+01 0.59696895792E+01 0.58251641955E+01 0.55783015161E+01
 0.57395794927E+01 0.59263128319E+01 0.61178478627E+01 0.62979147200E+01 0.64516826922E+01
 0.65643943606E+01 0.66239208144E+01 0.66238870995E+01 0.65645663440E+01 0.64522149277E+01
 0.62979906337E+01 0.61163048535E+01 0.59232730447E+01 0.57369061830E+01 0.55779959967E+01
 0.54673462002E+01 0.54175837170E+01 0.54248940344E+01 0.54685077440E+01 0.55194588739E+01
 0.55522498529E+01 0.55525453710E+01 0.55198847167E+01 0.54680096760E+01 0.54227550952E+01
 0.54144225301E+01 0.54650751708E+01 0.55405421041E+01 0.57397561105E+01 0.59604319117E+01
 0.61915782293E+01 0.64132512980E+01 0.65980299784E+01 0.67198736501E+01 0.67621893947E+01
 0.67199793466E+01 0.65989324963E+01 0.64151195949E+01 0.61932229275E+01 0.59601010955E+01
 0.57369061830E+01 0.55366643365E+01 0.53681395601E+01 0.52389865963E+01 0.51531262968E+01
 0.51062786469E+01 0.50866623362E+01 0.50810793816E+01 0.50803903587E+01 0.50811499995E+01
 0.50859893954E+01 0.51044962423E+01 0.51512875309E+01 0.52389179249E+01 0.53706613311E+01
 0.55778657083E+01 0.58349313257E+01 0.61383210320E+01 0.64644473864E+01 0.67707147992E+01
 0.70083608895E+01 0.71376787472E+01 0.71374300255E+01 0.70079483623E+01 0.67710004284E+01
 0.64662053925E+01 0.61412521039E+01 0.58373666559E+01 0.55779959967E+01 0.53681395601E+01
 0.52029560157E+01 0.50767912520E+01 0.49859269751E+01 0.49264358695E+01 0.48925167814E+01
 0.48777289981E+01 0.48776755676E+01 0.48922050038E+01 0.49259433324E+01 0.49861441003E+01
 0.50786686933E+01 0.52060505085E+01 0.53704904683E+01 0.57803471540E+01 0.61971492390E+01
 0.66960432331E+01 0.72216702734E+01 0.76920823522E+01 0.80197291017E+01 0.81370973206E+01
 0.80186611738E+01 0.76901445161E+01 0.72199868569E+01 0.66963808689E+01 0.62001653391E+01
 0.57844270769E+01 0.54673462002E+01 0.52389865963E+01 0.50767912520E+01 0.49604722808E+01
 0.48784628415E+01 0.48253631526E+01 0.47967610865E+01 0.47879090352E+01 0.47965991078E+01
 0.48253124583E+01 0.48791383096E+01 0.49622292406E+01 0.50787579746E+01 0.52392673578E+01
 0.54648438873E+01 0.64236443807E+01 0.72131710530E+01 0.81373230276E+01 0.90726776033E+01
 0.98475286262E+01 0.10289763601E+02 0.10289820304E+02 0.98470251668E+01 0.90706265634E+01
 0.81341578773E+01 0.72108590377E+01 0.64238789184E+01 0.58277695061E+01 0.54175837170E+01
 0.51531262968E+01 0.49859269751E+01 0.48784628415E+01 0.48096390495E+01 0.47692566624E+01
 0.47510196170E+01 0.47509601812E+01 0.47692770512E+01 0.48100407743E+01 0.48790541363E+01
 0.49858237061E+01 0.51514535406E+01 0.54146197862E+01 0.58252333883E+01 0.80942227904E+01
 0.97027869691E+01 0.11500347280E+02 0.13203120465E+02 0.14472443635E+02 0.14948902502E+02
 0.14474396258E+02 0.13205033856E+02 0.11499961991E+02 0.96996035346E+01 0.80900540996E+01
 0.68371997882E+01 0.59697191039E+01 0.54248940344E+01 0.51062786469E+01 0.49264358695E+01
 0.48253631526E+01 0.47692566624E+01 0.47409947298E+01 0.47323476132E+01 0.47409339063E+01
 0.47694109545E+01 0.48255332439E+01 0.49257820427E+01 0.51043763188E+01 0.54227936175E+01
 0.59694166389E+01 0.68397343038E+01 0.11999995727E+02 0.15408093733E+02 0.19323620903E+02
 0.22886781033E+02 0.25028513196E+02 0.25029468623E+02 0.22889467976E+02 0.19327104513E+02
 0.15410481487E+02 0.11999648702E+02 0.93332357732E+01 0.74118254913E+01 0.61812274235E+01
 0.54685077440E+01 0.50866623362E+01 0.48925167814E+01 0.47967610865E+01 0.47510196170E+01
 0.47323476132E+01 0.47322836041E+01 0.47509647030E+01 0.47967638958E+01 0.48922264505E+01
 0.50859688603E+01 0.54682991956E+01 0.61827405024E+01 0.74149594028E+01 0.93360401720E+01
 0.21505584671E+02 0.29715348891E+02 0.38066239142E+02 0.44337984538E+02 0.46668202752E+02
 0.44337045237E+02 0.38066623369E+02 0.29718504090E+02 0.21509989198E+02 0.15076603878E+02
 0.10808518962E+02 0.80540388334E+01 0.64062471106E+01 0.55194588739E+01 0.50810793816E+01
 0.48777289981E+01 0.47879090352E+01 0.47509601812E+01 0.47409339063E+01 0.47509647030E+01
 0.47878759302E+01 0.48775697034E+01 0.50809739213E+01 0.55200941232E+01 0.64081283970E+01
 0.80562883480E+01 0.10808986811E+02 0.15073959827E+02 0.44169442965E+02 0.60327798724E+02
 0.74266757352E+02 0.82348431911E+02 0.82346573254E+02 0.74262704267E+02 0.60324788591E+02
 0.44169671837E+02 0.29500990114E+02 0.18742486437E+02 0.12261803735E+02 0.86176756836E+01
 0.65780022093E+01 0.55522498529E+01 0.50803903587E+01 0.48776755676E+01 0.47965991078E+01
 0.47692770512E+01 0.47694109545E+01 0.47967638958E+01 0.48775697034E+01 0.50802544606E+01
 0.55526644226E+01 0.65789344437E+01 0.86180095900E+01 0.12260262339E+02 0.18739217717E+02
 0.29498033605E+02 0.86995839407E+02 0.11243239462E+03 0.13079009451E+03 0.13748319111E+03
 0.13078781948E+03 0.11242816404E+03 0.86991147759E+02 0.60370691001E+02 0.37793200446E+02
 0.22161605907E+02 0.13375558320E+02 0.89490299472E+01 0.66424091185E+01 0.55525453710E+01
 0.50811499995E+01 0.48922050038E+01 0.48253124583E+01 0.48100407743E+01 0.48255332439E+01
 0.48922264505E+01 0.50809739213E+01 0.55526644226E+01 0.66427328821E+01 0.89484678950E+01
 0.13373416179E+02 0.22159105209E+02 0.37792754295E+02 0.60373461892E+02 0.15267881927E+03
 0.18582392945E+03 0.20467671425E+03 0.20467786810E+03 0.18582593307E+03 0.15267901908E+03
 0.11284851204E+03 0.74552502055E+02 0.44109856938E+02 0.24245723959E+02 0.13798268424E+02
 0.89490472393E+01 0.65788443389E+01 0.55198847167E+01 0.50859893954E+01 0.49259433324E+01
 0.48791383096E+01 0.48790541363E+01 0.49257820427E+01 0.50859688603E+01 0.55200941232E+01
 0.65789344437E+01 0.89484678950E+01 0.13797161894E+02 0.24245354314E+02 0.44111494586E+02
 0.74555668215E+02 0.11285091077E+03 0.23743126268E+03 0.27354458829E+03 0.28662289655E+03
 0.27354970146E+03 0.23743801061E+03 0.18657528300E+03 0.13172248477E+03 0.82857027162E+02
 0.46475288289E+02 0.24244539016E+02 0.13373882984E+02 0.86184268287E+01 0.64079471718E+01
 0.54680096760E+01 0.51044962423E+01 0.49861441003E+01 0.49622292406E+01 0.49858237061E+01
 0.51043763188E+01 0.54682991956E+01 0.64081283970E+01 0.86180095900E+01 0.13373416179E+02
 0.24245354314E+02 0.46477870585E+02 0.82859760583E+02 0.13172250619E+03 0.18657106080E+03
 0.33060358741E+03 0.36240264274E+03 0.36240393336E+03 0.33060682131E+03 0.27439736041E+03
 0.20600673205E+03 0.13864765175E+03 0.82859216483E+02 0.44110457994E+02 0.22158374412E+02
 0.12260106054E+02 0.80564825472E+01 0.61829130063E+01 0.54227550952E+01 0.51512875309E+01
 0.50786686933E+01 0.50787579746E+01 0.51514535406E+01 0.54227936175E+01 0.61827405024E+01
 0.80562883480E+01 0.12260262339E+02 0.22159105209E+02 0.44111494586E+02 0.82859760583E+02
 0.13864679774E+03 0.20600414040E+03 0.27439370160E+03 0.41629578680E+03 0.43555735625E+03
 0.41629142313E+03 0.36305331939E+03 0.28783913603E+03 0.20600525994E+03 0.13172512725E+03
 0.74557275455E+02 0.37792661071E+02 0.18738486654E+02 0.10808765599E+02 0.74153194543E+01
 0.59696895792E+01 0.54144225301E+01 0.52389179249E+01 0.52060505085E+01 0.52392673578E+01
 0.54146197862E+01 0.59694166389E+01 0.74149594028E+01 0.10808986811E+02 0.18739217717E+02
 0.37792754295E+02 0.74555668215E+02 0.13172250619E+03 0.20600414040E+03 0.28784162901E+03
 0.36305859587E+03 0.47704785446E+03 0.47704430309E+03 0.43584046912E+03 0.36305224041E+03
 0.27439193464E+03 0.18657260289E+03 0.11285278104E+03 0.60374248575E+02 0.29498177908E+02
 0.15074045962E+02 0.93360037741E+01 0.68395160320E+01 0.58251641955E+01 0.54650751708E+01
 0.53706613311E+01 0.53704904683E+01 0.54648438873E+01 0.58252333883E+01 0.68397343038E+01
 0.93360401720E+01 0.15073959827E+02 0.29498033605E+02 0.60373461892E+02 0.11285091077E+03
 0.18657106080E+03 0.27439370160E+03 0.36305859587E+03 0.43584826090E+03 0.48090122889E+03
 0.45962301063E+03 0.40089908584E+03 0.31809435969E+03 0.22813442323E+03 0.14644149853E+03
 0.83313182463E+02 0.42333021467E+02 0.20771025677E+02 0.11749079672E+02 0.79980159820E+01
 0.63945728688E+01 0.57760584578E+01 0.55803529466E+01 0.55448894445E+01 0.55820306857E+01
 0.57758654044E+01 0.63928135412E+01 0.79983712945E+01 0.11750988753E+02 0.20770527441E+02
 0.42330744065E+02 0.83313345875E+02 0.14644358956E+03 0.22813428496E+03 0.31809282959E+03
 0.40090069889E+03 0.45962665249E+03 0.45962301063E+03 0.41952542313E+03 0.34882779744E+03
 0.26299894053E+03 0.17837461854E+03 0.10773790579E+03 0.57773379886E+02 0.28570598691E+02
 0.14995583691E+02 0.95462551664E+01 0.71568089421E+01 0.61811315804E+01 0.58313747533E+01
 0.57396973516E+01 0.57412886673E+01 0.58330075437E+01 0.61795929107E+01 0.71551377902E+01
 0.95476836045E+01 0.14997202243E+02 0.28569391208E+02 0.57772604677E+02 0.10774078365E+03
 0.17837715944E+03 0.26299586009E+03 0.34882094176E+03 0.41952029781E+03 0.45962146613E+03
 0.40089908584E+03 0.34882779744E+03 0.27562933544E+03 0.19655370049E+03 0.12539083690E+03
 0.71121177903E+02 0.36523207386E+02 0.18712000575E+02 0.11276049269E+02 0.80471686558E+01
 0.66646777485E+01 0.61279382718E+01 0.59557600693E+01 0.59241582048E+01 0.59579797244E+01
 0.61280665547E+01 0.66625027898E+01 0.80469210145E+01 0.11278093987E+02 0.18712267684E+02
 0.36521493197E+02 0.71121935856E+02 0.12539450260E+03 0.19655483768E+03 0.27562512113E+03
 0.34882185263E+03 0.40089562617E+03 0.41978873372E+03 0.31809435969E+03 0.26299894053E+03
 0.19655370049E+03 0.13183187870E+03 0.78869789214E+02 0.42506280428E+02 0.22095546868E+02
 0.12909971579E+02 0.89476895919E+01 0.71720808565E+01 0.64458554395E+01 0.61831662197E+01
 0.61122090659E+01 0.61131595940E+01 0.61840537799E+01 0.64448149711E+01 0.71712339105E+01
 0.89488497390E+01 0.12910687642E+02 0.22093711266E+02 0.42504553655E+02 0.78871097872E+02
 0.13183447484E+03 0.19655491093E+03 0.26299983262E+03 0.31809645904E+03 0.34944084089E+03
 0.34943950597E+03 0.22813442323E+03 0.17837461854E+03 0.12539083690E+03 0.78869789214E+02
 0.44731335758E+02 0.24129893835E+02 0.14121008196E+02 0.96944032402E+01 0.76262101760E+01
 0.67432200735E+01 0.64004372409E+01 0.62895288204E+01 0.62682666899E+01 0.62903849387E+01
 0.64003462255E+01 0.67423227959E+01 0.76263964438E+01 0.96954174962E+01 0.14120648955E+02
 0.24127989459E+02 0.44729802443E+02 0.78869251046E+02 0.12539106307E+03 0.17837728400E+03
 0.22814069555E+03 0.26380605254E+03 0.27678133508E+03 0.26380002255E+03 0.14644149853E+03
 0.10773790579E+03 0.71121177903E+02 0.42506280428E+02 0.24129893835E+02 0.14573476407E+02
 0.10119974832E+02 0.79426969892E+01 0.69739979687E+01 0.65810338586E+01 0.64405878646E+01
 0.64028111773E+01 0.64034076030E+01 0.64412586914E+01 0.65805381347E+01 0.69733002301E+01
 0.79432090995E+01 0.10121156867E+02 0.14573928476E+02 0.24129188098E+02 0.42504397711E+02
 0.71118248391E+02 0.10773579445E+03 0.14644293734E+03 0.17908550322E+03 0.19781178256E+03
 0.19780936039E+03 0.17908119318E+03 0.83313182463E+02 0.57773379886E+02 0.36523207386E+02
 0.22095546868E+02 0.14121008196E+02 0.10119974832E+02 0.80560089804E+01 0.70992104075E+01
 0.66998946367E+01 0.65515357696E+01 0.65064421248E+01 0.64983171038E+01 0.65069341798E+01
 0.65516347784E+01 0.66994542131E+01 0.70990488840E+01 0.80565473092E+01 0.10120954779E+02
 0.14122298660E+02 0.22096772962E+02 0.36522971655E+02 0.57770606374E+02 0.83309059771E+02
 0.10812665036E+03 0.12626498944E+03 0.13292355936E+03 0.12626617981E+03 0.10812973031E+03
 0.42333021467E+02 0.28570598691E+02 0.18712000575E+02 0.12909971579E+02 0.96944032402E+01
 0.79426969892E+01 0.70992104075E+01 0.67409238808E+01 0.66100054607E+01 0.65724481305E+01
 0.65657893873E+01 0.65657865801E+01 0.65724066636E+01 0.66099488769E+01 0.67408713175E+01
 0.70988948894E+01 0.79420190239E+01 0.96943245233E+01 0.12911896992E+02 0.18715616684E+02
 0.28573227601E+02 0.42332084038E+02 0.57803634835E+02 0.71374274908E+02 0.79329735796E+02
 0.79331687622E+02 0.71378904946E+02 0.57807870320E+02 0.20771025677E+02 0.14995583691E+02
 0.11276049269E+02 0.89476895919E+01 0.76262101760E+01 0.69739979687E+01 0.66998946367E+01
 0.66100054607E+01 0.65950652530E+01 0.66009417353E+01 0.66048603887E+01 0.66008832480E+01
 0.65949686670E+01 0.66099728355E+01 0.66997827326E+01 0.69732259044E+01 0.76245768197E+01
 0.89463485559E+01 0.11276797916E+02 0.14998768500E+02 0.20774720461E+02 0.28356520122E+02
 0.36243618837E+02 0.42262229403E+02 0.44518197822E+02 0.42263465575E+02 0.36244197407E+02
 0.28354721537E+02 0.11749079672E+02 0.95462551664E+01 0.80471686558E+01 0.71720808565E+01
 0.67432200735E+01 0.65810338586E+01 0.65515357696E+01 0.65724481305E+01 0.66009417353E+01
 0.66184123864E+01 0.66185121544E+01 0.66010362449E+01 0.65724260633E+01 0.65517954454E+01
 0.65816569286E+01 0.67431610125E+01 0.71701590450E+01 0.80439139688E+01 0.95439535991E+01
 0.11749619646E+02 0.14672227255E+02 0.18142192525E+02 0.21380361423E+02 0.23356137945E+02
 0.23355264745E+02 0.21377776591E+02 0.18138502255E+02 0.14669145598E+02 0.79980159820E+01
 0.71568089421E+01 0.66646777485E+01 0.64458554395E+01 0.64004372409E+01 0.64405878646E+01
 0.65064421248E+01 0.65657893873E+01 0.66048603887E+01 0.66185121544E+01 0.66051103341E+01
 0.65658948725E+01 0.65065555925E+01 0.64414550374E+01 0.64021109531E+01 0.64469871246E+01
 0.66636987100E+01 0.71536768910E+01 0.79944626236E+01 0.91856808026E+01 0.10601034422E+02
 0.11990350414E+02 0.13048666304E+02 0.13449536568E+02 0.13046836095E+02 0.11988184650E+02
 0.10600439500E+02 0.91875753515E+01 0.63945728688E+01 0.61811315804E+01 0.61279382718E+01
 0.61831662197E+01 0.62895288204E+01 0.64028111773E+01 0.64983171038E+01 0.65657865801E+01
 0.66008832480E+01 0.66010362449E+01 0.65658948725E+01 0.64979266813E+01 0.64022787697E+01
 0.62899097743E+01 0.61851132737E+01 0.61307969943E+01 0.61831374429E+01 0.63941312119E+01
 0.67876343910E+01 0.73366191643E+01 0.79513592703E+01 0.84915005124E+01 0.88090996782E+01
 0.88088126481E+01 0.84915634021E+01 0.79532018440E+01 0.73399931284E+01 0.67904839084E+01
 0.57760584578E+01 0.58313747533E+01 0.59557600693E+01 0.61122090659E+01 0.62682666899E+01
 0.64034076030E+01 0.65069341798E+01 0.65724066636E+01 0.65949686670E+01 0.65724260633E+01
 0.65065555925E+01 0.64022787697E+01 0.62666813671E+01 0.61112808936E+01 0.59567847575E+01
 0.58345444694E+01 0.57797343790E+01 0.58177876388E+01 0.59509085703E+01 0.61513921843E+01
 0.63656002004E+01 0.65293398594E+01 0.65906059454E+01 0.65298432683E+01 0.63671862869E+01
 0.61535858845E+01 0.59517972997E+01 0.58159653453E+01 0.55803529466E+01 0.57396973516E+01
 0.59241582048E+01 0.61131595940E+01 0.62903849387E+01 0.64412586914E+01 0.65516347784E+01
 0.66099488769E+01 0.66099728355E+01 0.65517954454E+01 0.64414550374E+01 0.62899097743E+01
 0.61112808936E+01 0.59213549122E+01 0.57378429582E+01 0.55810748304E+01 0.54711091918E+01
 0.54199735178E+01 0.54240309789E+01 0.54635095109E+01 0.55107080296E+01 0.55412216025E+01
 0.55415062478E+01 0.55113143295E+01 0.54636034292E+01 0.54225689574E+01 0.54169441065E+01
 0.54681971824E+01 0.55448894445E+01 0.57412886673E+01 0.59579797244E+01 0.61840537799E+01
 0.64003462255E+01 0.65805381347E+01 0.66994542131E+01 0.67408713175E+01 0.66997827326E+01
 0.65816569286E+01 0.64021109531E+01 0.61851132737E+01 0.59567847575E+01 0.57378429582E+01
 0.55411770387E+01 0.53753908696E+01 0.52478206085E+01 0.51621850293E+01 0.51144216196E+01
 0.50933469693E+01 0.50864890857E+01 0.50853375322E+01 0.50867303729E+01 0.50929684365E+01
 0.51127687112E+01 0.51599285837E+01 0.52468150548E+01 0.53770480614E+01 0.55820306857E+01
 0.58330075437E+01 0.61280665547E+01 0.64448149711E+01 0.67423227959E+01 0.69733002301E+01
 0.70990488840E+01 0.70988948894E+01 0.69732259044E+01 0.67431610125E+01 0.64469871246E+01
 0.61307969943E+01 0.58345444694E+01 0.55810748304E+01 0.53753908696E+01 0.52129353426E+01
 0.50883176143E+01 0.49979834307E+01 0.49382162190E+01 0.49036370618E+01 0.48883654406E+01
 0.48883666965E+01 0.49033702737E+01 0.49375169432E+01 0.49976514509E+01 0.50895755453E+01
 0.52158574636E+01 0.53783302586E+01 0.57758654044E+01 0.61795929107E+01 0.66625027898E+01
 0.71712339105E+01 0.76263964438E+01 0.79432090995E+01 0.80565473092E+01 0.79420190239E+01
 0.76245768197E+01 0.71701590450E+01 0.66636987100E+01 0.61831374429E+01 0.57797343790E+01
 0.54711091918E+01 0.52478206085E+01 0.50883176143E+01 0.49732092580E+01 0.48914550582E+01
 0.48380211764E+01 0.48089477042E+01 0.47999024996E+01 0.48087648365E+01 0.48377860663E+01
 0.48918143650E+01 0.49748577282E+01 0.50907174810E+01 0.52489934973E+01 0.54694350065E+01
 0.63928135412E+01 0.71551377902E+01 0.80469210145E+01 0.89488497390E+01 0.96954174962E+01
 0.10121156867E+02 0.10120954779E+02 0.96943245233E+01 0.89463485559E+01 0.80439139688E+01
 0.71536768910E+01 0.63941312119E+01 0.58177876388E+01 0.54199735178E+01 0.51621850293E+01
 0.49979834307E+01 0.48914550582E+01 0.48225311455E+01 0.47816820726E+01 0.47630848353E+01
 0.47630084189E+01 0.47816386382E+01 0.48228881521E+01 0.48922376304E+01 0.49984303445E+01
 0.51611402768E+01 0.54171560700E+01 0.58146214870E+01 0.79983712945E+01 0.95476836045E+01
 0.11278093987E+02 0.12910687642E+02 0.14120648955E+02 0.14573928476E+02 0.14122298660E+02
 0.12911896992E+02 0.11276797916E+02 0.95439535991E+01 0.79944626236E+01 0.67876343910E+01
 0.59509085703E+01 0.54240309789E+01 0.51144216196E+01 0.49382162190E+01 0.48380211764E+01
 0.47816820726E+01 0.47529891248E+01 0.47441380412E+01 0.47529012158E+01 0.47818784704E+01
 0.48383937155E+01 0.49378604550E+01 0.51126305546E+01 0.54215363650E+01 0.59497140671E+01
 0.67892761365E+01 0.11750988753E+02 0.14997202243E+02 0.18712267684E+02 0.22093711266E+02
 0.24127989459E+02 0.24129188098E+02 0.22096772962E+02 0.18715616684E+02 0.14998768500E+02
 0.11749619646E+02 0.91856808026E+01 0.73366191643E+01 0.61513921843E+01 0.54635095109E+01
 0.50933469693E+01 0.49036370618E+01 0.48089477042E+01 0.47630848353E+01 0.47441380412E+01
 0.47440566511E+01 0.47630364579E+01 0.48090365608E+01 0.49033950730E+01 0.50924415007E+01
 0.54627712541E+01 0.61523367040E+01 0.73396165962E+01 0.91890525153E+01 0.20770527441E+02
 0.28569391208E+02 0.36521493197E+02 0.42504553655E+02 0.44729802443E+02 0.42504397711E+02
 0.36522971655E+02 0.28573227601E+02 0.20774720461E+02 0.14672227255E+02 0.10601034422E+02
 0.79513592703E+01 0.63656002004E+01 0.55107080296E+01 0.50864890857E+01 0.48883654406E+01
 0.47999024996E+01 0.47630084189E+01 0.47529012158E+01 0.47630364579E+01 0.47998779483E+01
 0.48881370110E+01 0.50861798279E+01 0.55110541549E+01 0.63673713892E+01 0.79540188723E+01
 0.10602436543E+02 0.14670499759E+02 0.42330744065E+02 0.57772604677E+02 0.71121935856E+02
 0.78871097872E+02 0.78869251046E+02 0.71118248391E+02 0.57770606374E+02 0.42332084038E+02
 0.28356520122E+02 0.18142192525E+02 0.11990350414E+02 0.84915005124E+01 0.65293398594E+01
 0.55412216025E+01 0.50853375322E+01 0.48883666965E+01 0.48087648365E+01 0.47816386382E+01
 0.47818784704E+01 0.48090365608E+01 0.48881370110E+01 0.50850277293E+01 0.55416871872E+01
 0.65305365947E+01 0.84922308262E+01 0.11989320526E+02 0.18139238980E+02 0.28353146218E+02
 0.83313345875E+02 0.10774078365E+03 0.12539450260E+03 0.13183447484E+03 0.12539106307E+03
 0.10773579445E+03 0.83309059771E+02 0.57803634835E+02 0.36243618837E+02 0.21380361423E+02
 0.13048666304E+02 0.88090996782E+01 0.65906059454E+01 0.55415062478E+01 0.50867303729E+01
 0.49033702737E+01 0.48377860663E+01 0.48228881521E+01 0.48383937155E+01 0.49033950730E+01
 0.50861798279E+01 0.55416871872E+01 0.65914984099E+01 0.88088045554E+01 0.13046222588E+02
 0.21377436240E+02 0.36242664777E+02 0.57805621273E+02 0.14644358956E+03 0.17837715944E+03
 0.19655483768E+03 0.19655491093E+03 0.17837728400E+03 0.14644293734E+03 0.10812665036E+03
 0.71374274908E+02 0.42262229403E+02 0.23356137945E+02 0.13449536568E+02 0.88088126481E+01
 0.65298432683E+01 0.55113143295E+01 0.50929684365E+01 0.49375169432E+01 0.48918143650E+01
 0.48922376304E+01 0.49378604550E+01 0.50924415007E+01 0.55110541549E+01 0.65305365947E+01
 0.88088045554E+01 0.13447740965E+02 0.23354709337E+02 0.42263693513E+02 0.71377703367E+02
 0.10812917083E+03 0.22813428496E+03 0.26299586009E+03 0.27562512113E+03 0.26299983262E+03
 0.22814069555E+03 0.17908550322E+03 0.12626498944E+03 0.79329735796E+02 0.44518197822E+02
 0.23355264745E+02 0.13046836095E+02 0.84915634021E+01 0.63671862869E+01 0.54636034292E+01
 0.51127687112E+01 0.49976514509E+01 0.49748577282E+01 0.49984303445E+01 0.51126305546E+01
 0.54627712541E+01 0.63673713892E+01 0.84922308262E+01 0.13046222588E+02 0.23354709337E+02
 0.44520644670E+02 0.79333871904E+02 0.12626571575E+03 0.17908087705E+03 0.31809282959E+03
 0.34882094176E+03 0.34882185263E+03 0.31809645904E+03 0.26380605254E+03 0.19781178256E+03
 0.13292355936E+03 0.79331687622E+02 0.42263465575E+02 0.21377776591E+02 0.11988184650E+02
 0.79532018440E+01 0.61535858845E+01 0.54225689574E+01 0.51599285837E+01 0.50895755453E+01
 0.50907174810E+01 0.51611402768E+01 0.54215363650E+01 0.61523367040E+01 0.79540188723E+01
 0.11989320526E+02 0.21377436240E+02 0.42263693513E+02 0.79333871904E+02 0.13292432805E+03
 0.19780802186E+03 0.26380024856E+03 0.40090069889E+03 0.41952029781E+03 0.40089562617E+03
 0.34944084089E+03 0.27678133508E+03 0.19780936039E+03 0.12626617981E+03 0.71378904946E+02
 0.36244197407E+02 0.18138502255E+02 0.10600439500E+02 0.73399931284E+01 0.59517972997E+01
 0.54169441065E+01 0.52468150548E+01 0.52158574636E+01 0.52489934973E+01 0.54171560700E+01
 0.59497140671E+01 0.73396165962E+01 0.10602436543E+02 0.18139238980E+02 0.36242664777E+02
 0.71377703367E+02 0.12626571575E+03 0.19780802186E+03 0.27678097173E+03 0.34944461788E+03
 0.45962665249E+03 0.45962146613E+03 0.41978873372E+03 0.34943950597E+03 0.26380002255E+03
 0.17908119318E+03 0.10812973031E+03 0.57807870320E+02 0.28354721537E+02 0.14669145598E+02
 0.91875753515E+01 0.67904839084E+01 0.58159653453E+01 0.54681971824E+01 0.53770480614E+01
 0.53783302586E+01 0.54694350065E+01 0.58146214870E+01 0.67892761365E+01 0.91890525153E+01
 0.14670499759E+02 0.28353146218E+02 0.57805621273E+02 0.10812917083E+03 0.17908087705E+03
 0.26380024856E+03 0.34944461788E+03 0.41979834432E+03 0.43009477779E+03 0.41086786333E+03
 0.35783100209E+03 0.28313714378E+03 0.20221826934E+03 0.12913384543E+03 0.73165774171E+02
 0.37321855389E+02 0.18788043148E+02 0.11058117577E+02 0.77317251755E+01 0.63120590273E+01
 0.57626628503E+01 0.55871494992E+01 0.55560168962E+01 0.55905689844E+01 0.57624815973E+01
 0.63085734771E+01 0.77320904413E+01 0.11061795886E+02 0.18787579792E+02 0.37317746763E+02
 0.73165591657E+02 0.12913724359E+03 0.20221813435E+03 0.28313474238E+03 0.35783410081E+03
 0.41087441866E+03 0.41086786333E+03 0.37465410306E+03 0.31085646978E+03 0.23355906661E+03
 0.15765890780E+03 0.94760573433E+02 0.50770570779E+02 0.25466819857E+02 0.13881146425E+02
 0.91127041523E+01 0.69974344910E+01 0.61338342312E+01 0.58223151615E+01 0.57402670557E+01
 0.57430017443E+01 0.58250693008E+01 0.61311028507E+01 0.69946043616E+01 0.91153378312E+01
 0.13883992496E+02 0.25464454272E+02 0.50768419743E+02 0.94764134291E+02 0.15766219950E+03
 0.23355510646E+03 0.31084970264E+03 0.37465171894E+03 0.41086820772E+03 0.35783100209E+03
 0.31085646978E+03 0.24492749594E+03 0.17393991721E+03 0.11043583234E+03 0.62470698266E+02