   2   2   0   0
  0.2465854E+02  0.3321450E-09  0.3321450E-09  0.5161920E-09  0.5000000E-15
  1.000000000000000E-004
  CAR 
 Sc                                      
     48.28629327    -50.20293921  301      3.67584493      1.00000000
    -50.203  0.0000E+00  0.0000E+00
    -49.875  0.0000E+00  0.0000E+00
    -49.546  0.0000E+00  0.0000E+00
    -49.218  0.0000E+00  0.0000E+00
    -48.890  0.0000E+00  0.0000E+00
    -48.561  0.0000E+00  0.0000E+00
    -48.233  0.0000E+00  0.0000E+00
    -47.905  0.0000E+00  0.0000E+00
    -47.577  0.0000E+00  0.0000E+00
    -47.248  0.0000E+00  0.0000E+00
    -46.920  0.0000E+00  0.0000E+00
    -46.592  0.0000E+00  0.0000E+00
    -46.263  0.0000E+00  0.0000E+00
    -45.935  0.1641E-09  0.5388E-10
    -45.607  0.1144E+02  0.3754E+01
    -45.278  0.7236E+00  0.4000E+01
    -44.950  0.0000E+00  0.4000E+01
    -44.622  0.0000E+00  0.4000E+01
    -44.294  0.0000E+00  0.4000E+01
    -43.965  0.0000E+00  0.4000E+01
    -43.637  0.0000E+00  0.4000E+01
    -43.309  0.0000E+00  0.4000E+01
    -42.980  0.0000E+00  0.4000E+01
    -42.652  0.0000E+00  0.4000E+01
    -42.324  0.0000E+00  0.4000E+01
    -41.996  0.0000E+00  0.4000E+01
    -41.667  0.0000E+00  0.4000E+01
    -41.339  0.0000E+00  0.4000E+01
    -41.011  0.0000E+00  0.4000E+01
    -40.682  0.0000E+00  0.4000E+01
    -40.354  0.0000E+00  0.4000E+01
    -40.026  0.0000E+00  0.4000E+01
    -39.697  0.0000E+00  0.4000E+01
    -39.369  0.0000E+00  0.4000E+01
    -39.041  0.0000E+00  0.4000E+01
    -38.713  0.0000E+00  0.4000E+01
    -38.384  0.0000E+00  0.4000E+01
    -38.056  0.0000E+00  0.4000E+01
    -37.728  0.0000E+00  0.4000E+01
    -37.399  0.0000E+00  0.4000E+01
    -37.071  0.0000E+00  0.4000E+01
    -36.743  0.0000E+00  0.4000E+01
    -36.414  0.0000E+00  0.4000E+01
    -36.086  0.0000E+00  0.4000E+01
    -35.758  0.0000E+00  0.4000E+01
    -35.430  0.0000E+00  0.4000E+01
    -35.101  0.0000E+00  0.4000E+01
    -34.773  0.0000E+00  0.4000E+01
    -34.445  0.0000E+00  0.4000E+01
    -34.116  0.0000E+00  0.4000E+01
    -33.788  0.0000E+00  0.4000E+01
    -33.460  0.0000E+00  0.4000E+01
    -33.131  0.0000E+00  0.4000E+01
    -32.803  0.0000E+00  0.4000E+01
    -32.475  0.0000E+00  0.4000E+01
    -32.147  0.0000E+00  0.4000E+01
    -31.818  0.0000E+00  0.4000E+01
    -31.490  0.0000E+00  0.4000E+01
    -31.162  0.0000E+00  0.4000E+01
    -30.833  0.0000E+00  0.4000E+01
    -30.505  0.0000E+00  0.4000E+01
    -30.177  0.0000E+00  0.4000E+01
    -29.848  0.0000E+00  0.4000E+01
    -29.520  0.0000E+00  0.4000E+01
    -29.192  0.0000E+00  0.4000E+01
    -28.864  0.0000E+00  0.4000E+01
    -28.535  0.0000E+00  0.4000E+01
    -28.207  0.0000E+00  0.4000E+01
    -27.879  0.0000E+00  0.4000E+01
    -27.550  0.0000E+00  0.4000E+01
    -27.222  0.0000E+00  0.4000E+01
    -26.894  0.0000E+00  0.4000E+01
    -26.566  0.0000E+00  0.4000E+01
    -26.237  0.0000E+00  0.4000E+01
    -25.909  0.0000E+00  0.4000E+01
    -25.581  0.0000E+00  0.4000E+01
    -25.252  0.0000E+00  0.4000E+01
    -24.924  0.0000E+00  0.4000E+01
    -24.596  0.3395E-01  0.4011E+01
    -24.267  0.2175E+02  0.1115E+02
    -23.939  0.1475E+02  0.1600E+02
    -23.611  0.0000E+00  0.1600E+02
    -23.283  0.0000E+00  0.1600E+02
    -22.954  0.0000E+00  0.1600E+02
    -22.626  0.0000E+00  0.1600E+02
    -22.298  0.0000E+00  0.1600E+02
    -21.969  0.0000E+00  0.1600E+02
    -21.641  0.0000E+00  0.1600E+02
    -21.313  0.0000E+00  0.1600E+02
    -20.984  0.0000E+00  0.1600E+02
    -20.656  0.0000E+00  0.1600E+02
    -20.328  0.0000E+00  0.1600E+02
    -20.000  0.0000E+00  0.1600E+02
    -19.671  0.0000E+00  0.1600E+02
    -19.343  0.0000E+00  0.1600E+02
    -19.015  0.0000E+00  0.1600E+02
    -18.686  0.0000E+00  0.1600E+02
    -18.358  0.0000E+00  0.1600E+02
    -18.030  0.0000E+00  0.1600E+02
    -17.701  0.0000E+00  0.1600E+02
    -17.373  0.0000E+00  0.1600E+02
    -17.045  0.0000E+00  0.1600E+02
    -16.717  0.0000E+00  0.1600E+02
    -16.388  0.0000E+00  0.1600E+02
    -16.060  0.0000E+00  0.1600E+02
    -15.732  0.0000E+00  0.1600E+02
    -15.403  0.0000E+00  0.1600E+02
    -15.075  0.0000E+00  0.1600E+02
    -14.747  0.0000E+00  0.1600E+02
    -14.419  0.0000E+00  0.1600E+02
    -14.090  0.0000E+00  0.1600E+02
    -13.762  0.0000E+00  0.1600E+02
    -13.434  0.0000E+00  0.1600E+02
    -13.105  0.0000E+00  0.1600E+02
    -12.777  0.0000E+00  0.1600E+02
    -12.449  0.0000E+00  0.1600E+02
    -12.120  0.0000E+00  0.1600E+02
    -11.792  0.0000E+00  0.1600E+02
    -11.464  0.0000E+00  0.1600E+02
    -11.136  0.0000E+00  0.1600E+02
    -10.807  0.0000E+00  0.1600E+02
    -10.479  0.0000E+00  0.1600E+02
    -10.151  0.0000E+00  0.1600E+02
     -9.822  0.0000E+00  0.1600E+02
     -9.494  0.0000E+00  0.1600E+02
     -9.166  0.0000E+00  0.1600E+02
     -8.837  0.0000E+00  0.1600E+02
     -8.509  0.0000E+00  0.1600E+02
     -8.181  0.0000E+00  0.1600E+02
     -7.853  0.0000E+00  0.1600E+02
     -7.524  0.0000E+00  0.1600E+02
     -7.196  0.0000E+00  0.1600E+02
     -6.868  0.0000E+00  0.1600E+02
     -6.539  0.0000E+00  0.1600E+02
     -6.211  0.0000E+00  0.1600E+02
     -5.883  0.0000E+00  0.1600E+02
     -5.554  0.0000E+00  0.1600E+02
     -5.226  0.0000E+00  0.1600E+02
     -4.898  0.0000E+00  0.1600E+02
     -4.570  0.0000E+00  0.1600E+02
     -4.241  0.0000E+00  0.1600E+02
     -3.913  0.0000E+00  0.1600E+02
     -3.585  0.0000E+00  0.1600E+02
     -3.256  0.0000E+00  0.1600E+02
     -2.928  0.0000E+00  0.1600E+02
     -2.600  0.0000E+00  0.1600E+02
     -2.272  0.0000E+00  0.1600E+02
     -1.943  0.0000E+00  0.1600E+02
     -1.615  0.1700E-07  0.1600E+02
     -1.287  0.3437E-01  0.1601E+02
     -0.958  0.2290E+00  0.1609E+02
     -0.630  0.1509E+00  0.1614E+02
     -0.302  0.2392E+00  0.1622E+02
      0.027  0.4972E+00  0.1638E+02
      0.355  0.2860E+00  0.1647E+02
      0.683  0.4556E+00  0.1662E+02
      1.011  0.7283E+00  0.1686E+02
      1.340  0.8633E+00  0.1715E+02
      1.668  0.3935E+00  0.1727E+02
      1.996  0.1505E+01  0.1777E+02
      2.325  0.1932E+01  0.1840E+02
      2.653  0.1258E+01  0.1882E+02
      2.981  0.2501E+01  0.1964E+02
      3.310  0.2736E+01  0.2054E+02
      3.638  0.3937E+01  0.2183E+02
      3.966  0.3985E+01  0.2314E+02
      4.294  0.1855E+01  0.2375E+02
      4.623  0.1757E+01  0.2433E+02
      4.951  0.5378E+01  0.2609E+02
      5.279  0.4711E+01  0.2764E+02
      5.608  0.5322E+01  0.2939E+02
      5.936  0.2821E+01  0.3032E+02
      6.264  0.2387E+01  0.3110E+02
      6.593  0.2795E+01  0.3202E+02
      6.921  0.2326E+01  0.3278E+02
      7.249  0.5240E+01  0.3450E+02
      7.577  0.6987E+01  0.3680E+02
      7.906  0.3021E+01  0.3779E+02
      8.234  0.2375E+01  0.3858E+02
      8.562  0.7817E+00  0.3883E+02
      8.891  0.1347E+01  0.3928E+02
      9.219  0.1227E+01  0.3968E+02
      9.547  0.5484E+00  0.3986E+02
      9.875  0.2236E+00  0.3993E+02
     10.204  0.3015E+00  0.4003E+02
     10.532  0.3276E+00  0.4014E+02
     10.860  0.1791E+01  0.4073E+02
     11.189  0.1933E+01  0.4136E+02
     11.517  0.1637E+01  0.4190E+02
     11.845  0.2134E+01  0.4260E+02
     12.174  0.1070E+01  0.4295E+02
     12.502  0.1652E+01  0.4350E+02
     12.830  0.1154E+01  0.4387E+02
     13.158  0.1174E+01  0.4426E+02
     13.487  0.1112E+01  0.4462E+02
     13.815  0.8749E+00  0.4491E+02
     14.143  0.1664E+01  0.4546E+02
     14.472  0.1941E+01  0.4610E+02
     14.800  0.1864E+01  0.4671E+02
     15.128  0.1877E+01  0.4732E+02
     15.457  0.2123E+01  0.4802E+02
     15.785  0.1570E+01  0.4854E+02
     16.113  0.1679E+01  0.4909E+02
     16.441  0.1888E+01  0.4971E+02
     16.770  0.1706E+01  0.5027E+02
     17.098  0.1804E+01  0.5086E+02
     17.426  0.1335E+01  0.5130E+02
     17.755  0.1666E+01  0.5185E+02
     18.083  0.2001E+01  0.5251E+02
     18.411  0.1329E+01  0.5294E+02
     18.740  0.1436E+01  0.5342E+02
     19.068  0.6282E+00  0.5362E+02
     19.396  0.1756E+01  0.5420E+02
     19.724  0.2818E+01  0.5513E+02
     20.053  0.1152E+01  0.5550E+02
     20.381  0.6585E+00  0.5572E+02
     20.709  0.7037E+00  0.5595E+02
     21.038  0.2410E+01  0.5674E+02
     21.366  0.6644E+00  0.5696E+02
     21.694  0.1682E+01  0.5751E+02
     22.022  0.2388E+01  0.5830E+02
     22.351  0.2368E+01  0.5908E+02
     22.679  0.1193E+01  0.5947E+02
     23.007  0.1459E+01  0.5995E+02
     23.336  0.2497E+01  0.6077E+02
     23.664  0.2042E+01  0.6144E+02
     23.992  0.1516E+01  0.6194E+02
     24.321  0.1819E+01  0.6253E+02
     24.649  0.2080E+01  0.6322E+02
     24.977  0.2066E+01  0.6389E+02
     25.305  0.1525E+01  0.6440E+02
     25.634  0.1828E+01  0.6500E+02
     25.962  0.1251E+01  0.6541E+02
     26.290  0.2129E+01  0.6611E+02
     26.619  0.1487E+01  0.6659E+02
     26.947  0.1740E+01  0.6717E+02
     27.275  0.1379E+01  0.6762E+02
     27.604  0.2055E+01  0.6829E+02
     27.932  0.2289E+01  0.6905E+02
     28.260  0.2853E+01  0.6998E+02
     28.588  0.1817E+01  0.7058E+02
     28.917  0.2069E+01  0.7126E+02
     29.245  0.2645E+01  0.7213E+02
     29.573  0.8372E+00  0.7241E+02
     29.902  0.2175E+01  0.7312E+02
     30.230  0.1766E+01  0.7370E+02
     30.558  0.2071E+01  0.7438E+02
     30.887  0.2102E+01  0.7507E+02
     31.215  0.2260E+01  0.7581E+02
     31.543  0.2753E+01  0.7672E+02
     31.871  0.2268E+01  0.7746E+02
     32.200  0.2336E+01  0.7823E+02
     32.528  0.2314E+01  0.7899E+02
     32.856  0.1824E+01  0.7959E+02
     33.185  0.1711E+01  0.8015E+02
     33.513  0.1831E+01  0.8076E+02
     33.841  0.1934E+01  0.8139E+02
     34.170  0.2467E+01  0.8220E+02
     34.498  0.2354E+01  0.8298E+02
     34.826  0.1861E+01  0.8359E+02
     35.154  0.1432E+01  0.8406E+02
     35.483  0.2038E+01  0.8473E+02
     35.811  0.1905E+01  0.8536E+02
     36.139  0.2834E+01  0.8629E+02
     36.468  0.2904E+01  0.8724E+02
     36.796  0.3050E+01  0.8825E+02
     37.124  0.2286E+01  0.8900E+02
     37.452  0.2575E+01  0.8984E+02
     37.781  0.2291E+01  0.9060E+02
     38.109  0.2513E+01  0.9142E+02
     38.437  0.2252E+01  0.9216E+02
     38.766  0.2314E+01  0.9292E+02
     39.094  0.1855E+01  0.9353E+02
     39.422  0.1157E+01  0.9391E+02
     39.751  0.1288E+01  0.9434E+02
     40.079  0.2268E+01  0.9508E+02
     40.407  0.9583E+00  0.9539E+02
     40.735  0.1046E+01  0.9574E+02
     41.064  0.2965E+00  0.9584E+02
     41.392  0.1335E+00  0.9588E+02
     41.720  0.4798E-01  0.9590E+02
     42.049  0.8935E-02  0.9590E+02
     42.377  0.2395E+00  0.9598E+02
     42.705  0.4604E-01  0.9599E+02
     43.034  0.0000E+00  0.9599E+02
     43.362  0.0000E+00  0.9599E+02
     43.690  0.8732E-05  0.9599E+02
     44.018  0.2379E-01  0.9600E+02
     44.347  0.0000E+00  0.9600E+02
     44.675  0.0000E+00  0.9600E+02
     45.003  0.0000E+00  0.9600E+02
     45.332  0.0000E+00  0.9600E+02
     45.660  0.0000E+00  0.9600E+02
     45.988  0.0000E+00  0.9600E+02
     46.317  0.0000E+00  0.9600E+02
     46.645  0.0000E+00  0.9600E+02
     46.973  0.0000E+00  0.9600E+02
     47.301  0.0000E+00  0.9600E+02
     47.630  0.0000E+00  0.9600E+02
     47.958  0.0000E+00  0.9600E+02
     48.286  0.0000E+00  0.9600E+02
