       N       E                     dE             d eps       ncg     rms          rms(c)
DAV:   1    -0.124941469919E+02   -0.12494E+02   -0.62232E-06  2400   0.960E-03    0.389E-03
DAV:   2    -0.124941467937E+02    0.19818E-06   -0.10970E-06  2400   0.407E-03
   1 F= -.12494147E+02 E0= -.12491608E+02  d E =-.507795E-02
       N       E                     dE             ncg
DAV:   1    -0.222021845043E+05   -0.37522E+05     4800
DAV:   2    -0.230825596426E+05   -0.88038E+03     6192
DAV:   3    -0.230836727054E+05   -0.11131E+01     5472
DAV:   4    -0.230836743503E+05   -0.16449E-02     8352
DAV:   5    -0.230836743504E+05   -0.61882E-07     5520
       N       E                     dE             ncg
DAV:   1    -0.220394213964E+05   -0.47498E+05     4800
DAV:   2    -0.229895740699E+05   -0.95015E+03     5760
DAV:   3    -0.229910784037E+05   -0.15043E+01     5760
DAV:   4    -0.229910807390E+05   -0.23353E-02     8112
DAV:   5    -0.229910807390E+05   -0.73902E-07     5952
       N       E                     dE             ncg
DAV:   1    -0.194192469917E+05   -0.28355E+05     4512
DAV:   2    -0.202419740247E+05   -0.82273E+03     5472
DAV:   3    -0.202432305789E+05   -0.12566E+01     5280
DAV:   4    -0.202432324941E+05   -0.19151E-02     7920
DAV:   5    -0.202432324941E+05   -0.38694E-07     5472
