Sc                                      
           1
     3.321450    0.000000    0.000000
     1.660725    2.876460    0.000000
     0.000000    0.000000    5.161920
   Sc
     2
Direct configuration=     1
   0.00000000  0.00000000  0.00000000
   0.33333333  0.33333333  0.50000000
