 DBCSR| CPU Multiplication driver                                           BLAS (U)
 DBCSR| Multrec recursion limit                                              512 (U)
 DBCSR| Multiplication stack size                                           1000 (D)
 DBCSR| Maximum elements for images                                    UNLIMITED (U)
 DBCSR| Multiplicative factor virtual images                                   1 (U)
 DBCSR| Use multiplication densification                                       T (D)
 DBCSR| Multiplication size stacks                                             3 (U)
 DBCSR| Use memory pool for CPU allocation                                     F (U)
 DBCSR| Number of 3D layers                                               SINGLE (U)
 DBCSR| Use MPI memory allocation                                              F (U)
 DBCSR| Use RMA algorithm                                                      F (U)
 DBCSR| Use Communication thread                                               T (U)
 DBCSR| Communication thread load                                             45 (D)
 DBCSR| MPI: My process id                                                     0
 DBCSR| MPI: Number of processes                                               8
 DBCSR| OMP: Current number of threads                                        12
 DBCSR| OMP: Max number of threads                                            12
 DBCSR| Split modifier for TAS multiplication algorithm                  1.0E+00 (U)


  **** **** ******  **  PROGRAM STARTED AT               2025-08-04 21:44:43.576
 ***** ** ***  *** **   PROGRAM STARTED ON                          i04r08c02s04
 **    ****   ******    PROGRAM STARTED BY                               di38fab
 ***** **    ** ** **   PROGRAM PROCESS ID                                314219
  **** **  *******  **  PROGRAM STARTED IN /hppfs/scratch/04/di38fab/09_GTH/Delt
                                           a_Set/Sc/aug-DZVP-MOLOPT-GTH-tier-1/8
                                           x8x8

 CP2K| version string:                 CP2K version 2025.1 (Development Version)
 CP2K| source code revision number:                                  git:3130539
 CP2K| cp2kflags: omp libint fftw3 libxc parallel scalapack max_contr=4         
 CP2K| is freely available from                            https://www.cp2k.org/
 CP2K| Program compiled at                         Tue Jun  3 16:14:32 CEST 2025
 CP2K| Program compiled on                                               login01
 CP2K| Program compiled for                                        Supermuc-foss
 CP2K| Data directory path                  /hppfs/work/pn36zo/di38fab/cp2k/data
 CP2K| Input file name                                                    GW.inp

 GLOBAL| Force Environment number                                              1
 GLOBAL| Basis set file name            /hppfs/scratch/04/di38fab/09_GTH/BASIS_A
 GLOBAL| Potential file name            /hppfs/work/pn36zo/di38fab/cp2k/data/GTH
 GLOBAL| MM Potential file name                                     MM_POTENTIAL
 GLOBAL| Coordinate file name                                             Sc.cif
 GLOBAL| Method name                                                        CP2K
 GLOBAL| Project name                                                       WSe2
 GLOBAL| Run type                                                         ENERGY
 GLOBAL| FFT library                                                       FFTW3
 GLOBAL| Diagonalization library                                       ScaLAPACK
 GLOBAL| Cholesky decomposition library                                ScaLAPACK
 GLOBAL| DGEMM library                                                      BLAS
 GLOBAL| Orthonormality check for eigenvectors                          DISABLED
 GLOBAL| Matrix multiplication library                                 ScaLAPACK
 GLOBAL| All-to-all communication in single precision                          F
 GLOBAL| FFTs using library dependent lengths                                  F
 GLOBAL| Grid backend                                                       AUTO
 GLOBAL| Global print level                                               MEDIUM
 GLOBAL| MPI I/O enabled                                                       T
 GLOBAL| Total number of message passing processes                             8
 GLOBAL| Number of threads for this process                                   12
 GLOBAL| This output is from process                                           0
 GLOBAL| OpenMP stack size per thread (OMP_STACKSIZE)                    default
 GLOBAL| CPU model name             Intel(R) Xeon(R) Platinum 8174 CPU @ 3.10GHz

 MEMORY| system memory details [Kb]
 MEMORY|                        rank 0           min           max       average
 MEMORY| MemTotal             98436664      98436664      98436664      98436664
 MEMORY| MemFree              84605040      84605040      85465708      85035374
 MEMORY| Buffers                     0             0             0             0
 MEMORY| Cached                2411664       2377128       2411664       2394396
 MEMORY| Slab                  1287388       1180612       1287388       1234000
 MEMORY| SReclaimable           285288        265368        285288        275328
 MEMORY| MemLikelyFree        87301992      87301992      88108204      87705098


 *** Fundamental physical constants (SI units) ***

 *** Literature: B. J. Mohr and B. N. Taylor,
 ***             CODATA recommended values of the fundamental physical
 ***             constants: 2006, Web Version 5.1
 ***             http://physics.nist.gov/constants

 Speed of light in vacuum [m/s]                             2.99792458000000E+08
 Magnetic constant or permeability of vacuum [N/A**2]       1.25663706143592E-06
 Electric constant or permittivity of vacuum [F/m]          8.85418781762039E-12
 Planck constant (h) [J*s]                                  6.62606896000000E-34
 Planck constant (h-bar) [J*s]                              1.05457162825177E-34
 Elementary charge [C]                                      1.60217648700000E-19
 Electron mass [kg]                                         9.10938215000000E-31
 Electron g factor [ ]                                     -2.00231930436220E+00
 Proton mass [kg]                                           1.67262163700000E-27
 Fine-structure constant                                    7.29735253760000E-03
 Rydberg constant [1/m]                                     1.09737315685270E+07
 Avogadro constant [1/mol]                                  6.02214179000000E+23
 Boltzmann constant [J/K]                                   1.38065040000000E-23
 Atomic mass unit [kg]                                      1.66053878200000E-27
 Bohr radius [m]                                            5.29177208590000E-11

 *** Conversion factors ***

 [u] -> [a.u.]                                              1.82288848426455E+03
 [Angstrom] -> [Bohr] = [a.u.]                              1.88972613288564E+00
 [a.u.] = [Bohr] -> [Angstrom]                              5.29177208590000E-01
 [a.u.] -> [s]                                              2.41888432650478E-17
 [a.u.] -> [fs]                                             2.41888432650478E-02
 [a.u.] -> [J]                                              4.35974393937059E-18
 [a.u.] -> [N]                                              8.23872205491840E-08
 [a.u.] -> [K]                                              3.15774647902944E+05
 [a.u.] -> [kJ/mol]                                         2.62549961709828E+03
 [a.u.] -> [kcal/mol]                                       6.27509468713739E+02
 [a.u.] -> [Pa]                                             2.94210107994716E+13
 [a.u.] -> [bar]                                            2.94210107994716E+08
 [a.u.] -> [atm]                                            2.90362800883016E+08
 [a.u.] -> [eV]                                             2.72113838565563E+01
 [a.u.] -> [Hz]                                             6.57968392072181E+15
 [a.u.] -> [1/cm] (wave numbers)                            2.19474631370540E+05
 [a.u./Bohr**2] -> [1/cm]                                   5.14048714338585E+03
 

 CELL_TOP| Volume [angstrom^3]:                                        49.317078
 CELL_TOP| Vector a [angstrom     3.321     0.000     0.000   |a| =     3.321450
 CELL_TOP| Vector b [angstrom     1.661     2.876     0.000   |b| =     3.321450
 CELL_TOP| Vector c [angstrom     0.000     0.000     5.162   |c| =     5.161920
 CELL_TOP| Angle (b,c), alpha [degree]:                                90.000000
 CELL_TOP| Angle (a,c), beta  [degree]:                                90.000000
 CELL_TOP| Angle (a,b), gamma [degree]:                                60.000000
 CELL_TOP| Numerically orthorhombic:                                          NO
 CELL_TOP| Periodicity                                                       XYZ

 CELL_CIF| Volume [angstrom^3]:                                        49.317078
 CELL_CIF| Vector a [angstrom     3.321     0.000     0.000   |a| =     3.321450
 CELL_CIF| Vector b [angstrom     1.661     2.876     0.000   |b| =     3.321450
 CELL_CIF| Vector c [angstrom     0.000     0.000     5.162   |c| =     5.161920
 CELL_CIF| Angle (b,c), alpha [degree]:                                90.000000
 CELL_CIF| Angle (a,c), beta  [degree]:                                90.000000
 CELL_CIF| Angle (a,b), gamma [degree]:                                60.000000
 CELL_CIF| Numerically orthorhombic:                                          NO
 CELL_CIF| Periodicity                                                       XYZ

 GENERATE|  Preliminary Number of Bonds generated:                             0
 GENERATE|  Achieved consistency in connectivity generation.

 CELL| Volume [angstrom^3]:                                            49.317078
 CELL| Vector a [angstrom]:       3.321     0.000     0.000   |a| =     3.321450
 CELL| Vector b [angstrom]:       1.661     2.876     0.000   |b| =     3.321450
 CELL| Vector c [angstrom]:       0.000     0.000     5.162   |c| =     5.161920
 CELL| Angle (b,c), alpha [degree]:                                    90.000000
 CELL| Angle (a,c), beta  [degree]:                                    90.000000
 CELL| Angle (a,b), gamma [degree]:                                    60.000000
 CELL| Numerically orthorhombic:                                              NO
 CELL| Periodicity                                                           XYZ

 CELL_REF| Volume [angstrom^3]:                                        49.317078
 CELL_REF| Vector a [angstrom     3.321     0.000     0.000   |a| =     3.321450
 CELL_REF| Vector b [angstrom     1.661     2.876     0.000   |b| =     3.321450
 CELL_REF| Vector c [angstrom     0.000     0.000     5.162   |c| =     5.161920
 CELL_REF| Angle (b,c), alpha [degree]:                                90.000000
 CELL_REF| Angle (a,c), beta  [degree]:                                90.000000
 CELL_REF| Angle (a,b), gamma [degree]:                                60.000000
 CELL_REF| Numerically orthorhombic:                                          NO
 CELL_REF| Periodicity                                                       XYZ

 *** WARNING in cryssym.F:180 :: Symmetry library SPGLIB not available ***


 *******************************************************************************
                                    Kpoints
 *******************************************************************************
 BRILLOUIN| K-point scheme                                        Monkhorst-Pack
 BRILLOUIN| K-Point grid                                             8    8    8
 BRILLOUIN| Accuracy in Symmetry determination                      0.100000E-05
 BRILLOUIN| K-Point point group symmetrization                               OFF
 BRILLOUIN| Wavefunction type                                            COMPLEX
 BRILLOUIN| List of Kpoints [2 Pi/Bohr]                                      256
 BRILLOUIN| Number           Weight            X              Y              Z
 BRILLOUIN|     1           0.00391       -0.43750       -0.43750       -0.43750
 BRILLOUIN|     2           0.00391       -0.43750       -0.43750       -0.31250
 BRILLOUIN|     3           0.00391       -0.43750       -0.43750       -0.18750
 BRILLOUIN|     4           0.00391       -0.43750       -0.43750       -0.06250
 BRILLOUIN|     5           0.00391       -0.43750       -0.43750        0.06250
 BRILLOUIN|     6           0.00391       -0.43750       -0.43750        0.18750
 BRILLOUIN|     7           0.00391       -0.43750       -0.43750        0.31250
 BRILLOUIN|     8           0.00391       -0.43750       -0.43750        0.43750
 BRILLOUIN|     9           0.00391       -0.43750       -0.31250       -0.43750
 BRILLOUIN|    10           0.00391       -0.43750       -0.31250       -0.31250
 BRILLOUIN|    11           0.00391       -0.43750       -0.31250       -0.18750
 BRILLOUIN|    12           0.00391       -0.43750       -0.31250       -0.06250
 BRILLOUIN|    13           0.00391       -0.43750       -0.31250        0.06250
 BRILLOUIN|    14           0.00391       -0.43750       -0.31250        0.18750
 BRILLOUIN|    15           0.00391       -0.43750       -0.31250        0.31250
 BRILLOUIN|    16           0.00391       -0.43750       -0.31250        0.43750
 BRILLOUIN|    17           0.00391       -0.43750       -0.18750       -0.43750
 BRILLOUIN|    18           0.00391       -0.43750       -0.18750       -0.31250
 BRILLOUIN|    19           0.00391       -0.43750       -0.18750       -0.18750
 BRILLOUIN|    20           0.00391       -0.43750       -0.18750       -0.06250
 BRILLOUIN|    21           0.00391       -0.43750       -0.18750        0.06250
 BRILLOUIN|    22           0.00391       -0.43750       -0.18750        0.18750
 BRILLOUIN|    23           0.00391       -0.43750       -0.18750        0.31250
 BRILLOUIN|    24           0.00391       -0.43750       -0.18750        0.43750
 BRILLOUIN|    25           0.00391       -0.43750       -0.06250       -0.43750
 BRILLOUIN|    26           0.00391       -0.43750       -0.06250       -0.31250
 BRILLOUIN|    27           0.00391       -0.43750       -0.06250       -0.18750
 BRILLOUIN|    28           0.00391       -0.43750       -0.06250       -0.06250
 BRILLOUIN|    29           0.00391       -0.43750       -0.06250        0.06250
 BRILLOUIN|    30           0.00391       -0.43750       -0.06250        0.18750
 BRILLOUIN|    31           0.00391       -0.43750       -0.06250        0.31250
 BRILLOUIN|    32           0.00391       -0.43750       -0.06250        0.43750
 BRILLOUIN|    33           0.00391       -0.43750        0.06250       -0.43750
 BRILLOUIN|    34           0.00391       -0.43750        0.06250       -0.31250
 BRILLOUIN|    35           0.00391       -0.43750        0.06250       -0.18750
 BRILLOUIN|    36           0.00391       -0.43750        0.06250       -0.06250
 BRILLOUIN|    37           0.00391       -0.43750        0.06250        0.06250
 BRILLOUIN|    38           0.00391       -0.43750        0.06250        0.18750
 BRILLOUIN|    39           0.00391       -0.43750        0.06250        0.31250
 BRILLOUIN|    40           0.00391       -0.43750        0.06250        0.43750
 BRILLOUIN|    41           0.00391       -0.43750        0.18750       -0.43750
 BRILLOUIN|    42           0.00391       -0.43750        0.18750       -0.31250
 BRILLOUIN|    43           0.00391       -0.43750        0.18750       -0.18750
 BRILLOUIN|    44           0.00391       -0.43750        0.18750       -0.06250
 BRILLOUIN|    45           0.00391       -0.43750        0.18750        0.06250
 BRILLOUIN|    46           0.00391       -0.43750        0.18750        0.18750
 BRILLOUIN|    47           0.00391       -0.43750        0.18750        0.31250
 BRILLOUIN|    48           0.00391       -0.43750        0.18750        0.43750
 BRILLOUIN|    49           0.00391       -0.43750        0.31250       -0.43750
 BRILLOUIN|    50           0.00391       -0.43750        0.31250       -0.31250
 BRILLOUIN|    51           0.00391       -0.43750        0.31250       -0.18750
 BRILLOUIN|    52           0.00391       -0.43750        0.31250       -0.06250
 BRILLOUIN|    53           0.00391       -0.43750        0.31250        0.06250
 BRILLOUIN|    54           0.00391       -0.43750        0.31250        0.18750
 BRILLOUIN|    55           0.00391       -0.43750        0.31250        0.31250
 BRILLOUIN|    56           0.00391       -0.43750        0.31250        0.43750
 BRILLOUIN|    57           0.00391       -0.43750        0.43750       -0.43750
 BRILLOUIN|    58           0.00391       -0.43750        0.43750       -0.31250
 BRILLOUIN|    59           0.00391       -0.43750        0.43750       -0.18750
 BRILLOUIN|    60           0.00391       -0.43750        0.43750       -0.06250
 BRILLOUIN|    61           0.00391       -0.43750        0.43750        0.06250
 BRILLOUIN|    62           0.00391       -0.43750        0.43750        0.18750
 BRILLOUIN|    63           0.00391       -0.43750        0.43750        0.31250
 BRILLOUIN|    64           0.00391       -0.43750        0.43750        0.43750
 BRILLOUIN|    65           0.00391       -0.31250       -0.43750       -0.43750
 BRILLOUIN|    66           0.00391       -0.31250       -0.43750       -0.31250
 BRILLOUIN|    67           0.00391       -0.31250       -0.43750       -0.18750
 BRILLOUIN|    68           0.00391       -0.31250       -0.43750       -0.06250
 BRILLOUIN|    69           0.00391       -0.31250       -0.43750        0.06250
 BRILLOUIN|    70           0.00391       -0.31250       -0.43750        0.18750
 BRILLOUIN|    71           0.00391       -0.31250       -0.43750        0.31250
 BRILLOUIN|    72           0.00391       -0.31250       -0.43750        0.43750
 BRILLOUIN|    73           0.00391       -0.31250       -0.31250       -0.43750
 BRILLOUIN|    74           0.00391       -0.31250       -0.31250       -0.31250
 BRILLOUIN|    75           0.00391       -0.31250       -0.31250       -0.18750
 BRILLOUIN|    76           0.00391       -0.31250       -0.31250       -0.06250
 BRILLOUIN|    77           0.00391       -0.31250       -0.31250        0.06250
 BRILLOUIN|    78           0.00391       -0.31250       -0.31250        0.18750
 BRILLOUIN|    79           0.00391       -0.31250       -0.31250        0.31250
 BRILLOUIN|    80           0.00391       -0.31250       -0.31250        0.43750
 BRILLOUIN|    81           0.00391       -0.31250       -0.18750       -0.43750
 BRILLOUIN|    82           0.00391       -0.31250       -0.18750       -0.31250
 BRILLOUIN|    83           0.00391       -0.31250       -0.18750       -0.18750
 BRILLOUIN|    84           0.00391       -0.31250       -0.18750       -0.06250
 BRILLOUIN|    85           0.00391       -0.31250       -0.18750        0.06250
 BRILLOUIN|    86           0.00391       -0.31250       -0.18750        0.18750
 BRILLOUIN|    87           0.00391       -0.31250       -0.18750        0.31250
 BRILLOUIN|    88           0.00391       -0.31250       -0.18750        0.43750
 BRILLOUIN|    89           0.00391       -0.31250       -0.06250       -0.43750
 BRILLOUIN|    90           0.00391       -0.31250       -0.06250       -0.31250
 BRILLOUIN|    91           0.00391       -0.31250       -0.06250       -0.18750
 BRILLOUIN|    92           0.00391       -0.31250       -0.06250       -0.06250
 BRILLOUIN|    93           0.00391       -0.31250       -0.06250        0.06250
 BRILLOUIN|    94           0.00391       -0.31250       -0.06250        0.18750
 BRILLOUIN|    95           0.00391       -0.31250       -0.06250        0.31250
 BRILLOUIN|    96           0.00391       -0.31250       -0.06250        0.43750
 BRILLOUIN|    97           0.00391       -0.31250        0.06250       -0.43750
 BRILLOUIN|    98           0.00391       -0.31250        0.06250       -0.31250
 BRILLOUIN|    99           0.00391       -0.31250        0.06250       -0.18750
 BRILLOUIN|   100           0.00391       -0.31250        0.06250       -0.06250
 BRILLOUIN|   101           0.00391       -0.31250        0.06250        0.06250
 BRILLOUIN|   102           0.00391       -0.31250        0.06250        0.18750
 BRILLOUIN|   103           0.00391       -0.31250        0.06250        0.31250
 BRILLOUIN|   104           0.00391       -0.31250        0.06250        0.43750
 BRILLOUIN|   105           0.00391       -0.31250        0.18750       -0.43750
 BRILLOUIN|   106           0.00391       -0.31250        0.18750       -0.31250
 BRILLOUIN|   107           0.00391       -0.31250        0.18750       -0.18750
 BRILLOUIN|   108           0.00391       -0.31250        0.18750       -0.06250
 BRILLOUIN|   109           0.00391       -0.31250        0.18750        0.06250
 BRILLOUIN|   110           0.00391       -0.31250        0.18750        0.18750
 BRILLOUIN|   111           0.00391       -0.31250        0.18750        0.31250
 BRILLOUIN|   112           0.00391       -0.31250        0.18750        0.43750
 BRILLOUIN|   113           0.00391       -0.31250        0.31250       -0.43750
 BRILLOUIN|   114           0.00391       -0.31250        0.31250       -0.31250
 BRILLOUIN|   115           0.00391       -0.31250        0.31250       -0.18750
 BRILLOUIN|   116           0.00391       -0.31250        0.31250       -0.06250
 BRILLOUIN|   117           0.00391       -0.31250        0.31250        0.06250
 BRILLOUIN|   118           0.00391       -0.31250        0.31250        0.18750
 BRILLOUIN|   119           0.00391       -0.31250        0.31250        0.31250
 BRILLOUIN|   120           0.00391       -0.31250        0.31250        0.43750
 BRILLOUIN|   121           0.00391       -0.31250        0.43750       -0.43750
 BRILLOUIN|   122           0.00391       -0.31250        0.43750       -0.31250
 BRILLOUIN|   123           0.00391       -0.31250        0.43750       -0.18750
 BRILLOUIN|   124           0.00391       -0.31250        0.43750       -0.06250
 BRILLOUIN|   125           0.00391       -0.31250        0.43750        0.06250
 BRILLOUIN|   126           0.00391       -0.31250        0.43750        0.18750
 BRILLOUIN|   127           0.00391       -0.31250        0.43750        0.31250
 BRILLOUIN|   128           0.00391       -0.31250        0.43750        0.43750
 BRILLOUIN|   129           0.00391       -0.18750       -0.43750       -0.43750
 BRILLOUIN|   130           0.00391       -0.18750       -0.43750       -0.31250
 BRILLOUIN|   131           0.00391       -0.18750       -0.43750       -0.18750
 BRILLOUIN|   132           0.00391       -0.18750       -0.43750       -0.06250
 BRILLOUIN|   133           0.00391       -0.18750       -0.43750        0.06250
 BRILLOUIN|   134           0.00391       -0.18750       -0.43750        0.18750
 BRILLOUIN|   135           0.00391       -0.18750       -0.43750        0.31250
 BRILLOUIN|   136           0.00391       -0.18750       -0.43750        0.43750
 BRILLOUIN|   137           0.00391       -0.18750       -0.31250       -0.43750
 BRILLOUIN|   138           0.00391       -0.18750       -0.31250       -0.31250
 BRILLOUIN|   139           0.00391       -0.18750       -0.31250       -0.18750
 BRILLOUIN|   140           0.00391       -0.18750       -0.31250       -0.06250
 BRILLOUIN|   141           0.00391       -0.18750       -0.31250        0.06250
 BRILLOUIN|   142           0.00391       -0.18750       -0.31250        0.18750
 BRILLOUIN|   143           0.00391       -0.18750       -0.31250        0.31250
 BRILLOUIN|   144           0.00391       -0.18750       -0.31250        0.43750
 BRILLOUIN|   145           0.00391       -0.18750       -0.18750       -0.43750
 BRILLOUIN|   146           0.00391       -0.18750       -0.18750       -0.31250
 BRILLOUIN|   147           0.00391       -0.18750       -0.18750       -0.18750
 BRILLOUIN|   148           0.00391       -0.18750       -0.18750       -0.06250
 BRILLOUIN|   149           0.00391       -0.18750       -0.18750        0.06250
 BRILLOUIN|   150           0.00391       -0.18750       -0.18750        0.18750
 BRILLOUIN|   151           0.00391       -0.18750       -0.18750        0.31250
 BRILLOUIN|   152           0.00391       -0.18750       -0.18750        0.43750
 BRILLOUIN|   153           0.00391       -0.18750       -0.06250       -0.43750
 BRILLOUIN|   154           0.00391       -0.18750       -0.06250       -0.31250
 BRILLOUIN|   155           0.00391       -0.18750       -0.06250       -0.18750
 BRILLOUIN|   156           0.00391       -0.18750       -0.06250       -0.06250
 BRILLOUIN|   157           0.00391       -0.18750       -0.06250        0.06250
 BRILLOUIN|   158           0.00391       -0.18750       -0.06250        0.18750
 BRILLOUIN|   159           0.00391       -0.18750       -0.06250        0.31250
 BRILLOUIN|   160           0.00391       -0.18750       -0.06250        0.43750
 BRILLOUIN|   161           0.00391       -0.18750        0.06250       -0.43750
 BRILLOUIN|   162           0.00391       -0.18750        0.06250       -0.31250
 BRILLOUIN|   163           0.00391       -0.18750        0.06250       -0.18750
 BRILLOUIN|   164           0.00391       -0.18750        0.06250       -0.06250
 BRILLOUIN|   165           0.00391       -0.18750        0.06250        0.06250
 BRILLOUIN|   166           0.00391       -0.18750        0.06250        0.18750
 BRILLOUIN|   167           0.00391       -0.18750        0.06250        0.31250
 BRILLOUIN|   168           0.00391       -0.18750        0.06250        0.43750
 BRILLOUIN|   169           0.00391       -0.18750        0.18750       -0.43750
 BRILLOUIN|   170           0.00391       -0.18750        0.18750       -0.31250
 BRILLOUIN|   171           0.00391       -0.18750        0.18750       -0.18750
 BRILLOUIN|   172           0.00391       -0.18750        0.18750       -0.06250
 BRILLOUIN|   173           0.00391       -0.18750        0.18750        0.06250
 BRILLOUIN|   174           0.00391       -0.18750        0.18750        0.18750
 BRILLOUIN|   175           0.00391       -0.18750        0.18750        0.31250
 BRILLOUIN|   176           0.00391       -0.18750        0.18750        0.43750
 BRILLOUIN|   177           0.00391       -0.18750        0.31250       -0.43750
 BRILLOUIN|   178           0.00391       -0.18750        0.31250       -0.31250
 BRILLOUIN|   179           0.00391       -0.18750        0.31250       -0.18750
 BRILLOUIN|   180           0.00391       -0.18750        0.31250       -0.06250
 BRILLOUIN|   181           0.00391       -0.18750        0.31250        0.06250
 BRILLOUIN|   182           0.00391       -0.18750        0.31250        0.18750
 BRILLOUIN|   183           0.00391       -0.18750        0.31250        0.31250
 BRILLOUIN|   184           0.00391       -0.18750        0.31250        0.43750
 BRILLOUIN|   185           0.00391       -0.18750        0.43750       -0.43750
 BRILLOUIN|   186           0.00391       -0.18750        0.43750       -0.31250
 BRILLOUIN|   187           0.00391       -0.18750        0.43750       -0.18750
 BRILLOUIN|   188           0.00391       -0.18750        0.43750       -0.06250
 BRILLOUIN|   189           0.00391       -0.18750        0.43750        0.06250
 BRILLOUIN|   190           0.00391       -0.18750        0.43750        0.18750
 BRILLOUIN|   191           0.00391       -0.18750        0.43750        0.31250
 BRILLOUIN|   192           0.00391       -0.18750        0.43750        0.43750
 BRILLOUIN|   193           0.00391       -0.06250       -0.43750       -0.43750
 BRILLOUIN|   194           0.00391       -0.06250       -0.43750       -0.31250
 BRILLOUIN|   195           0.00391       -0.06250       -0.43750       -0.18750
 BRILLOUIN|   196           0.00391       -0.06250       -0.43750       -0.06250
 BRILLOUIN|   197           0.00391       -0.06250       -0.43750        0.06250
 BRILLOUIN|   198           0.00391       -0.06250       -0.43750        0.18750
 BRILLOUIN|   199           0.00391       -0.06250       -0.43750        0.31250
 BRILLOUIN|   200           0.00391       -0.06250       -0.43750        0.43750
 BRILLOUIN|   201           0.00391       -0.06250       -0.31250       -0.43750
 BRILLOUIN|   202           0.00391       -0.06250       -0.31250       -0.31250
 BRILLOUIN|   203           0.00391       -0.06250       -0.31250       -0.18750
 BRILLOUIN|   204           0.00391       -0.06250       -0.31250       -0.06250
 BRILLOUIN|   205           0.00391       -0.06250       -0.31250        0.06250
 BRILLOUIN|   206           0.00391       -0.06250       -0.31250        0.18750
 BRILLOUIN|   207           0.00391       -0.06250       -0.31250        0.31250
 BRILLOUIN|   208           0.00391       -0.06250       -0.31250        0.43750
 BRILLOUIN|   209           0.00391       -0.06250       -0.18750       -0.43750
 BRILLOUIN|   210           0.00391       -0.06250       -0.18750       -0.31250
 BRILLOUIN|   211           0.00391       -0.06250       -0.18750       -0.18750
 BRILLOUIN|   212           0.00391       -0.06250       -0.18750       -0.06250
 BRILLOUIN|   213           0.00391       -0.06250       -0.18750        0.06250
 BRILLOUIN|   214           0.00391       -0.06250       -0.18750        0.18750
 BRILLOUIN|   215           0.00391       -0.06250       -0.18750        0.31250
 BRILLOUIN|   216           0.00391       -0.06250       -0.18750        0.43750
 BRILLOUIN|   217           0.00391       -0.06250       -0.06250       -0.43750
 BRILLOUIN|   218           0.00391       -0.06250       -0.06250       -0.31250
 BRILLOUIN|   219           0.00391       -0.06250       -0.06250       -0.18750
 BRILLOUIN|   220           0.00391       -0.06250       -0.06250       -0.06250
 BRILLOUIN|   221           0.00391       -0.06250       -0.06250        0.06250
 BRILLOUIN|   222           0.00391       -0.06250       -0.06250        0.18750
 BRILLOUIN|   223           0.00391       -0.06250       -0.06250        0.31250
 BRILLOUIN|   224           0.00391       -0.06250       -0.06250        0.43750
 BRILLOUIN|   225           0.00391       -0.06250        0.06250       -0.43750
 BRILLOUIN|   226           0.00391       -0.06250        0.06250       -0.31250
 BRILLOUIN|   227           0.00391       -0.06250        0.06250       -0.18750
 BRILLOUIN|   228           0.00391       -0.06250        0.06250       -0.06250
 BRILLOUIN|   229           0.00391       -0.06250        0.06250        0.06250
 BRILLOUIN|   230           0.00391       -0.06250        0.06250        0.18750
 BRILLOUIN|   231           0.00391       -0.06250        0.06250        0.31250
 BRILLOUIN|   232           0.00391       -0.06250        0.06250        0.43750
 BRILLOUIN|   233           0.00391       -0.06250        0.18750       -0.43750
 BRILLOUIN|   234           0.00391       -0.06250        0.18750       -0.31250
 BRILLOUIN|   235           0.00391       -0.06250        0.18750       -0.18750
 BRILLOUIN|   236           0.00391       -0.06250        0.18750       -0.06250
 BRILLOUIN|   237           0.00391       -0.06250        0.18750        0.06250
 BRILLOUIN|   238           0.00391       -0.06250        0.18750        0.18750
 BRILLOUIN|   239           0.00391       -0.06250        0.18750        0.31250
 BRILLOUIN|   240           0.00391       -0.06250        0.18750        0.43750
 BRILLOUIN|   241           0.00391       -0.06250        0.31250       -0.43750
 BRILLOUIN|   242           0.00391       -0.06250        0.31250       -0.31250
 BRILLOUIN|   243           0.00391       -0.06250        0.31250       -0.18750
 BRILLOUIN|   244           0.00391       -0.06250        0.31250       -0.06250
 BRILLOUIN|   245           0.00391       -0.06250        0.31250        0.06250
 BRILLOUIN|   246           0.00391       -0.06250        0.31250        0.18750
 BRILLOUIN|   247           0.00391       -0.06250        0.31250        0.31250
 BRILLOUIN|   248           0.00391       -0.06250        0.31250        0.43750
 BRILLOUIN|   249           0.00391       -0.06250        0.43750       -0.43750
 BRILLOUIN|   250           0.00391       -0.06250        0.43750       -0.31250
 BRILLOUIN|   251           0.00391       -0.06250        0.43750       -0.18750
 BRILLOUIN|   252           0.00391       -0.06250        0.43750       -0.06250
 BRILLOUIN|   253           0.00391       -0.06250        0.43750        0.06250
 BRILLOUIN|   254           0.00391       -0.06250        0.43750        0.18750
 BRILLOUIN|   255           0.00391       -0.06250        0.43750        0.31250
 BRILLOUIN|   256           0.00391       -0.06250        0.43750        0.43750
 *******************************************************************************

 *******************************************************************************
 *******************************************************************************
 **                                                                           **
 **     #####                         ##              ##                      **
 **    ##   ##            ##          ##              ##                      **
 **   ##     ##                       ##            ######                    **
 **   ##     ##  ##   ##  ##   #####  ##  ##   ####   ##    #####    #####    **
 **   ##     ##  ##   ##  ##  ##      ## ##   ##      ##   ##   ##  ##   ##   **
 **   ##  ## ##  ##   ##  ##  ##      ####     ###    ##   ######   ######    **
 **    ##  ###   ##   ##  ##  ##      ## ##      ##   ##   ##       ##        **
 **     #######   #####   ##   #####  ##  ##  ####    ##    #####   ##        **
 **           ##                                                    ##        **
 **                                                                           **
 **                                                ... make the atoms dance   **
 **                                                                           **
 **            Copyright (C) by CP2K developers group (2000-2025)             **
 **                      J. Chem. Phys. 152, 194103 (2020)                    **
 **                                                                           **
 *******************************************************************************

 DFT| Spin restricted Kohn-Sham (RKS) calculation                            RKS
 DFT| Multiplicity                                                             1
 DFT| Number of spin states                                                    1
 DFT| Charge                                                                   0
 DFT| Self-interaction correction (SIC)                                       NO
 DFT| Cutoffs: density                                              1.000000E-10
 DFT|          gradient                                             1.000000E-10
 DFT|          tau                                                  1.000000E-10
 DFT|          cutoff_smoothing_range                               0.000000E+00
 DFT| XC density smoothing                                                  NONE
 DFT| XC derivatives                                                          PW

 FUNCTIONAL| PBE:
 FUNCTIONAL| J.P.Perdew, K.Burke, M.Ernzerhof, Phys. Rev. Letter, vol. 77, n 18,
 FUNCTIONAL|  pp. 3865-3868, (1996) {spin unpolarized}                          


 QS| Method:                                                                 GPW
 QS| Density plane wave grid type                        NON-SPHERICAL FULLSPACE
 QS| Number of grid levels:                                                    4
 QS| Density cutoff [a.u.]:                                                500.0
 QS| Multi grid cutoff [a.u.]: 1) grid level                               500.0
 QS|                           2) grid level                               166.7
 QS|                           3) grid level                                55.6
 QS|                           4) grid level                                18.5
 QS| Grid level progression factor:                                          3.0
 QS| Relative density cutoff [a.u.]:                                        50.0
 QS| Interaction thresholds: eps_pgf_orb:                                1.0E-16
 QS|                         eps_filter_matrix:                          0.0E+00
 QS|                         eps_core_charge:                            1.0E-18
 QS|                         eps_rho_gspace:                             1.0E-16
 QS|                         eps_rho_rspace:                             1.0E-16
 QS|                         eps_gvg_rspace:                             1.0E-08
 QS|                         eps_ppl:                                    1.0E-02
 QS|                         eps_ppnl:                                   1.0E-10


 ATOMIC KIND INFORMATION

  1. Atomic kind: Sc                                    Number of atoms:       2

     Orbital Basis Set                                aug-DZVP-MOLOPT-GTH-tier-1

       Number of orbital shell sets:                                           1
       Number of orbital shells:                                              12
       Number of primitive Cartesian functions:                                7
       Number of Cartesian basis functions:                                   51
       Number of spherical basis functions:                                   42
       Norm type:                                                              2

       Normalised Cartesian orbitals:

                        Set   Shell   Orbital            Exponent    Coefficient

                          1       1    2s                0.054429      -0.005635
                                                         0.103624       0.000000
                                                         0.197284      -0.012379
                                                         0.543348      -0.303114
                                                         1.358433      -0.512005
                                                         3.531908       0.868410
                                                         7.596359      -0.016851

                          1       2    3s                0.054429       0.084972
                                                         0.103624       0.000000
                                                         0.197284       0.015351
                                                         0.543348      -0.208719
                                                         1.358433      -0.202907
                                                         3.531908       0.284553
                                                         7.596359      -0.001965

                          1       3    4s                0.054429       0.097527
                                                         0.103624       0.000000
                                                         0.197284      -0.530628
                                                         0.543348       0.707676
                                                         1.358433       0.041429
                                                         3.531908       0.383159
                                                         7.596359      -0.006397

                          1       4    5s                0.054429      -0.118176
                                                         0.103624       0.160769
                                                         0.197284      -0.247756
                                                         0.543348       0.265458
                                                         1.358433       0.100692
                                                         3.531908       0.206168
                                                         7.596359       0.000000

                          1       5    3px               0.054429      -0.000164
                                                         0.103624       0.000000
                                                         0.197284       0.018536
                                                         0.543348       0.317972
                                                         1.358433       1.053291
                                                         3.531908       0.529526
                                                         7.596359      -1.787750
                          1       5    3py               0.054429      -0.000164
                                                         0.103624       0.000000
                                                         0.197284       0.018536
                                                         0.543348       0.317972
                                                         1.358433       1.053291
                                                         3.531908       0.529526
                                                         7.596359      -1.787750
                          1       5    3pz               0.054429      -0.000164
                                                         0.103624       0.000000
                                                         0.197284       0.018536
                                                         0.543348       0.317972
                                                         1.358433       1.053291
                                                         3.531908       0.529526
                                                         7.596359      -1.787750

                          1       6    4px               0.054429       0.025484
                                                         0.103624       0.000000
                                                         0.197284       0.099705
                                                         0.543348      -0.133763
                                                         1.358433      -0.315349
                                                         3.531908      -0.142069
                                                         7.596359       0.320642
                          1       6    4py               0.054429       0.025484
                                                         0.103624       0.000000
                                                         0.197284       0.099705
                                                         0.543348      -0.133763
                                                         1.358433      -0.315349
                                                         3.531908      -0.142069
                                                         7.596359       0.320642
                          1       6    4pz               0.054429       0.025484
                                                         0.103624       0.000000
                                                         0.197284       0.099705
                                                         0.543348      -0.133763
                                                         1.358433      -0.315349
                                                         3.531908      -0.142069
                                                         7.596359       0.320642

                          1       7    5px               0.054429       0.024287
                                                         0.103624       0.039504
                                                         0.197284      -0.091070
                                                         0.543348      -0.459460
                                                         1.358433       0.098309
                                                         3.531908       0.324570
                                                         7.596359       0.000000
                          1       7    5py               0.054429       0.024287
                                                         0.103624       0.039504
                                                         0.197284      -0.091070
                                                         0.543348      -0.459460
                                                         1.358433       0.098309
                                                         3.531908       0.324570
                                                         7.596359       0.000000
                          1       7    5pz               0.054429       0.024287
                                                         0.103624       0.039504
                                                         0.197284      -0.091070
                                                         0.543348      -0.459460
                                                         1.358433       0.098309
                                                         3.531908       0.324570
                                                         7.596359       0.000000

                          1       8    4dx2              0.054429       0.001375
                                                         0.103624       0.000000
                                                         0.197284       0.037691
                                                         0.543348       0.201563
                                                         1.358433       0.830096
                                                         3.531908       2.533352
                                                         7.596359       2.265495
                          1       8    4dxy              0.054429       0.002381
                                                         0.103624       0.000000
                                                         0.197284       0.065283
                                                         0.543348       0.349118
                                                         1.358433       1.437768
                                                         3.531908       4.387895
                                                         7.596359       3.923952
                          1       8    4dxz              0.054429       0.002381
                                                         0.103624       0.000000
                                                         0.197284       0.065283
                                                         0.543348       0.349118
                                                         1.358433       1.437768
                                                         3.531908       4.387895
                                                         7.596359       3.923952
                          1       8    4dy2              0.054429       0.001375
                                                         0.103624       0.000000
                                                         0.197284       0.037691
                                                         0.543348       0.201563
                                                         1.358433       0.830096
                                                         3.531908       2.533352
                                                         7.596359       2.265495
                          1       8    4dyz              0.054429       0.002381
                                                         0.103624       0.000000
                                                         0.197284       0.065283
                                                         0.543348       0.349118
                                                         1.358433       1.437768
                                                         3.531908       4.387895
                                                         7.596359       3.923952
                          1       8    4dz2              0.054429       0.001375
                                                         0.103624       0.000000
                                                         0.197284       0.037691
                                                         0.543348       0.201563
                                                         1.358433       0.830096
                                                         3.531908       2.533352
                                                         7.596359       2.265495

                          1       9    5dx2              0.054429       0.008386
                                                         0.103624       0.000000
                                                         0.197284       0.027200
                                                         0.543348      -0.159540
                                                         1.358433      -0.394558
                                                         3.531908      -1.205421
                                                         7.596359      -1.255584
                          1       9    5dxy              0.054429       0.014525
                                                         0.103624       0.000000
                                                         0.197284       0.047112
                                                         0.543348      -0.276332
                                                         1.358433      -0.683394
                                                         3.531908      -2.087850
                                                         7.596359      -2.174735
                          1       9    5dxz              0.054429       0.014525
                                                         0.103624       0.000000
                                                         0.197284       0.047112
                                                         0.543348      -0.276332
                                                         1.358433      -0.683394
                                                         3.531908      -2.087850
                                                         7.596359      -2.174735
                          1       9    5dy2              0.054429       0.008386
                                                         0.103624       0.000000
                                                         0.197284       0.027200
                                                         0.543348      -0.159540
                                                         1.358433      -0.394558
                                                         3.531908      -1.205421
                                                         7.596359      -1.255584
                          1       9    5dyz              0.054429       0.014525
                                                         0.103624       0.000000
                                                         0.197284       0.047112
                                                         0.543348      -0.276332
                                                         1.358433      -0.683394
                                                         3.531908      -2.087850
                                                         7.596359      -2.174735
                          1       9    5dz2              0.054429       0.008386
                                                         0.103624       0.000000
                                                         0.197284       0.027200
                                                         0.543348      -0.159540
                                                         1.358433      -0.394558
                                                         3.531908      -1.205421
                                                         7.596359      -1.255584

                          1      10    6dx2              0.054429       0.005035
                                                         0.103624       0.003752
                                                         0.197284       0.011334
                                                         0.543348       0.107367
                                                         1.358433       0.817834
                                                         3.531908       4.353764
                                                         7.596359       0.000000
                          1      10    6dxy              0.054429       0.008721
                                                         0.103624       0.006498
                                                         0.197284       0.019632
                                                         0.543348       0.185964
                                                         1.358433       1.416531
                                                         3.531908       7.540941
                                                         7.596359       0.000000
                          1      10    6dxz              0.054429       0.008721
                                                         0.103624       0.006498
                                                         0.197284       0.019632
                                                         0.543348       0.185964
                                                         1.358433       1.416531
                                                         3.531908       7.540941
                                                         7.596359       0.000000
                          1      10    6dy2              0.054429       0.005035
                                                         0.103624       0.003752
                                                         0.197284       0.011334
                                                         0.543348       0.107367
                                                         1.358433       0.817834
                                                         3.531908       4.353764
                                                         7.596359       0.000000
                          1      10    6dyz              0.054429       0.008721
                                                         0.103624       0.006498
                                                         0.197284       0.019632
                                                         0.543348       0.185964
                                                         1.358433       1.416531
                                                         3.531908       7.540941
                                                         7.596359       0.000000
                          1      10    6dz2              0.054429       0.005035
                                                         0.103624       0.003752
                                                         0.197284       0.011334
                                                         0.543348       0.107367
                                                         1.358433       0.817834
                                                         3.531908       4.353764
                                                         7.596359       0.000000

                          1      11    5fx3              0.054429      -0.000052
                                                         0.103624       0.000000
                                                         0.197284      -0.021884
                                                         0.543348      -0.190236
                                                         1.358433      -0.188342
                                                         3.531908      -0.376938
                                                         7.596359       0.578990
                          1      11    5fx2y             0.054429      -0.000115
                                                         0.103624       0.000000
                                                         0.197284      -0.048935
                                                         0.543348      -0.425380
                                                         1.358433      -0.421145
                                                         3.531908      -0.842859
                                                         7.596359       1.294660
                          1      11    5fx2z             0.054429      -0.000115
                                                         0.103624       0.000000
                                                         0.197284      -0.048935
                                                         0.543348      -0.425380
                                                         1.358433      -0.421145
                                                         3.531908      -0.842859
                                                         7.596359       1.294660
                          1      11    5fxy2             0.054429      -0.000115
                                                         0.103624       0.000000
                                                         0.197284      -0.048935
                                                         0.543348      -0.425380
                                                         1.358433      -0.421145
                                                         3.531908      -0.842859
                                                         7.596359       1.294660
                          1      11    5fxyz             0.054429      -0.000200
                                                         0.103624       0.000000
                                                         0.197284      -0.084758
                                                         0.543348      -0.736779
                                                         1.358433      -0.729445
                                                         3.531908      -1.459874
                                                         7.596359       2.242417
                          1      11    5fxz2             0.054429      -0.000115
                                                         0.103624       0.000000
                                                         0.197284      -0.048935
                                                         0.543348      -0.425380
                                                         1.358433      -0.421145
                                                         3.531908      -0.842859
                                                         7.596359       1.294660
                          1      11    5fy3              0.054429      -0.000052
                                                         0.103624       0.000000
                                                         0.197284      -0.021884
                                                         0.543348      -0.190236
                                                         1.358433      -0.188342
                                                         3.531908      -0.376938
                                                         7.596359       0.578990
                          1      11    5fy2z             0.054429      -0.000115
                                                         0.103624       0.000000
                                                         0.197284      -0.048935
                                                         0.543348      -0.425380
                                                         1.358433      -0.421145
                                                         3.531908      -0.842859
                                                         7.596359       1.294660
                          1      11    5fyz2             0.054429      -0.000115
                                                         0.103624       0.000000
                                                         0.197284      -0.048935
                                                         0.543348      -0.425380
                                                         1.358433      -0.421145
                                                         3.531908      -0.842859
                                                         7.596359       1.294660
                          1      11    5fz3              0.054429      -0.000052
                                                         0.103624       0.000000
                                                         0.197284      -0.021884
                                                         0.543348      -0.190236
                                                         1.358433      -0.188342
                                                         3.531908      -0.376938
                                                         7.596359       0.578990

                          1      12    6fx3              0.054429      -0.000403
                                                         0.103624      -0.000786
                                                         0.197284      -0.026522
                                                         0.543348       0.120696
                                                         1.358433       0.948645
                                                         3.531908       8.143085
                                                         7.596359       0.000000
                          1      12    6fx2y             0.054429      -0.000901
                                                         0.103624      -0.001757
                                                         0.197284      -0.059304
                                                         0.543348       0.269885
                                                         1.358433       2.121235
                                                         3.531908      18.208490
                                                         7.596359       0.000000
                          1      12    6fx2z             0.054429      -0.000901
                                                         0.103624      -0.001757
                                                         0.197284      -0.059304
                                                         0.543348       0.269885
                                                         1.358433       2.121235
                                                         3.531908      18.208490
                                                         7.596359       0.000000
                          1      12    6fxy2             0.054429      -0.000901
                                                         0.103624      -0.001757
                                                         0.197284      -0.059304
                                                         0.543348       0.269885
                                                         1.358433       2.121235
                                                         3.531908      18.208490
                                                         7.596359       0.000000
                          1      12    6fxyz             0.054429      -0.001560
                                                         0.103624      -0.003044
                                                         0.197284      -0.102718
                                                         0.543348       0.467454
                                                         1.358433       3.674087
                                                         3.531908      31.538031
                                                         7.596359       0.000000
                          1      12    6fxz2             0.054429      -0.000901
                                                         0.103624      -0.001757
                                                         0.197284      -0.059304
                                                         0.543348       0.269885
                                                         1.358433       2.121235
                                                         3.531908      18.208490
                                                         7.596359       0.000000
                          1      12    6fy3              0.054429      -0.000403
                                                         0.103624      -0.000786
                                                         0.197284      -0.026522
                                                         0.543348       0.120696
                                                         1.358433       0.948645
                                                         3.531908       8.143085
                                                         7.596359       0.000000
                          1      12    6fy2z             0.054429      -0.000901
                                                         0.103624      -0.001757
                                                         0.197284      -0.059304
                                                         0.543348       0.269885
                                                         1.358433       2.121235
                                                         3.531908      18.208490
                                                         7.596359       0.000000
                          1      12    6fyz2             0.054429      -0.000901
                                                         0.103624      -0.001757
                                                         0.197284      -0.059304
                                                         0.543348       0.269885
                                                         1.358433       2.121235
                                                         3.531908      18.208490
                                                         7.596359       0.000000
                          1      12    6fz3              0.054429      -0.000403
                                                         0.103624      -0.000786
                                                         0.197284      -0.026522
                                                         0.543348       0.120696
                                                         1.358433       0.948645
                                                         3.531908       8.143085
                                                         7.596359       0.000000

       Atomic covalent radius [Angstrom]:                                  1.440

       Atomic van der Waals radius [Angstrom]:                             2.110

     GTH Potential information for                                       GTH-PBE

       Description:                       Goedecker-Teter-Hutter pseudopotential
                                           Goedecker et al., PRB 54, 1703 (1996)
                                          Hartwigsen et al., PRB 58, 3641 (1998)
                                                      Krack, TCA 114, 145 (2005)

       Gaussian exponent of the core charge distribution:               3.373250
       Electronic configuration (s p d ...):                           4   6   1

       Parameters of the local part of the GTH pseudopotential:

                          rloc        C1          C2          C3          C4
                        0.385000    8.214900   -0.557059

       Parameters of the non-local part of the GTH (SOC) pseudopotential:

                   l      r(l)      h(i,j,l)
                                    k(i,j,l)
                   0    0.363611    2.646533    3.021084
                                    3.021084   -3.900203
                   1    0.243898   -2.634823    7.992137
                                    7.992137   -9.456424
                                    0.201966   -0.057993
                                   -0.057993    0.068619
                   2    0.253206   -8.165948
                                    0.004801


 MOLECULE KIND INFORMATION


 All atoms are their own molecule, skipping detailed information


 TOTAL NUMBERS AND MAXIMUM NUMBERS

  Total number of            - Atomic kinds:                                   1
                             - Atoms:                                          2
                             - Shell sets:                                     2
                             - Shells:                                        24
                             - Primitive Cartesian functions:                 14
                             - Cartesian basis functions:                    102
                             - Spherical basis functions:                     84

  Maximum angular momentum of- Orbital basis functions:                        3
                             - Local part of the GTH pseudopotential:          2
                             - Non-local part of the GTH pseudopotential:      3


 MODULE QUICKSTEP: ATOMIC COORDINATES IN ANGSTROM

   Atom Kind Element         X             Y             Z       Z(eff)     Mass
      1    1 Sc   21      0.000000      0.000000      0.000000  11.0000  44.9559
      2    1 Sc   21      1.660708      0.958810      2.580960  11.0000  44.9559



 SCF PARAMETERS         Density guess:                                    ATOMIC
                        --------------------------------------------------------
                        max_scf:                                             500
                        max_scf_history:                                       0
                        max_diis:                                              4
                        --------------------------------------------------------
                        eps_scf:                                        1.00E-09
                        eps_scf_history:                                0.00E+00
                        eps_diis:                                       1.00E-01
                        eps_eigval:                                     1.00E-05
                        --------------------------------------------------------
                        level_shift [a.u.]:                             0.000000
                        added MOs                                        73    0
                        --------------------------------------------------------
                        Mixing method:                            BROYDEN_MIXING
                                                charge density mixing in g-space
                        --------------------------------------------------------
                        Smear method:                                FERMI_DIRAC
                        Electronic temperature [K]:                        300.0
                        Electronic temperature [a.u.]:                  9.50E-04
                        Accuracy threshold:                             1.00E-10
                        --------------------------------------------------------
                        No outer SCF

 PW_GRID| Information for grid number                                          1
 PW_GRID| Grid distributed over                                     8 processors
 PW_GRID| Real space group dimensions                                     8    1
 PW_GRID| the grid is blocked:                                                NO
 PW_GRID| Cutoff [a.u.]                                                    500.0
 PW_GRID| spherical cutoff:                                                   NO
 PW_GRID|   Bounds   1            -32      31                Points:          64
 PW_GRID|   Bounds   2            -32      31                Points:          64
 PW_GRID|   Bounds   3            -50      49                Points:         100
 PW_GRID| Volume element (a.u.^3)  0.8125E-03     Volume (a.u.^3)       332.8081
 PW_GRID| Grid span                                                    FULLSPACE
 PW_GRID|   Distribution                         Average         Max         Min
 PW_GRID|   G-Vectors                            51200.0       51200       51200
 PW_GRID|   G-Rays                                 800.0         800         800
 PW_GRID|   Real Space Points                    51200.0       51200       51200

 PW_GRID| Information for grid number                                          2
 PW_GRID| Number of the reference grid                                         1
 PW_GRID| Grid distributed over                                     8 processors
 PW_GRID| Real space group dimensions                                     8    1
 PW_GRID| the grid is blocked:                                                NO
 PW_GRID| Cutoff [a.u.]                                                    166.7
 PW_GRID| spherical cutoff:                                                   NO
 PW_GRID|   Bounds   1            -20      19                Points:          40
 PW_GRID|   Bounds   2            -20      19                Points:          40
 PW_GRID|   Bounds   3            -30      29                Points:          60
 PW_GRID| Volume element (a.u.^3)  0.3467E-02     Volume (a.u.^3)       332.8081
 PW_GRID| Grid span                                                    FULLSPACE
 PW_GRID|   Distribution                         Average         Max         Min
 PW_GRID|   G-Vectors                            12000.0       12120       11880
 PW_GRID|   G-Rays                                 300.0         303         297
 PW_GRID|   Real Space Points                    12000.0       12000       12000

 PW_GRID| Information for grid number                                          3
 PW_GRID| Number of the reference grid                                         1
 PW_GRID| Grid distributed over                                     8 processors
 PW_GRID| Real space group dimensions                                     8    1
 PW_GRID| the grid is blocked:                                                NO
 PW_GRID| Cutoff [a.u.]                                                     55.6
 PW_GRID| spherical cutoff:                                                   NO
 PW_GRID|   Bounds   1            -12      11                Points:          24
 PW_GRID|   Bounds   2            -12      11                Points:          24
 PW_GRID|   Bounds   3            -18      17                Points:          36
 PW_GRID| Volume element (a.u.^3)  0.1605E-01     Volume (a.u.^3)       332.8081
 PW_GRID| Grid span                                                    FULLSPACE
 PW_GRID|   Distribution                         Average         Max         Min
 PW_GRID|   G-Vectors                             2592.0        2640        2520
 PW_GRID|   G-Rays                                 108.0         110         105
 PW_GRID|   Real Space Points                     2592.0        2592        2592

 PW_GRID| Information for grid number                                          4
 PW_GRID| Number of the reference grid                                         1
 PW_GRID| Grid distributed over                                     8 processors
 PW_GRID| Real space group dimensions                                     8    1
 PW_GRID| the grid is blocked:                                                NO
 PW_GRID| Cutoff [a.u.]                                                     18.5
 PW_GRID| spherical cutoff:                                                   NO
 PW_GRID|   Bounds   1             -7       7                Points:          15
 PW_GRID|   Bounds   2             -7       7                Points:          15
 PW_GRID|   Bounds   3            -10       9                Points:          20
 PW_GRID| Volume element (a.u.^3)  0.7396E-01     Volume (a.u.^3)       332.8081
 PW_GRID| Grid span                                                    FULLSPACE
 PW_GRID|   Distribution                         Average         Max         Min
 PW_GRID|   G-Vectors                              562.5         585         555
 PW_GRID|   G-Rays                                  37.5          39          37
 PW_GRID|   Real Space Points                      562.5         600         300

 POISSON| Solver                                                        PERIODIC
 POISSON| Periodicity                                                        XYZ

 RS_GRID| Information for grid number                                          1
 RS_GRID|   Bounds   1            -32      31                Points:          64
 RS_GRID|   Bounds   2            -32      31                Points:          64
 RS_GRID|   Bounds   3            -50      49                Points:         100
 RS_GRID| Real space fully replicated
 RS_GRID| Group size                                                           1

 RS_GRID| Information for grid number                                          2
 RS_GRID|   Bounds   1            -20      19                Points:          40
 RS_GRID|   Bounds   2            -20      19                Points:          40
 RS_GRID|   Bounds   3            -30      29                Points:          60
 RS_GRID| Real space fully replicated
 RS_GRID| Group size                                                           1

 RS_GRID| Information for grid number                                          3
 RS_GRID|   Bounds   1            -12      11                Points:          24
 RS_GRID|   Bounds   2            -12      11                Points:          24
 RS_GRID|   Bounds   3            -18      17                Points:          36
 RS_GRID| Real space fully replicated
 RS_GRID| Group size                                                           1

 RS_GRID| Information for grid number                                          4
 RS_GRID|   Bounds   1             -7       7                Points:          15
 RS_GRID|   Bounds   2             -7       7                Points:          15
 RS_GRID|   Bounds   3            -10       9                Points:          20
 RS_GRID| Real space fully replicated
 RS_GRID| Group size                                                           1

 Number of electrons:                                                         22
 Number of occupied orbitals:                                                 11
 Number of molecular orbitals:                                                84

 Number of orbital functions:                                                 84
 Number of independent orbital functions:                                     84

 Extrapolation method: initial_guess

 Atomic guess: The first density matrix is obtained in terms of atomic orbitals
               and electronic configurations assigned to each atomic kind

 Guess for atomic kind: Sc

 Electronic structure
    Total number of core electrons                                         10.00
    Total number of valence electrons                                      11.00
    Total number of electrons                                              21.00
    Multiplicity                                                   not specified
    S   [  2.00  2.00] 2.00  2.00
    P   [  6.00] 6.00
    D      1.00


 *******************************************************************************
                  Iteration          Convergence                     Energy [au]
 *******************************************************************************
                          1         1.63523                     -45.972783602341
                          2         1.02366                     -46.111940322139
[...]
 flops max/rank                      0.000000E+00       0.0%      0.0%      0.0%
 matmuls inhomo. stacks                         0       0.0%      0.0%      0.0%
 matmuls total                                  0       0.0%      0.0%      0.0%
 number of processed stacks                     0       0.0%      0.0%      0.0%
 average stack size                                     0.0       0.0       0.0
 marketing flops                     0.000000E+00
 -------------------------------------------------------------------------------
 -                                                                             -
 -                      DBCSR MESSAGE PASSING PERFORMANCE                      -
 -                                                                             -
 -------------------------------------------------------------------------------
 ROUTINE             CALLS      AVE VOLUME [Bytes]
 MP_Bcast                1                     12.
 MP_Allreduce           19                     21.
 MP_Alltoall        586128                  11127.
 -------------------------------------------------------------------------------

 -------------------------------------------------------------------------------
 -                                                                             -
 -                                DBM STATISTICS                               -
 -                                                                             -
 -------------------------------------------------------------------------------
    M  x    N  x    K                                          COUNT     PERCENT
 -------------------------------------------------------------------------------

 -------------------------------------------------------------------------------
 -                                                                             -
 -                                GRID STATISTICS                              -
 -                                                                             -
 -------------------------------------------------------------------------------
 LP    KERNEL             BACKEND                              COUNT     PERCENT
 6     collocate general  CPU                                 731172      50.98%
 6     integrate general  CPU                                 703050      49.02%
 0     collocate general  CPU                                      4       0.00%
 0     integrate general  CPU                                      2       0.00%
 -------------------------------------------------------------------------------

 MEMORY| Estimated peak process memory [MiB]                                 860

 -------------------------------------------------------------------------------
 ----                             MULTIGRID INFO                            ----
 -------------------------------------------------------------------------------
 count for grid        1:         118358          cutoff [a.u.]          500.00
 count for grid        2:          46454          cutoff [a.u.]          166.67
 count for grid        3:          44578          cutoff [a.u.]           55.56
 count for grid        4:          62062          cutoff [a.u.]           18.52
 total gridlevel count  :         271452

 -------------------------------------------------------------------------------
 -                                                                             -
 -                         MESSAGE PASSING PERFORMANCE                         -
 -                                                                             -
 -------------------------------------------------------------------------------

 ROUTINE             CALLS      AVE VOLUME [Bytes]
 MP_Group                6
 MP_Bcast           234138                   1538.
 MP_Allreduce       161256                     37.
 MP_Sync                 4
 MP_Alltoall           455                2284375.
 MP_SendRecv           742                 138007.
 MP_ISendRecv          707                 135525.
 MP_Wait            161623
 MP_comm_split           4
 MP_ISend           171404                   1617.
 MP_IRecv           273536                   1016.
 -------------------------------------------------------------------------------


 -------------------------------------------------------------------------------
 -                                                                             -
 -                           R E F E R E N C E S                               -
 -                                                                             -
 -------------------------------------------------------------------------------
 
 CP2K version 2025.1 (Development Version), the CP2K developers group (2025).
 CP2K is freely available from https://www.cp2k.org/ .
 
 T. D. Kuehne, M. Iannuzzi, M. Del Ben, V. V. Rybkin, P. Seewald, F. Stein, T. 
 Laino, R. Z. Khaliullin, O. Schuett, F. Schiffmann, D. Golze, J. Wilhelm, S. 
 Chulkov, M. H. Bani-Hashemian, V. Weber, U. Borstnik, M. Taillefumier, A. S. 
 Jakobovits, A. Lazzaro, H. Pabst, T. Mueller, R. Schade, M. Guidon, S. 
 Andermatt, N. Holmberg, G. K. Schenter, A. Hehn, A. Bussy, F. Belleflamme, G. 
 Tabacchi, A. Gloess, M. Lass, I. Bethune, C. J. Mundy, C. Plessl, M. Watkins, 
 J. VandeVondele, M. Krack, J. Hutter.
 J. Chem. Phys. 152, 194103 (2020).
 CP2K: An electronic structure and molecular dynamics software package - 
 Quickstep: Efficient and accurate electronic structure calculations.
 https://doi.org/10.1063/5.0007045

 O. Schuett, P. Messmer, J. Hutter, J. VandeVondele.
 Electronic Structure Calculations on Graphics Processing Units, 173-190 (2016).
 GPU-Accelerated Sparse Matrix-Matrix Multiplication for Linear Scaling Density 
 Functional Theory.
 https://doi.org/10.1002/9781118670712.ch8

 J. Hutter, M. Iannuzzi, F. Schiffmann, J. VandeVondele.
 WIREs Comput Mol Sci. 4, 15-25 (2014).
 CP2K: atomistic simulations of condensed matter systems.
 https://doi.org/10.1002/wcms.1159

 U. Borstnik, J. VandeVondele, V. Weber, J. Hutter.
 Parallel Comput. 40, 47-58 (2014).
 Sparse matrix multiplication: The distributed block-compressed sparse row 
 library.
 https://doi.org/10.1016/j.parco.2014.03.012

 J. VandeVondele, J. Hutter.
 J. Chem. Phys. 127, 114105 (2007).
 Gaussian basis sets for accurate calculations on molecular systems in gas and 
 condensed phases.
 https://doi.org/10.1063/1.2770708

 J. VandeVondele, M. Krack, F. Mohamed, M. Parrinello, T. Chassaing, J. Hutter.
 Comput. Phys. Commun. 167, 103-128 (2005).
 QUICKSTEP: Fast and accurate density functional calculations using a mixed 
 Gaussian and plane waves approach.
 https://doi.org/10.1016/j.cpc.2004.12.014

 M. Krack.
 Theor. Chem. Acc. 114, 145-152 (2005).
 Pseudopotentials for H to Kr optimized for gradient-corrected 
 exchange-correlation functionals.
 https://doi.org/10.1007/s00214-005-0655-y

 M. Frigo, S. G. Johnson.
 Proc. IEEE 93, 216-231 (2005).
 The design and implementation of FFTW3.
 https://doi.org/10.1109/JPROC.2004.840301

 C. Hartwigsen, S. Goedecker, J. Hutter.
 Phys. Rev. B 58, 3641-3662 (1998).
 Relativistic separable dual-space Gaussian pseudopotentials from H to Rn.
 https://doi.org/10.1103/PhysRevB.58.3641

 G. Lippert, J. Hutter, M. Parrinello.
 Mol. Phys. 92, 477-487 (1997).
 A hybrid Gaussian and plane wave density functional scheme.
 https://doi.org/10.1080/002689797170220

 S. Goedecker, M. Teter, J. Hutter.
 Phys. Rev. B 54, 1703-1710 (1996).
 Separable dual-space Gaussian pseudopotentials.
 https://doi.org/10.1103/PhysRevB.54.1703

 J. P. Perdew, K. Burke, M. Ernzerhof.
 Phys. Rev. Lett. 77, 3865-3868 (1996).
 Generalized gradient approximation made simple.
 https://doi.org/10.1103/PhysRevLett.77.3865


 -------------------------------------------------------------------------------
 -                                                                             -
 -                                T I M I N G                                  -
 -                                                                             -
 -------------------------------------------------------------------------------
 SUBROUTINE                       CALLS  ASD         SELF TIME        TOTAL TIME
                                MAXIMUM       AVERAGE  MAXIMUM  AVERAGE  MAXIMUM
 CP2K                                 1  1.0    0.019    0.022  619.975  619.975
 qs_energies                          1  2.0    0.022    0.127  619.699  619.759
 scf_env_do_scf                       1  3.0    0.000    0.000  605.814  605.814
 scf_env_do_scf_inner_loop           25  4.0    0.046    0.051  605.813  605.814
 do_general_diag_kp                  26  5.9    0.145    0.169  568.228  575.107
 qs_scf_new_mos_kp                   25  5.0    0.000    0.000  559.712  566.578
 mp_alltoall_i22                  99920  8.7  443.460  545.103  443.460  545.103
 dbcsr_desymmetrize_deep          56656  7.4    0.883    1.207  314.577  386.025
 rskp_transform                   13096  6.9   64.205  341.652   64.205  341.652
 dbcsr_complete_redistribute      43264  8.2    1.504    1.832  147.568  177.782
 kpoint_density_transform            25  7.0    0.079    0.097  170.298  170.808
 copy_fm_to_dbcsr                 12800  8.0    0.074    0.087  137.923  167.885
 transform_dmat                    6400  8.0   30.065  163.314   30.065  163.314
 qs_ks_update_qs_env                 25  5.0    0.000    0.000   10.173   40.353
 rebuild_ks_matrix                   25  6.0    0.000    0.000    8.101   38.281
 qs_ks_build_kohn_sham_matrix        25  7.0    0.088    0.092    8.101   38.281
 sum_up_and_integrate                25  8.0    0.000    0.000    7.219   37.333
 integrate_v_rspace                  25  9.0    0.082    0.438    7.218   37.332
 grid_integrate_task_list            25 10.0    6.903   36.725    6.903   36.725
 transfer_rs2pw                     106  8.0    0.001    0.002   26.897   33.108
 transfer_rs2pw_500                  28  8.9    0.043    0.047   26.863   33.074
 mp_sendrecv_dv                     742 10.0   26.842   33.052   26.842   33.052
 qs_rho_update_rho_low               26  5.0    0.000    0.000   31.259   31.279
 calculate_rho_elec                  26  6.0    0.020    0.051   31.258   31.278
 density_rs2pw                       26  7.0    0.001    0.001   25.382   31.201
 grid_collocate_task_list            26  7.0    5.855   30.919    5.855   30.919
 copy_dbcsr_to_fm                 30464  6.8    0.306    0.351   17.414   17.639
 cp_fm_start_copy_general         38992  7.3    0.731    0.983    4.471    4.581
 dbcsr_finalize                  134400  8.0    0.629    0.744    4.189    4.558
 mp_alltoall_d11v                299760  9.3    3.768    4.045    3.768    4.045
 cp_cfm_geeig_canon                 837  6.9    0.008    0.008    3.724    3.746
 write_kpoints_restart               25  5.0    0.019    0.024    3.467    3.467
 cp_cfm_heevd                      1674  7.9    0.002    0.002    3.388    3.412
 cp_cfm_heevd_base                 1674  8.9    3.386    3.409    3.386    3.409
 dbcsr_create_new                265115  7.8    2.306    3.083    2.485    3.282
 cp_dbcsr_alloc_block_from_nbl    15104  5.0    0.490    2.464    0.575    2.845
 dbcsr_merge_all                  43264 10.2    1.711    2.019    2.553    2.839
 dbcsr_dot                       106801  8.0    0.547    1.172    2.641    2.794
 hybrid_alltoall_any              56656  8.4    0.225    0.245    2.456    2.629
 qs_energies_init_hamiltonians        1  3.0    0.000    0.000    2.627    2.627
 mp_cart_sub                      60930  8.8    2.582    2.604    2.582    2.604
 mp_sum_d                        107419  9.0    2.177    2.571    2.177    2.571
 mp_allgather_i                   77984  8.3    2.272    2.434    2.272    2.434
 build_core_hamiltonian_matrix        1  4.0    0.008    0.008    0.501    2.100
 evaluate_core_matrix_traces         25  6.0    0.000    0.000    2.071    2.071
 calculate_ptrace_kp                 50  7.0    0.080    0.082    2.071    2.071
 init_scf_run                         1  3.0    0.000    0.000    1.912    2.063
 scf_env_initial_rho_setup            1  4.0    0.000    0.000    1.912    2.063
 qs_env_update_s_mstruct              1  4.0    0.000    0.000    1.720    2.028
 calculate_rho_core                   1  5.0    0.001    0.001    1.609    2.006
 mp_alltoall_i11v                186448  8.9    1.897    1.963    1.897    1.963
 self_consistency_check              25  5.0    0.076    0.078    1.750    1.867
 cp_sm_mix                        53400  6.0    0.196    0.530    1.571    1.726
 mp_cart_create                   30471  8.8    1.516    1.583    1.516    1.583
 mp_max_d                         53402  7.0    1.248    1.483    1.248    1.483
 cp_fm_write_unformatted           4272  6.0    0.898    1.283    0.917    1.368
 copy_fm_to_dbcsr_bc              12800  9.0    0.171    0.189    0.678    1.335
 dbcsr_copy                      121736  6.7    0.671    0.780    1.042    1.309
 mp_bcast_iv                     155992  8.3    0.953    1.095    0.953    1.095
 dbcsr_work_create                99920  8.7    0.586    0.631    0.958    1.068
 dbcsr_iterator_start            435315  8.7    0.806    0.819    0.921    0.950
 mixing_allocate                      1  3.0    0.012    0.012    0.195    0.840
 calculate_first_density_matrix       1  5.0    0.001    0.001    0.660    0.811
 calculate_atomic_block_dm            1  6.0    0.001    0.001    0.655    0.807
 kpoint_set_mo_occupation            25  7.0    0.708    0.714    0.751    0.786
 dbcsr_work_destroy_all           99920  9.7    0.474    0.482    0.736    0.748
 tree_to_linear_d                 43264 11.2    0.654    0.734    0.654    0.734
 dbcsr_data_new                 1093644  9.6    0.603    0.734    0.603    0.734
 copy_dbcsr_to_fm_bc              30464  7.8    0.312    0.320    0.716    0.722
 dbcsr_set                       189173  7.3    0.167    0.178    0.315    0.702
 dbcsr_data_release             1642271 10.0    0.584    0.624    0.584    0.624
 dbcsr_iterator_stop             435315  8.7    0.502    0.509    0.595    0.606
 fft_wrap_pw1pw2                    455 10.0    0.004    0.004    0.514    0.537
 dbcsr_zero                      189173  8.3    0.148    0.524    0.148    0.524
 dbcsr_destroy                   158315  7.7    0.254    0.277    0.458    0.499
 build_overlap_matrix_low             1  5.0    0.028    0.088    0.116    0.492
 fft_wrap_pw1pw2_500                302 11.3    0.026    0.027    0.467    0.491
 build_kinetic_matrix_low             1  5.0    0.027    0.086    0.114    0.490
 calculate_ecore_overlap              1  4.0    0.000    0.000    0.382    0.471
 dbcsr_reserve_blocks             27904  8.3    0.138    0.442    0.153    0.466
 fft3d_ps                           455 12.0    0.146    0.151    0.436    0.460
 cp_fm_finish_copy_general        16148  7.8    0.373    0.394    0.397    0.430
 mp_sum_iv                           24  5.3    0.349    0.428    0.349    0.428
 qs_scf_ensure_work_matrices          1  3.0    0.000    0.000    0.349    0.428
 qs_env_rebuild_rho                   1  5.0    0.000    0.000    0.096    0.418
 qs_rho_rebuild                       1  6.0    0.006    0.006    0.096    0.418
 kpoint_density_matrices             25  7.0    0.015    0.016    0.342    0.389
 parallel_gemm_fm                  3200  8.0    0.003    0.003    0.319    0.365
 parallel_gemm_fm_gemm             3200  9.0    0.003    0.003    0.317    0.362
 cp_fm_gemm                        3200 10.0    0.314    0.359    0.314    0.359
 mp_bcast_im                      77984  8.3    0.308    0.355    0.308    0.355
 build_core_ppnl                      1  5.0    0.083    0.342    0.083    0.342
 dbcsr_copy_into_existing         14936  9.4    0.114    0.252    0.197    0.340
 quick_finalize                   56656  9.4    0.143    0.186    0.238    0.319
 cp_cfm_gemm                       2511  7.9    0.305    0.314    0.305    0.314
 build_core_ppl                       1  5.0    0.060    0.306    0.060    0.306
 qs_vxc_create                       25  8.0    0.000    0.000    0.298    0.298
 xc_vxc_pw_create                    25  9.0    0.011    0.011    0.298    0.298
 mp_waitall_1                    161623  8.3    0.141    0.284    0.141    0.284
 mp_alltoall_z22v                   455 14.0    0.255    0.282    0.255    0.282
 potential_pw2rs                     25 10.0    0.001    0.001    0.234    0.256
 mp_comm_free                     91435  8.8    0.212    0.235    0.212    0.235
 gspace_mixing                       24  5.0    0.009    0.009    0.232    0.232
 xc_pw_derive                       150 11.0    0.000    0.000    0.193    0.195
 broyden_mixing                      24  6.0    0.183    0.185    0.188    0.188
 yz_to_x                            205 12.8    0.011    0.012    0.162    0.184
 xc_rho_set_and_dset_create          25 10.0    0.008    0.009    0.154    0.156
 mp_sum_dv                          320  3.3    0.077    0.149    0.077    0.149
 dbcsr_iterator_seek             435315  9.7    0.114    0.146    0.114    0.146
 dbcsr_make_index_exist          265115  8.8    0.118    0.134    0.118    0.134
 xc_pw_divergence                    25 10.0    0.000    0.000    0.131    0.132
 dbcsr_sort_indices              127824 10.8    0.071    0.130    0.071    0.130
 x_to_yz                            250 13.2    0.021    0.022    0.125    0.129
 restraint_control                    1  2.0    0.000    0.000    0.061    0.120
 mp_sum_i                             4  2.8    0.061    0.120    0.061    0.120
 transfer_pw2rs                     101 11.0    0.001    0.001    0.116    0.116
 dbcsr_reserve_all_blocks         12800 10.0    0.019    0.024    0.093    0.115
 mp_isend_dv                      39584  8.2    0.109    0.114    0.109    0.114
 parser_read_line                  5288  4.1    0.002    0.002    0.099    0.100
 dbcsr_data_copy_aa2              43264 10.9    0.040    0.099    0.040    0.099
 parser_read_line_low                23  6.2    0.009    0.036    0.097    0.099
 broadcast_input_information         23  7.2    0.028    0.038    0.088    0.094
 merge_index                      43264 11.2    0.088    0.090    0.088    0.090
 transfer_pw2rs_500                  26 11.8    0.046    0.048    0.083    0.085
 mp_recv_dv                       12816  7.0    0.011    0.084    0.011    0.084
 mp_irecv_iv                     155968  8.3    0.010    0.080    0.010    0.080
 mp_sum_dm3                          25  8.0    0.044    0.079    0.044    0.079
 scf_post_calculation_gpw             1  3.0    0.000    0.000    0.075    0.075
 write_available_results              1  4.0    0.000    0.000    0.075    0.075
 write_mo_free_results                1  5.0    0.001    0.001    0.074    0.075
 qs_create_task_list                  1  5.0    0.000    0.000    0.014    0.074
 generate_qs_task_list                1  6.0    0.011    0.058    0.014    0.074
 topology_control                     1  2.0    0.000    0.000    0.073    0.074
 dbcsr_switch_data_area           56656 10.4    0.051    0.052    0.067    0.069
 -------------------------------------------------------------------------------

 The number of warnings for this run is : 1
 
 -------------------------------------------------------------------------------
  **** **** ******  **  PROGRAM ENDED AT                 2025-08-04 21:55:03.899
 ***** ** ***  *** **   PROGRAM RAN ON                              i04r08c02s04
 **    ****   ******    PROGRAM RAN BY                                   di38fab
 ***** **    ** ** **   PROGRAM PROCESS ID                                314219
  **** **  *******  **  PROGRAM STOPPED IN /hppfs/scratch/04/di38fab/09_GTH/Delt
                                           a_Set/Sc/aug-DZVP-MOLOPT-GTH-tier-1/8
                                           x8x8
