Kr                                      
   1.00000000000000     
     6.429300    0.000000    0.000000
     0.000000    6.429300    0.000000
     0.000000    0.000000    6.429300
   Kr
     4
Direct
  0.000000  0.000000  0.000000
  0.000000  0.500000  0.500000
  0.500000  0.000000  0.500000
  0.500000  0.500000  0.000000
 
   48   48   48
 -49.662      13.784      167.07      325.26      411.84      400.49      317.16      212.55      129.30      75.545    
  43.546      25.285      14.798      8.5735      4.9545      3.0034      1.8840      1.1027     0.64718     0.52638    
 0.48481     0.34766     0.26488     0.35811     0.44326     0.35811     0.26488     0.34766     0.48481     0.52638    
 0.64718      1.1027      1.8840      3.0034      4.9545      8.5735      14.798      25.285      43.546      75.545    
  129.30      212.55      317.16      400.49      411.84      325.26      167.07      13.784      13.784      70.701    
  207.31      345.53      415.60      394.70      308.58      205.58      125.15      73.290      42.371      24.670    
  14.470      8.4020      4.8675      2.9544      1.8542      1.0889     0.63870     0.50683     0.44930     0.30118    
 0.20618     0.28215     0.35811     0.28215     0.20618     0.30118     0.44930     0.50683     0.63870      1.0889    
  1.8542      2.9544      4.8675      8.4020      14.470      24.670      42.371      73.290      125.15      205.58    
  308.58      394.70      415.60      345.53      207.31      70.701      167.07      207.31      301.43      389.13    
  418.06      374.35      283.00      185.95      113.57      66.984      39.069      22.931      13.536      7.9114    
  4.6171      2.8141      1.7713      1.0550     0.62927     0.48374     0.40643     0.25686     0.15646     0.20618    
 0.26488     0.20618     0.15646     0.25686     0.40643     0.48374     0.62927      1.0550      1.7713      2.8141    
  4.6171      7.9114      13.536      22.931      39.069      66.984      113.57      185.95      283.00      374.35    
  418.06      389.13      301.43      207.31      325.26      345.53      389.13      417.77      400.57      334.27    
  242.25      157.42      96.838      57.838      34.227      20.349      12.134      7.1674      4.2339      2.6015    
  1.6508      1.0143     0.63899     0.50105     0.43294     0.32363     0.25686     0.30118     0.34766     0.30118    
 0.25686     0.32363     0.43294     0.50105     0.63899      1.0143      1.6508      2.6015      4.2339      7.1674    
  12.134      20.349      34.227      57.838      96.838      157.42      242.25      334.27      400.57      417.77    
  389.13      345.53      411.84      415.60      418.06      400.57      350.99      274.69      192.23      125.07    
  77.931      47.404      28.607      17.294      10.451      6.2625      3.7630      2.3445      1.5129     0.97406    
 0.66228     0.54253     0.49329     0.43294     0.40643     0.44930     0.48481     0.44930     0.40643     0.43294    
 0.49329     0.54253     0.66228     0.97406      1.5129      2.3445      3.7630      6.2625      10.451      17.294    
  28.607      47.404      77.931      125.07      192.23      274.69      350.99      400.57      418.06      415.60    
  400.49      394.70      374.35      334.27      274.69      205.53      142.52      93.795      59.586      37.111    
  22.926      14.132      8.6790      5.2974      3.2577      2.0775      1.3820     0.94595     0.69602     0.58921    
 0.54253     0.50105     0.48374     0.50683     0.52638     0.50683     0.48374     0.50105     0.54253     0.58921    
 0.69602     0.94595      1.3820      2.0775      3.2577      5.2974      8.6790      14.132      22.926      37.111    
  59.586      93.795      142.52      205.53      274.69      334.27      374.35      394.70      317.16      308.58    
  283.00      242.25      192.23      142.52      99.874      67.014      43.664      27.950      17.711      11.151    
  6.9819      4.3648      2.7720      1.8372      1.2883     0.95874     0.77636     0.69602     0.66228     0.63899    
 0.62927     0.63870     0.64718     0.63870     0.62927     0.63899     0.66228     0.69602     0.77636     0.95874    
  1.2883      1.8372      2.7720      4.3648      6.9819      11.151      17.711      27.950      43.664      67.014    
  99.874      142.52      192.23      242.25      283.00      308.58      212.55      205.58      185.95      157.42    
  125.07      93.795      67.014      46.139      30.950      20.391      13.260      8.5412      5.4782      3.5392    
  2.3550      1.6601      1.2647      1.0515     0.95874     0.94595     0.97406      1.0143      1.0550      1.0889    
  1.1027      1.0889      1.0550      1.0143     0.97406     0.94595     0.95874      1.0515      1.2647      1.6601    
  2.3550      3.5392      5.4782      8.5412      13.260      20.391      30.950      46.139      67.014      93.795    
  125.07      157.42      185.95      205.58      129.30      125.15      113.57      96.838      77.931      59.586    
  43.664      30.950      21.389      14.493      9.6710      6.3946      4.2381      2.8718      2.0469      1.5805    
  1.3462      1.2647      1.2883      1.3820      1.5129      1.6508      1.7713      1.8542      1.8840      1.8542    
  1.7713      1.6508      1.5129      1.3820      1.2883      1.2647      1.3462      1.5805      2.0469      2.8718    
  4.2381      6.3946      9.6710      14.493      21.389      30.950      43.664      59.586      77.931      96.838    
  113.57      125.15      75.545      73.290      66.984      57.838      47.404      37.111      27.950      20.391    
  14.493      10.087      6.9193      4.7321      3.2901      2.3929      1.8808      1.6366      1.5805      1.6601    
  1.8372      2.0775      2.3445      2.6015      2.8141      2.9544      3.0034      2.9544      2.8141      2.6015    
  2.3445      2.0775      1.8372      1.6601      1.5805      1.6366      1.8808      2.3929      3.2901      4.7321    
  6.9193      10.087      14.493      20.391      27.950      37.111      47.404      57.838      66.984      73.290    
  43.546      42.371      39.069      34.227      28.607      22.926      17.711      13.260      9.6710      6.9193    
  4.9116      3.5255      2.6332      2.1190      1.8901      1.8808      2.0469      2.3550      2.7720      3.2577    
  3.7630      4.2339      4.6171      4.8675      4.9545      4.8675      4.6171      4.2339      3.7630      3.2577    
  2.7720      2.3550      2.0469      1.8808      1.8901      2.1190      2.6332      3.5255      4.9116      6.9193    
  9.6710      13.260      17.711      22.926      28.607      34.227      39.069      42.371      25.285      24.670    
  22.931      20.349      17.294      14.132      11.151      8.5412      6.3946      4.7321      3.5255      2.7195    
  2.2510      2.0640      2.1190      2.3929      2.8718      3.5392      4.3648      5.2974      6.2625      7.1674    
  7.9114      8.4020      8.5735      8.4020      7.9114      7.1674      6.2625      5.2974      4.3648      3.5392    
  2.8718      2.3929      2.1190      2.0640      2.2510      2.7195      3.5255      4.7321      6.3946      8.5412    
  11.151      14.132      17.294      20.349      22.931      24.670      14.798      14.470      13.536      12.134    
  10.451      8.6790      6.9819      5.4782      4.2381      3.2901      2.6332      2.2510      2.1260      2.2510    
  2.6332      3.2901      4.2381      5.4782      6.9819      8.6790      10.451      12.134      13.536      14.470    
  14.798      14.470      13.536      12.134      10.451      8.6790      6.9819      5.4782      4.2381      3.2901    
  2.6332      2.2510      2.1260      2.2510      2.6332      3.2901      4.2381      5.4782      6.9819      8.6790    
  10.451      12.134      13.536      14.470      8.5735      8.4020      7.9114      7.1674      6.2625      5.2974    
  4.3648      3.5392      2.8718      2.3929      2.1190      2.0640      2.2510      2.7195      3.5255      4.7321    
  6.3946      8.5412      11.151      14.132      17.294      20.349      22.931      24.670      25.285      24.670    
  22.931      20.349      17.294      14.132      11.151      8.5412      6.3946      4.7321      3.5255      2.7195    
  2.2510      2.0640      2.1190      2.3929      2.8718      3.5392      4.3648      5.2974      6.2625      7.1674    
  7.9114      8.4020      4.9545      4.8675      4.6171      4.2339      3.7630      3.2577      2.7720      2.3550    
  2.0469      1.8808      1.8901      2.1190      2.6332      3.5255      4.9116      6.9193      9.6710      13.260    
  17.711      22.926      28.607      34.227      39.069      42.371      43.546      42.371      39.069      34.227    
  28.607      22.926      17.711      13.260      9.6710      6.9193      4.9116      3.5255      2.6332      2.1190    
  1.8901      1.8808      2.0469      2.3550      2.7720      3.2577      3.7630      4.2339      4.6171      4.8675    
  3.0034      2.9544      2.8141      2.6015      2.3445      2.0775      1.8372      1.6601      1.5805      1.6366    
  1.8808      2.3929      3.2901      4.7321      6.9193      10.087      14.493      20.391      27.950      37.111    
  47.404      57.838      66.984      73.290      75.545      73.290      66.984      57.838      47.404      37.111    
  27.950      20.391      14.493      10.087      6.9193      4.7321      3.2901      2.3929      1.8808      1.6366    
  1.5805      1.6601      1.8372      2.0775      2.3445      2.6015      2.8141      2.9544      1.8840      1.8542    
  1.7713      1.6508      1.5129      1.3820      1.2883      1.2647      1.3462      1.5805      2.0469      2.8718    
  4.2381      6.3946      9.6710      14.493      21.389      30.950      43.664      59.586      77.931      96.838    
  113.57      125.15      129.30      125.15      113.57      96.838      77.931      59.586      43.664      30.950    
  21.389      14.493      9.6710      6.3946      4.2381      2.8718      2.0469      1.5805      1.3462      1.2647    
  1.2883      1.3820      1.5129      1.6508      1.7713      1.8542      1.1027      1.0889      1.0550      1.0143    
 0.97406     0.94595     0.95874      1.0515      1.2647      1.6601      2.3550      3.5392      5.4782      8.5412    
  13.260      20.391      30.950      46.139      67.014      93.795      125.07      157.42      185.95      205.58    
  212.55      205.58      185.95      157.42      125.07      93.795      67.014      46.139      30.950      20.391    
  13.260      8.5412      5.4782      3.5392      2.3550      1.6601      1.2647      1.0515     0.95874     0.94595    
 0.97406      1.0143      1.0550      1.0889     0.64718     0.63870     0.62927     0.63899     0.66228     0.69602    
 0.77636     0.95874      1.2883      1.8372      2.7720      4.3648      6.9819      11.151      17.711      27.950    
  43.664      67.014      99.874      142.52      192.23      242.25      283.00      308.58      317.16      308.58    
  283.00      242.25      192.23      142.52      99.874      67.014      43.664      27.950      17.711      11.151    
  6.9819      4.3648      2.7720      1.8372      1.2883     0.95874     0.77636     0.69602     0.66228     0.63899    
 0.62927     0.63870     0.52638     0.50683     0.48374     0.50105     0.54253     0.58921     0.69602     0.94595    
  1.3820      2.0775      3.2577      5.2974      8.6790      14.132      22.926      37.111      59.586      93.795    
  142.52      205.53      274.69      334.27      374.35      394.70      400.49      394.70      374.35      334.27    
  274.69      205.53      142.52      93.795      59.586      37.111      22.926      14.132      8.6790      5.2974    
  3.2577      2.0775      1.3820     0.94595     0.69602     0.58921     0.54253     0.50105     0.48374     0.50683    
 0.48481     0.44930     0.40643     0.43294     0.49329     0.54253     0.66228     0.97406      1.5129      2.3445    
  3.7630      6.2625      10.451      17.294      28.607      47.404      77.931      125.07      192.23      274.69    
  350.99      400.57      418.06      415.60      411.84      415.60      418.06      400.57      350.99      274.69    
  192.23      125.07      77.931      47.404      28.607      17.294      10.451      6.2625      3.7630      2.3445    
  1.5129     0.97406     0.66228     0.54253     0.49329     0.43294     0.40643     0.44930     0.34766     0.30118    
 0.25686     0.32363     0.43294     0.50105     0.63899      1.0143      1.6508      2.6015      4.2339      7.1674    
  12.134      20.349      34.227      57.838      96.838      157.42      242.25      334.27      400.57      417.77    
  389.13      345.53      325.26      345.53      389.13      417.77      400.57      334.27      242.25      157.42    
  96.838      57.838      34.227      20.349      12.134      7.1674      4.2339      2.6015      1.6508      1.0143    
 0.63899     0.50105     0.43294     0.32363     0.25686     0.30118     0.26488     0.20618     0.15646     0.25686    
 0.40643     0.48374     0.62927      1.0550      1.7713      2.8141      4.6171      7.9114      13.536      22.931    
  39.069      66.984      113.57      185.95      283.00      374.35      418.06      389.13      301.43      207.31    
  167.07      207.31      301.43      389.13      418.06      374.35      283.00      185.95      113.57      66.984    
  39.069      22.931      13.536      7.9114      4.6171      2.8141      1.7713      1.0550     0.62927     0.48374    
 0.40643     0.25686     0.15646     0.20618     0.35811     0.28215     0.20618     0.30118     0.44930     0.50683    
 0.63870      1.0889      1.8542      2.9544      4.8675      8.4020      14.470      24.670      42.371      73.290    
  125.15      205.58      308.58      394.70      415.60      345.53      207.31      70.701      13.784      70.701    
  207.31      345.53      415.60      394.70      308.58      205.58      125.15      73.290      42.371      24.670    
  14.470      8.4020      4.8675      2.9544      1.8542      1.0889     0.63870     0.50683     0.44930     0.30118    
 0.20618     0.28215     0.44326     0.35811     0.26488     0.34766     0.48481     0.52638     0.64718      1.1027    
  1.8840      3.0034      4.9545      8.5735      14.798      25.285      43.546      75.545      129.30      212.55    
  317.16      400.49      411.84      325.26      167.07      13.784     -49.662      13.784      167.07      325.26    
  411.84      400.49      317.16      212.55      129.30      75.545      43.546      25.285      14.798      8.5735    
  4.9545      3.0034      1.8840      1.1027     0.64718     0.52638     0.48481     0.34766     0.26488     0.35811    
 0.35811     0.28215     0.20618     0.30118     0.44930     0.50683     0.63870      1.0889      1.8542      2.9544    
  4.8675      8.4020      14.470      24.670      42.371      73.290      125.15      205.58      308.58      394.70    
  415.60      345.53      207.31      70.701      13.784      70.701      207.31      345.53      415.60      394.70    
  308.58      205.58      125.15      73.290      42.371      24.670      14.470      8.4020      4.8675      2.9544    
  1.8542      1.0889     0.63870     0.50683     0.44930     0.30118     0.20618     0.28215     0.26488     0.20618    
 0.15646     0.25686     0.40643     0.48374     0.62927      1.0550      1.7713      2.8141      4.6171      7.9114    
  13.536      22.931      39.069      66.984      113.57      185.95      283.00      374.35      418.06      389.13    
  301.43      207.31      167.07      207.31      301.43      389.13      418.06      374.35      283.00      185.95    
  113.57      66.984      39.069      22.931      13.536      7.9114      4.6171      2.8141      1.7713      1.0550    
 0.62927     0.48374     0.40643     0.25686     0.15646     0.20618     0.34766     0.30118     0.25686     0.32363    
 0.43294     0.50105     0.63899      1.0143      1.6508      2.6015      4.2339      7.1674      12.134      20.349    
  34.227      57.838      96.838      157.42      242.25      334.27      400.57      417.77      389.13      345.53    
  325.26      345.53      389.13      417.77      400.57      334.27      242.25      157.42      96.838      57.838    
  34.227      20.349      12.134      7.1674      4.2339      2.6015      1.6508      1.0143     0.63899     0.50105    
 0.43294     0.32363     0.25686     0.30118     0.48481     0.44930     0.40643     0.43294     0.49329     0.54253    
 0.66228     0.97406      1.5129      2.3445      3.7630      6.2625      10.451      17.294      28.607      47.404    
  77.931      125.07      192.23      274.69      350.99      400.57      418.06      415.60      411.84      415.60    
  418.06      400.57      350.99      274.69      192.23      125.07      77.931      47.404      28.607      17.294    
  10.451      6.2625      3.7630      2.3445      1.5129     0.97406     0.66228     0.54253     0.49329     0.43294    
 0.40643     0.44930     0.52638     0.50683     0.48374     0.50105     0.54253     0.58921     0.69602     0.94595    
  1.3820      2.0775      3.2577      5.2974      8.6790      14.132      22.926      37.111      59.586      93.795    
  142.52      205.53      274.69      334.27      374.35      394.70      400.49      394.70      374.35      334.27    
  274.69      205.53      142.52      93.795      59.586      37.111      22.926      14.132      8.6790      5.2974    
  3.2577      2.0775      1.3820     0.94595     0.69602     0.58921     0.54253     0.50105     0.48374     0.50683    
 0.64718     0.63870     0.62927     0.63899     0.66228     0.69602     0.77636     0.95874      1.2883      1.8372    
  2.7720      4.3648      6.9819      11.151      17.711      27.950      43.664      67.014      99.874      142.52    
  192.23      242.25      283.00      308.58      317.16      308.58      283.00      242.25      192.23      142.52    
  99.874      67.014      43.664      27.950      17.711      11.151      6.9819      4.3648      2.7720      1.8372    
  1.2883     0.95874     0.77636     0.69602     0.66228     0.63899     0.62927     0.63870      1.1027      1.0889    
  1.0550      1.0143     0.97406     0.94595     0.95874      1.0515      1.2647      1.6601      2.3550      3.5392    
  5.4782      8.5412      13.260      20.391      30.950      46.139      67.014      93.795      125.07      157.42    
  185.95      205.58      212.55      205.58      185.95      157.42      125.07      93.795      67.014      46.139    
  30.950      20.391      13.260      8.5412      5.4782      3.5392      2.3550      1.6601      1.2647      1.0515    
 0.95874     0.94595     0.97406      1.0143      1.0550      1.0889      1.8840      1.8542      1.7713      1.6508    
  1.5129      1.3820      1.2883      1.2647      1.3462      1.5805      2.0469      2.8718      4.2381      6.3946    
  9.6710      14.493      21.389      30.950      43.664      59.586      77.931      96.838      113.57      125.15    
  129.30      125.15      113.57      96.838      77.931      59.586      43.664      30.950      21.389      14.493    
  9.6710      6.3946      4.2381      2.8718      2.0469      1.5805      1.3462      1.2647      1.2883      1.3820    
  1.5129      1.6508      1.7713      1.8542      3.0034      2.9544      2.8141      2.6015      2.3445      2.0775    
  1.8372      1.6601      1.5805      1.6366      1.8808      2.3929      3.2901      4.7321      6.9193      10.087    
  14.493      20.391      27.950      37.111      47.404      57.838      66.984      73.290      75.545      73.290    
  66.984      57.838      47.404      37.111      27.950      20.391      14.493      10.087      6.9193      4.7321    
  3.2901      2.3929      1.8808      1.6366      1.5805      1.6601      1.8372      2.0775      2.3445      2.6015    
  2.8141      2.9544      4.9545      4.8675      4.6171      4.2339      3.7630      3.2577      2.7720      2.3550    
  2.0469      1.8808      1.8901      2.1190      2.6332      3.5255      4.9116      6.9193      9.6710      13.260    
  17.711      22.926      28.607      34.227      39.069      42.371      43.546      42.371      39.069      34.227    
  28.607      22.926      17.711      13.260      9.6710      6.9193      4.9116      3.5255      2.6332      2.1190    
  1.8901      1.8808      2.0469      2.3550      2.7720      3.2577      3.7630      4.2339      4.6171      4.8675    
  8.5735      8.4020      7.9114      7.1674      6.2625      5.2974      4.3648      3.5392      2.8718      2.3929    
  2.1190      2.0640      2.2510      2.7195      3.5255      4.7321      6.3946      8.5412      11.151      14.132    
  17.294      20.349      22.931      24.670      25.285      24.670      22.931      20.349      17.294      14.132    
  11.151      8.5412      6.3946      4.7321      3.5255      2.7195      2.2510      2.0640      2.1190      2.3929    
  2.8718      3.5392      4.3648      5.2974      6.2625      7.1674      7.9114      8.4020      14.798      14.470    
  13.536      12.134      10.451      8.6790      6.9819      5.4782      4.2381      3.2901      2.6332      2.2510    
  2.1260      2.2510      2.6332      3.2901      4.2381      5.4782      6.9819      8.6790      10.451      12.134    
  13.536      14.470      14.798      14.470      13.536      12.134      10.451      8.6790      6.9819      5.4782    
  4.2381      3.2901      2.6332      2.2510      2.1260      2.2510      2.6332      3.2901      4.2381      5.4782    
  6.9819      8.6790      10.451      12.134      13.536      14.470      25.285      24.670      22.931      20.349    
  17.294      14.132      11.151      8.5412      6.3946      4.7321      3.5255      2.7195      2.2510      2.0640    
  2.1190      2.3929      2.8718      3.5392      4.3648      5.2974      6.2625      7.1674      7.9114      8.4020    
  8.5735      8.4020      7.9114      7.1674      6.2625      5.2974      4.3648      3.5392      2.8718      2.3929    
  2.1190      2.0640      2.2510      2.7195      3.5255      4.7321      6.3946      8.5412      11.151      14.132    
  17.294      20.349      22.931      24.670      43.546      42.371      39.069      34.227      28.607      22.926    
  17.711      13.260      9.6710      6.9193      4.9116      3.5255      2.6332      2.1190      1.8901      1.8808    
  2.0469      2.3550      2.7720      3.2577      3.7630      4.2339      4.6171      4.8675      4.9545      4.8675    
  4.6171      4.2339      3.7630      3.2577      2.7720      2.3550      2.0469      1.8808      1.8901      2.1190    
  2.6332      3.5255      4.9116      6.9193      9.6710      13.260      17.711      22.926      28.607      34.227    
  39.069      42.371      75.545      73.290      66.984      57.838      47.404      37.111      27.950      20.391    
  14.493      10.087      6.9193      4.7321      3.2901      2.3929      1.8808      1.6366      1.5805      1.6601    
  1.8372      2.0775      2.3445      2.6015      2.8141      2.9544      3.0034      2.9544      2.8141      2.6015    
  2.3445      2.0775      1.8372      1.6601      1.5805      1.6366      1.8808      2.3929      3.2901      4.7321    
  6.9193      10.087      14.493      20.391      27.950      37.111      47.404      57.838      66.984      73.290    
  129.30      125.15      113.57      96.838      77.931      59.586      43.664      30.950      21.389      14.493    
  9.6710      6.3946      4.2381      2.8718      2.0469      1.5805      1.3462      1.2647      1.2883      1.3820    
  1.5129      1.6508      1.7713      1.8542      1.8840      1.8542      1.7713      1.6508      1.5129      1.3820    
  1.2883      1.2647      1.3462      1.5805      2.0469      2.8718      4.2381      6.3946      9.6710      14.493    
  21.389      30.950      43.664      59.586      77.931      96.838      113.57      125.15      212.55      205.58    
  185.95      157.42      125.07      93.795      67.014      46.139      30.950      20.391      13.260      8.5412    
  5.4782      3.5392      2.3550      1.6601      1.2647      1.0515     0.95874     0.94595     0.97406      1.0143    
  1.0550      1.0889      1.1027      1.0889      1.0550      1.0143     0.97406     0.94595     0.95874      1.0515    
  1.2647      1.6601      2.3550      3.5392      5.4782      8.5412      13.260      20.391      30.950      46.139    
  67.014      93.795      125.07      157.42      185.95      205.58      317.16      308.58      283.00      242.25    
  192.23      142.52      99.874      67.014      43.664      27.950      17.711      11.151      6.9819      4.3648    
  2.7720      1.8372      1.2883     0.95874     0.77636     0.69602     0.66228     0.63899     0.62927     0.63870    
 0.64718     0.63870     0.62927     0.63899     0.66228     0.69602     0.77636     0.95874      1.2883      1.8372    
  2.7720      4.3648      6.9819      11.151      17.711      27.950      43.664      67.014      99.874      142.52    
  192.23      242.25      283.00      308.58      400.49      394.70      374.35      334.27      274.69      205.53    
  142.52      93.795      59.586      37.111      22.926      14.132      8.6790      5.2974      3.2577      2.0775    
  1.3820     0.94595     0.69602     0.58921     0.54253     0.50105     0.48374     0.50683     0.52638     0.50683    
 0.48374     0.50105     0.54253     0.58921     0.69602     0.94595      1.3820      2.0775      3.2577      5.2974    
  8.6790      14.132      22.926      37.111      59.586      93.795      142.52      205.53      274.69      334.27    
  374.35      394.70      411.84      415.60      418.06      400.57      350.99      274.69      192.23      125.07    
  77.931      47.404      28.607      17.294      10.451      6.2625      3.7630      2.3445      1.5129     0.97406    
 0.66228     0.54253     0.49329     0.43294     0.40643     0.44930     0.48481     0.44930     0.40643     0.43294    
 0.49329     0.54253     0.66228     0.97406      1.5129      2.3445      3.7630      6.2625      10.451      17.294    
  28.607      47.404      77.931      125.07      192.23      274.69      350.99      400.57      418.06      415.60    
  325.26      345.53      389.13      417.77      400.57      334.27      242.25      157.42      96.838      57.838    
  34.227      20.349      12.134      7.1674      4.2339      2.6015      1.6508      1.0143     0.63899     0.50105    
 0.43294     0.32363     0.25686     0.30118     0.34766     0.30118     0.25686     0.32363     0.43294     0.50105    
 0.63899      1.0143      1.6508      2.6015      4.2339      7.1674      12.134      20.349      34.227      57.838    
  96.838      157.42      242.25      334.27      400.57      417.77      389.13      345.53      167.07      207.31    
  301.43      389.13      418.06      374.35      283.00      185.95      113.57      66.984      39.069      22.931    
  13.536      7.9114      4.6171      2.8141      1.7713      1.0550     0.62927     0.48374     0.40643     0.25686    
 0.15646     0.20618     0.26488     0.20618     0.15646     0.25686     0.40643     0.48374     0.62927      1.0550    
  1.7713      2.8141      4.6171      7.9114      13.536      22.931      39.069      66.984      113.57      185.95    
  283.00      374.35      418.06      389.13      301.43      207.31      13.784      70.701      207.31      345.53    
  415.60      394.70      308.58      205.58      125.15      73.290      42.371      24.670      14.470      8.4020    
  4.8675      2.9544      1.8542      1.0889     0.63870     0.50683     0.44930     0.30118     0.20618     0.28215    
 0.35811     0.28215     0.20618     0.30118     0.44930     0.50683     0.63870      1.0889      1.8542      2.9544    
  4.8675      8.4020      14.470      24.670      42.371      73.290      125.15      205.58      308.58      394.70    
  415.60      345.53      207.31      70.701      13.784      70.701      207.31      345.53      415.60      394.70    
  308.58      205.58      125.15      73.290      42.371      24.670      14.470      8.4020      4.8675      2.9544    
  1.8542      1.0889     0.63870     0.50683     0.44930     0.30118     0.20618     0.28215     0.35811     0.28215    
 0.20618     0.30118     0.44930     0.50683     0.63870      1.0889      1.8542      2.9544      4.8675      8.4020    
  14.470      24.670      42.371      73.290      125.15      205.58      308.58      394.70      415.60      345.53    
  207.31      70.701      70.701      121.60      242.85      362.75      417.79      388.36      300.01      198.82    
  121.15      71.114      41.234      24.073      14.150      8.2345      4.7822      2.9064      1.8253      1.0756    
 0.63115     0.48953     0.41777     0.26022     0.15449     0.21468     0.28215     0.21468     0.15449     0.26022    
 0.41777     0.48953     0.63115      1.0756      1.8253      2.9064      4.7822      8.2345      14.150      24.073    
  41.234      71.114      121.15      198.82      300.01      388.36      417.79      362.75      242.85      121.60    
  207.31      242.85      325.05      398.68      416.39      366.79      274.61      179.84      109.97      65.025    
  38.037      22.384      13.241      7.7551      4.5368      2.7690      1.7445      1.0430     0.62326     0.47059    
 0.38242     0.22606     0.11755     0.15449     0.20618     0.15449     0.11755     0.22606     0.38242     0.47059    
 0.62326      1.0430      1.7445      2.7690      4.5368      7.7551      13.241      22.384      38.037      65.025    
  109.97      179.84      274.61      366.79      416.39      398.68      325.05      242.85      345.53      362.75    