Kr                                      
   1.00000000000000     
     6.429300    0.000000    0.000000
     0.000000    6.429300    0.000000
     0.000000    0.000000    6.429300
   Kr
     4
Direct
  0.000000  0.000000  0.000000
  0.000000  0.500000  0.500000
  0.500000  0.000000  0.500000
  0.500000  0.500000  0.000000
 
   48   48   48
 -.49662291331E+02 0.13784229078E+02 0.16707070713E+03 0.32526308549E+03 0.41184419771E+03
 0.40049250029E+03 0.31715652582E+03 0.21254741459E+03 0.12929573290E+03 0.75545194214E+02
 0.43545997875E+02 0.25284680310E+02 0.14798364678E+02 0.85734932435E+01 0.49545106836E+01
 0.30034026764E+01 0.18839500097E+01 0.11027127427E+01 0.64718445873E+00 0.52637802981E+00
 0.48481447082E+00 0.34765583762E+00 0.26487800437E+00 0.35811078647E+00 0.44325594665E+00
 0.35811078647E+00 0.26487800437E+00 0.34765583762E+00 0.48481447082E+00 0.52637802981E+00
 0.64718445873E+00 0.11027127427E+01 0.18839500097E+01 0.30034026764E+01 0.49545106836E+01
 0.85734932435E+01 0.14798364678E+02 0.25284680310E+02 0.43545997875E+02 0.75545194214E+02
 0.12929573290E+03 0.21254741459E+03 0.31715652582E+03 0.40049250029E+03 0.41184419771E+03
 0.32526308549E+03 0.16707070713E+03 0.13784229078E+02 0.13784229078E+02 0.70700959741E+02
 0.20730871917E+03 0.34553231616E+03 0.41560297558E+03 0.39470186754E+03 0.30857897838E+03
 0.20558039707E+03 0.12514791010E+03 0.73290388669E+02 0.42371216933E+02 0.24670076817E+02
 0.14470121871E+02 0.84019988703E+01 0.48674771203E+01 0.29544053859E+01 0.18542049397E+01
 0.10888561079E+01 0.63869932928E+00 0.50682903168E+00 0.44930117944E+00 0.30118248346E+00
 0.20617993476E+00 0.28214626244E+00 0.35811078647E+00 0.28214626244E+00 0.20617993476E+00
 0.30118248346E+00 0.44930117944E+00 0.50682903168E+00 0.63869932928E+00 0.10888561079E+01
 0.18542049397E+01 0.29544053859E+01 0.48674771203E+01 0.84019988703E+01 0.14470121871E+02
 0.24670076817E+02 0.42371216933E+02 0.73290388669E+02 0.12514791010E+03 0.20558039707E+03
 0.30857897838E+03 0.39470186754E+03 0.41560297558E+03 0.34553231616E+03 0.20730871917E+03
 0.70700959741E+02 0.16707070713E+03 0.20730871917E+03 0.30142922290E+03 0.38912769876E+03
 0.41806462224E+03 0.37435388980E+03 0.28300311655E+03 0.18595046356E+03 0.11356518998E+03
 0.66984427649E+02 0.39068932872E+02 0.22931288290E+02 0.13536244122E+02 0.79113914874E+01
 0.46171390767E+01 0.28141407717E+01 0.17713011382E+01 0.10550283116E+01 0.62927026926E+00
 0.48373839626E+00 0.40643488943E+00 0.25685838376E+00 0.15646072418E+00 0.20617993476E+00
 0.26487800437E+00 0.20617993476E+00 0.15646072418E+00 0.25685838376E+00 0.40643488943E+00
 0.48373839626E+00 0.62927026926E+00 0.10550283116E+01 0.17713011382E+01 0.28141407717E+01
 0.46171390767E+01 0.79113914874E+01 0.13536244122E+02 0.22931288290E+02 0.39068932872E+02
 0.66984427649E+02 0.11356518998E+03 0.18595046356E+03 0.28300311655E+03 0.37435388980E+03
 0.41806462224E+03 0.38912769876E+03 0.30142922290E+03 0.20730871917E+03 0.32526308549E+03
 0.34553231616E+03 0.38912769876E+03 0.41777473780E+03 0.40057275872E+03 0.33427008864E+03
 0.24224765647E+03 0.15741557741E+03 0.96837805338E+02 0.57838358361E+02 0.34227327240E+02
 0.20349031522E+02 0.12134340045E+02 0.71674037537E+01 0.42339314632E+01 0.26014751997E+01
 0.16508380014E+01 0.10142901636E+01 0.63898956233E+00 0.50105371990E+00 0.43293957506E+00
 0.32363353114E+00 0.25685838375E+00 0.30118248346E+00 0.34765583762E+00 0.30118248346E+00
 0.25685838375E+00 0.32363353114E+00 0.43293957506E+00 0.50105371990E+00 0.63898956233E+00
 0.10142901636E+01 0.16508380014E+01 0.26014751997E+01 0.42339314632E+01 0.71674037537E+01
 0.12134340045E+02 0.20349031522E+02 0.34227327240E+02 0.57838358361E+02 0.96837805338E+02
 0.15741557741E+03 0.24224765647E+03 0.33427008864E+03 0.40057275872E+03 0.41777473780E+03
 0.38912769876E+03 0.34553231616E+03 0.41184419771E+03 0.41560297558E+03 0.41806462224E+03
 0.40057275872E+03 0.35099417765E+03 0.27469127475E+03 0.19222668366E+03 0.12506717620E+03
 0.77930650355E+02 0.47404104799E+02 0.28606964430E+02 0.17294172352E+02 0.10451160319E+02
 0.62624918163E+01 0.37630276630E+01 0.23445059140E+01 0.15128706706E+01 0.97406236972E+00
 0.66227646151E+00 0.54253311060E+00 0.49328865604E+00 0.43293957506E+00 0.40643488943E+00
 0.44930117944E+00 0.48481447082E+00 0.44930117944E+00 0.40643488943E+00 0.43293957506E+00
 0.49328865604E+00 0.54253311060E+00 0.66227646151E+00 0.97406236972E+00 0.15128706706E+01
 0.23445059140E+01 0.37630276630E+01 0.62624918163E+01 0.10451160319E+02 0.17294172352E+02
 0.28606964430E+02 0.47404104799E+02 0.77930650355E+02 0.12506717620E+03 0.19222668366E+03
 0.27469127475E+03 0.35099417765E+03 0.40057275872E+03 0.41806462224E+03 0.41560297558E+03
 0.40049250029E+03 0.39470186754E+03 0.37435388980E+03 0.33427008864E+03 0.27469127475E+03
 0.20553423002E+03 0.14251697860E+03 0.93795295309E+02 0.59586185718E+02 0.37111390842E+02
 0.22925676966E+02 0.14131591712E+02 0.86790219312E+01 0.52973637726E+01 0.32576639427E+01
 0.20774502218E+01 0.13819603415E+01 0.94594608205E+00 0.69602372199E+00 0.58920641523E+00
 0.54253311060E+00 0.50105371990E+00 0.48373839626E+00 0.50682903168E+00 0.52637802981E+00
 0.50682903168E+00 0.48373839626E+00 0.50105371990E+00 0.54253311060E+00 0.58920641523E+00
 0.69602372199E+00 0.94594608205E+00 0.13819603415E+01 0.20774502218E+01 0.32576639427E+01
 0.52973637726E+01 0.86790219312E+01 0.14131591712E+02 0.22925676966E+02 0.37111390842E+02
 0.59586185718E+02 0.93795295309E+02 0.14251697860E+03 0.20553423002E+03 0.27469127475E+03
 0.33427008864E+03 0.37435388980E+03 0.39470186754E+03 0.31715652582E+03 0.30857897838E+03
 0.28300311655E+03 0.24224765647E+03 0.19222668366E+03 0.14251697860E+03 0.99874029584E+02
 0.67014070991E+02 0.43664075275E+02 0.27950364454E+02 0.17711491977E+02 0.11151203282E+02
 0.69819195436E+01 0.43648413750E+01 0.27720146221E+01 0.18372443749E+01 0.12882797940E+01
 0.95873708452E+00 0.77635639040E+00 0.69602372199E+00 0.66227646151E+00 0.63898956233E+00
 0.62927026926E+00 0.63869932928E+00 0.64718445873E+00 0.63869932928E+00 0.62927026926E+00
 0.63898956233E+00 0.66227646151E+00 0.69602372199E+00 0.77635639040E+00 0.95873708452E+00
 0.12882797940E+01 0.18372443749E+01 0.27720146221E+01 0.43648413750E+01 0.69819195436E+01
 0.11151203282E+02 0.17711491977E+02 0.27950364454E+02 0.43664075275E+02 0.67014070991E+02
 0.99874029584E+02 0.14251697860E+03 0.19222668366E+03 0.24224765647E+03 0.28300311655E+03
 0.30857897838E+03 0.21254741459E+03 0.20558039707E+03 0.18595046356E+03 0.15741557741E+03
 0.12506717620E+03 0.93795295309E+02 0.67014070991E+02 0.46139304239E+02 0.30949953224E+02
 0.20390850214E+02 0.13259722431E+02 0.85411517112E+01 0.54782184342E+01 0.35391963588E+01
 0.23549860838E+01 0.16600630330E+01 0.12647276254E+01 0.10514780751E+01 0.95873708452E+00
 0.94594608205E+00 0.97406236972E+00 0.10142901636E+01 0.10550283116E+01 0.10888561079E+01
 0.11027127427E+01 0.10888561079E+01 0.10550283116E+01 0.10142901636E+01 0.97406236972E+00
 0.94594608205E+00 0.95873708452E+00 0.10514780751E+01 0.12647276254E+01 0.16600630330E+01
 0.23549860838E+01 0.35391963588E+01 0.54782184342E+01 0.85411517112E+01 0.13259722431E+02
 0.20390850214E+02 0.30949953224E+02 0.46139304239E+02 0.67014070991E+02 0.93795295309E+02
 0.12506717620E+03 0.15741557741E+03 0.18595046356E+03 0.20558039707E+03 0.12929573290E+03
 0.12514791010E+03 0.11356518998E+03 0.96837805338E+02 0.77930650355E+02 0.59586185718E+02
 0.43664075275E+02 0.30949953224E+02 0.21389009828E+02 0.14492825980E+02 0.96709548781E+01
 0.63946294683E+01 0.42380604434E+01 0.28717933794E+01 0.20468606682E+01 0.15804893590E+01
 0.13462289829E+01 0.12647276254E+01 0.12882797940E+01 0.13819603415E+01 0.15128706706E+01
 0.16508380014E+01 0.17713011382E+01 0.18542049397E+01 0.18839500097E+01 0.18542049397E+01
 0.17713011382E+01 0.16508380014E+01 0.15128706706E+01 0.13819603415E+01 0.12882797940E+01
 0.12647276254E+01 0.13462289829E+01 0.15804893590E+01 0.20468606682E+01 0.28717933794E+01
 0.42380604434E+01 0.63946294683E+01 0.96709548781E+01 0.14492825980E+02 0.21389009828E+02
 0.30949953224E+02 0.43664075275E+02 0.59586185718E+02 0.77930650355E+02 0.96837805338E+02
 0.11356518998E+03 0.12514791010E+03 0.75545194214E+02 0.73290388669E+02 0.66984427649E+02
 0.57838358361E+02 0.47404104799E+02 0.37111390842E+02 0.27950364454E+02 0.20390850214E+02
 0.14492825980E+02 0.10086659965E+02 0.69193105943E+01 0.47321062826E+01 0.32900930718E+01
 0.23928907451E+01 0.18808297249E+01 0.16365962207E+01 0.15804893590E+01 0.16600630330E+01
 0.18372443749E+01 0.20774502218E+01 0.23445059140E+01 0.26014751997E+01 0.28141407717E+01
 0.29544053859E+01 0.30034026764E+01 0.29544053859E+01 0.28141407717E+01 0.26014751997E+01
 0.23445059140E+01 0.20774502218E+01 0.18372443749E+01 0.16600630330E+01 0.15804893590E+01
 0.16365962207E+01 0.18808297249E+01 0.23928907451E+01 0.32900930718E+01 0.47321062826E+01
 0.69193105943E+01 0.10086659965E+02 0.14492825980E+02 0.20390850214E+02 0.27950364454E+02
 0.37111390842E+02 0.47404104799E+02 0.57838358361E+02 0.66984427649E+02 0.73290388669E+02
 0.43545997875E+02 0.42371216933E+02 0.39068932872E+02 0.34227327240E+02 0.28606964430E+02
 0.22925676966E+02 0.17711491977E+02 0.13259722431E+02 0.96709548781E+01 0.69193105943E+01
 0.49115874073E+01 0.35254570000E+01 0.26332320307E+01 0.21189883974E+01 0.18901279942E+01
 0.18808297249E+01 0.20468606682E+01 0.23549860838E+01 0.27720146221E+01 0.32576639427E+01
 0.37630276630E+01 0.42339314632E+01 0.46171390767E+01 0.48674771203E+01 0.49545106836E+01
 0.48674771203E+01 0.46171390767E+01 0.42339314632E+01 0.37630276630E+01 0.32576639427E+01
 0.27720146221E+01 0.23549860838E+01 0.20468606682E+01 0.18808297249E+01 0.18901279942E+01
 0.21189883974E+01 0.26332320307E+01 0.35254570000E+01 0.49115874073E+01 0.69193105943E+01
 0.96709548781E+01 0.13259722431E+02 0.17711491977E+02 0.22925676966E+02 0.28606964430E+02
 0.34227327240E+02 0.39068932872E+02 0.42371216933E+02 0.25284680310E+02 0.24670076817E+02
 0.22931288290E+02 0.20349031522E+02 0.17294172352E+02 0.14131591712E+02 0.11151203282E+02
 0.85411517112E+01 0.63946294683E+01 0.47321062826E+01 0.35254570000E+01 0.27195053071E+01
 0.22509960387E+01 0.20640228114E+01 0.21189883974E+01 0.23928907451E+01 0.28717933794E+01
 0.35391963588E+01 0.43648413750E+01 0.52973637726E+01 0.62624918163E+01 0.71674037537E+01
 0.79113914874E+01 0.84019988703E+01 0.85734932435E+01 0.84019988703E+01 0.79113914874E+01
 0.71674037537E+01 0.62624918163E+01 0.52973637726E+01 0.43648413750E+01 0.35391963588E+01
 0.28717933794E+01 0.23928907451E+01 0.21189883974E+01 0.20640228114E+01 0.22509960387E+01
 0.27195053071E+01 0.35254570000E+01 0.47321062826E+01 0.63946294683E+01 0.85411517112E+01
 0.11151203282E+02 0.14131591712E+02 0.17294172352E+02 0.20349031522E+02 0.22931288290E+02
 0.24670076817E+02 0.14798364678E+02 0.14470121871E+02 0.13536244122E+02 0.12134340045E+02
 0.10451160319E+02 0.86790219312E+01 0.69819195436E+01 0.54782184342E+01 0.42380604434E+01
 0.32900930718E+01 0.26332320307E+01 0.22509960387E+01 0.21259851900E+01 0.22509960387E+01
 0.26332320307E+01 0.32900930718E+01 0.42380604434E+01 0.54782184342E+01 0.69819195436E+01
 0.86790219312E+01 0.10451160319E+02 0.12134340045E+02 0.13536244122E+02 0.14470121871E+02
 0.14798364678E+02 0.14470121871E+02 0.13536244122E+02 0.12134340045E+02 0.10451160319E+02
 0.86790219312E+01 0.69819195436E+01 0.54782184342E+01 0.42380604434E+01 0.32900930718E+01
 0.26332320307E+01 0.22509960387E+01 0.21259851900E+01 0.22509960387E+01 0.26332320307E+01
 0.32900930718E+01 0.42380604434E+01 0.54782184342E+01 0.69819195436E+01 0.86790219312E+01
 0.10451160319E+02 0.12134340045E+02 0.13536244122E+02 0.14470121871E+02 0.85734932435E+01
 0.84019988703E+01 0.79113914874E+01 0.71674037537E+01 0.62624918163E+01 0.52973637726E+01
 0.43648413750E+01 0.35391963588E+01 0.28717933794E+01 0.23928907451E+01 0.21189883974E+01
 0.20640228114E+01 0.22509960387E+01 0.27195053071E+01 0.35254570000E+01 0.47321062826E+01
 0.63946294683E+01 0.85411517112E+01 0.11151203282E+02 0.14131591712E+02 0.17294172352E+02
 0.20349031522E+02 0.22931288290E+02 0.24670076817E+02 0.25284680310E+02 0.24670076817E+02
 0.22931288290E+02 0.20349031522E+02 0.17294172352E+02 0.14131591712E+02 0.11151203282E+02
 0.85411517112E+01 0.63946294683E+01 0.47321062826E+01 0.35254570000E+01 0.27195053071E+01
 0.22509960387E+01 0.20640228114E+01 0.21189883974E+01 0.23928907451E+01 0.28717933794E+01
 0.35391963588E+01 0.43648413750E+01 0.52973637726E+01 0.62624918163E+01 0.71674037537E+01
 0.79113914874E+01 0.84019988703E+01 0.49545106836E+01 0.48674771203E+01 0.46171390767E+01
 0.42339314632E+01 0.37630276630E+01 0.32576639427E+01 0.27720146221E+01 0.23549860838E+01
 0.20468606682E+01 0.18808297249E+01 0.18901279942E+01 0.21189883974E+01 0.26332320307E+01
 0.35254570000E+01 0.49115874073E+01 0.69193105943E+01 0.96709548781E+01 0.13259722431E+02
 0.17711491977E+02 0.22925676966E+02 0.28606964430E+02 0.34227327240E+02 0.39068932872E+02
 0.42371216933E+02 0.43545997875E+02 0.42371216933E+02 0.39068932872E+02 0.34227327240E+02
 0.28606964430E+02 0.22925676966E+02 0.17711491977E+02 0.13259722431E+02 0.96709548781E+01
 0.69193105943E+01 0.49115874073E+01 0.35254570000E+01 0.26332320307E+01 0.21189883974E+01
 0.18901279942E+01 0.18808297249E+01 0.20468606682E+01 0.23549860838E+01 0.27720146221E+01
 0.32576639427E+01 0.37630276630E+01 0.42339314632E+01 0.46171390767E+01 0.48674771203E+01
 0.30034026764E+01 0.29544053859E+01 0.28141407717E+01 0.26014751997E+01 0.23445059140E+01
 0.20774502218E+01 0.18372443749E+01 0.16600630330E+01 0.15804893590E+01 0.16365962207E+01
 0.18808297249E+01 0.23928907451E+01 0.32900930718E+01 0.47321062826E+01 0.69193105943E+01
 0.10086659965E+02 0.14492825980E+02 0.20390850214E+02 0.27950364454E+02 0.37111390842E+02
 0.47404104799E+02 0.57838358361E+02 0.66984427649E+02 0.73290388669E+02 0.75545194214E+02
 0.73290388669E+02 0.66984427649E+02 0.57838358361E+02 0.47404104799E+02 0.37111390842E+02
 0.27950364454E+02 0.20390850214E+02 0.14492825980E+02 0.10086659965E+02 0.69193105943E+01
 0.47321062826E+01 0.32900930718E+01 0.23928907451E+01 0.18808297249E+01 0.16365962207E+01
 0.15804893590E+01 0.16600630330E+01 0.18372443749E+01 0.20774502218E+01 0.23445059140E+01
 0.26014751997E+01 0.28141407717E+01 0.29544053859E+01 0.18839500097E+01 0.18542049397E+01
 0.17713011382E+01 0.16508380014E+01 0.15128706706E+01 0.13819603415E+01 0.12882797940E+01
 0.12647276254E+01 0.13462289829E+01 0.15804893590E+01 0.20468606682E+01 0.28717933794E+01
 0.42380604434E+01 0.63946294683E+01 0.96709548781E+01 0.14492825980E+02 0.21389009828E+02
 0.30949953224E+02 0.43664075275E+02 0.59586185718E+02 0.77930650355E+02 0.96837805338E+02
 0.11356518998E+03 0.12514791010E+03 0.12929573290E+03 0.12514791010E+03 0.11356518998E+03
 0.96837805338E+02 0.77930650355E+02 0.59586185718E+02 0.43664075275E+02 0.30949953224E+02
 0.21389009828E+02 0.14492825980E+02 0.96709548781E+01 0.63946294683E+01 0.42380604434E+01
 0.28717933794E+01 0.20468606682E+01 0.15804893590E+01 0.13462289829E+01 0.12647276254E+01
 0.12882797940E+01 0.13819603415E+01 0.15128706706E+01 0.16508380014E+01 0.17713011382E+01
 0.18542049397E+01 0.11027127427E+01 0.10888561079E+01 0.10550283116E+01 0.10142901636E+01
 0.97406236972E+00 0.94594608205E+00 0.95873708452E+00 0.10514780751E+01 0.12647276254E+01
 0.16600630330E+01 0.23549860838E+01 0.35391963588E+01 0.54782184342E+01 0.85411517112E+01
 0.13259722431E+02 0.20390850214E+02 0.30949953224E+02 0.46139304239E+02 0.67014070991E+02
 0.93795295309E+02 0.12506717620E+03 0.15741557741E+03 0.18595046356E+03 0.20558039707E+03
 0.21254741459E+03 0.20558039707E+03 0.18595046356E+03 0.15741557741E+03 0.12506717620E+03
 0.93795295309E+02 0.67014070991E+02 0.46139304239E+02 0.30949953224E+02 0.20390850214E+02
 0.13259722431E+02 0.85411517112E+01 0.54782184342E+01 0.35391963588E+01 0.23549860838E+01
 0.16600630330E+01 0.12647276254E+01 0.10514780751E+01 0.95873708452E+00 0.94594608205E+00
 0.97406236972E+00 0.10142901636E+01 0.10550283116E+01 0.10888561079E+01 0.64718445873E+00
 0.63869932928E+00 0.62927026926E+00 0.63898956233E+00 0.66227646151E+00 0.69602372199E+00
 0.77635639040E+00 0.95873708452E+00 0.12882797940E+01 0.18372443749E+01 0.27720146221E+01
 0.43648413750E+01 0.69819195436E+01 0.11151203282E+02 0.17711491977E+02 0.27950364454E+02
 0.43664075275E+02 0.67014070991E+02 0.99874029584E+02 0.14251697860E+03 0.19222668366E+03
 0.24224765647E+03 0.28300311655E+03 0.30857897838E+03 0.31715652582E+03 0.30857897838E+03
 0.28300311655E+03 0.24224765647E+03 0.19222668366E+03 0.14251697860E+03 0.99874029584E+02
 0.67014070991E+02 0.43664075275E+02 0.27950364454E+02 0.17711491977E+02 0.11151203282E+02
 0.69819195436E+01 0.43648413750E+01 0.27720146221E+01 0.18372443749E+01 0.12882797940E+01
 0.95873708452E+00 0.77635639040E+00 0.69602372199E+00 0.66227646151E+00 0.63898956233E+00
 0.62927026926E+00 0.63869932928E+00 0.52637802981E+00 0.50682903168E+00 0.48373839626E+00
 0.50105371990E+00 0.54253311060E+00 0.58920641523E+00 0.69602372199E+00 0.94594608205E+00
 0.13819603415E+01 0.20774502218E+01 0.32576639427E+01 0.52973637726E+01 0.86790219312E+01
 0.14131591712E+02 0.22925676966E+02 0.37111390842E+02 0.59586185718E+02 0.93795295309E+02
 0.14251697860E+03 0.20553423002E+03 0.27469127475E+03 0.33427008864E+03 0.37435388980E+03
 0.39470186754E+03 0.40049250029E+03 0.39470186754E+03 0.37435388980E+03 0.33427008864E+03
 0.27469127475E+03 0.20553423002E+03 0.14251697860E+03 0.93795295309E+02 0.59586185718E+02
 0.37111390842E+02 0.22925676966E+02 0.14131591712E+02 0.86790219312E+01 0.52973637726E+01
 0.32576639427E+01 0.20774502218E+01 0.13819603415E+01 0.94594608205E+00 0.69602372199E+00
 0.58920641523E+00 0.54253311060E+00 0.50105371990E+00 0.48373839626E+00 0.50682903168E+00
 0.48481447082E+00 0.44930117944E+00 0.40643488943E+00 0.43293957506E+00 0.49328865604E+00
 0.54253311060E+00 0.66227646151E+00 0.97406236972E+00 0.15128706706E+01 0.23445059140E+01
 0.37630276630E+01 0.62624918163E+01 0.10451160319E+02 0.17294172352E+02 0.28606964430E+02
 0.47404104799E+02 0.77930650355E+02 0.12506717620E+03 0.19222668366E+03 0.27469127475E+03
 0.35099417765E+03 0.40057275872E+03 0.41806462224E+03 0.41560297558E+03 0.41184419771E+03
 0.41560297558E+03 0.41806462224E+03 0.40057275872E+03 0.35099417765E+03 0.27469127475E+03
 0.19222668366E+03 0.12506717620E+03 0.77930650355E+02 0.47404104799E+02 0.28606964430E+02
 0.17294172352E+02 0.10451160319E+02 0.62624918163E+01 0.37630276630E+01 0.23445059140E+01
 0.15128706706E+01 0.97406236972E+00 0.66227646151E+00 0.54253311060E+00 0.49328865604E+00
 0.43293957506E+00 0.40643488943E+00 0.44930117944E+00 0.34765583762E+00 0.30118248346E+00
 0.25685838375E+00 0.32363353114E+00 0.43293957506E+00 0.50105371990E+00 0.63898956233E+00
 0.10142901636E+01 0.16508380014E+01 0.26014751997E+01 0.42339314632E+01 0.71674037537E+01
 0.12134340045E+02 0.20349031522E+02 0.34227327240E+02 0.57838358361E+02 0.96837805338E+02
 0.15741557741E+03 0.24224765647E+03 0.33427008864E+03 0.40057275872E+03 0.41777473780E+03
 0.38912769876E+03 0.34553231616E+03 0.32526308549E+03 0.34553231616E+03 0.38912769876E+03
 0.41777473780E+03 0.40057275872E+03 0.33427008864E+03 0.24224765647E+03 0.15741557741E+03
 0.96837805338E+02 0.57838358361E+02 0.34227327240E+02 0.20349031522E+02 0.12134340045E+02
 0.71674037537E+01 0.42339314632E+01 0.26014751997E+01 0.16508380014E+01 0.10142901636E+01
 0.63898956233E+00 0.50105371990E+00 0.43293957506E+00 0.32363353114E+00 0.25685838375E+00
 0.30118248346E+00 0.26487800437E+00 0.20617993476E+00 0.15646072418E+00 0.25685838376E+00
 0.40643488943E+00 0.48373839626E+00 0.62927026926E+00 0.10550283116E+01 0.17713011382E+01
 0.28141407717E+01 0.46171390767E+01 0.79113914874E+01 0.13536244122E+02 0.22931288290E+02
 0.39068932872E+02 0.66984427649E+02 0.11356518998E+03 0.18595046356E+03 0.28300311655E+03
 0.37435388980E+03 0.41806462224E+03 0.38912769876E+03 0.30142922290E+03 0.20730871917E+03
 0.16707070713E+03 0.20730871917E+03 0.30142922290E+03 0.38912769876E+03 0.41806462224E+03
 0.37435388980E+03 0.28300311655E+03 0.18595046356E+03 0.11356518998E+03 0.66984427649E+02
 0.39068932872E+02 0.22931288290E+02 0.13536244122E+02 0.79113914874E+01 0.46171390767E+01
 0.28141407717E+01 0.17713011382E+01 0.10550283116E+01 0.62927026926E+00 0.48373839626E+00
 0.40643488943E+00 0.25685838375E+00 0.15646072418E+00 0.20617993476E+00 0.35811078647E+00
 0.28214626244E+00 0.20617993476E+00 0.30118248346E+00 0.44930117944E+00 0.50682903168E+00
 0.63869932928E+00 0.10888561079E+01 0.18542049397E+01 0.29544053859E+01 0.48674771203E+01
 0.84019988703E+01 0.14470121871E+02 0.24670076817E+02 0.42371216933E+02 0.73290388669E+02
 0.12514791010E+03 0.20558039707E+03 0.30857897838E+03 0.39470186754E+03 0.41560297558E+03
 0.34553231616E+03 0.20730871917E+03 0.70700959741E+02 0.13784229078E+02 0.70700959741E+02
 0.20730871917E+03 0.34553231616E+03 0.41560297558E+03 0.39470186754E+03 0.30857897838E+03
 0.20558039707E+03 0.12514791010E+03 0.73290388669E+02 0.42371216933E+02 0.24670076817E+02
 0.14470121871E+02 0.84019988703E+01 0.48674771203E+01 0.29544053859E+01 0.18542049397E+01
 0.10888561079E+01 0.63869932928E+00 0.50682903168E+00 0.44930117944E+00 0.30118248346E+00
 0.20617993476E+00 0.28214626244E+00 0.44325594665E+00 0.35811078647E+00 0.26487800437E+00
 0.34765583762E+00 0.48481447082E+00 0.52637802981E+00 0.64718445873E+00 0.11027127427E+01
 0.18839500097E+01 0.30034026764E+01 0.49545106836E+01 0.85734932435E+01 0.14798364678E+02
 0.25284680310E+02 0.43545997875E+02 0.75545194214E+02 0.12929573290E+03 0.21254741459E+03
 0.31715652582E+03 0.40049250029E+03 0.41184419771E+03 0.32526308549E+03 0.16707070713E+03
 0.13784229078E+02 -.49662291331E+02 0.13784229078E+02 0.16707070713E+03 0.32526308549E+03
 0.41184419771E+03 0.40049250029E+03 0.31715652582E+03 0.21254741459E+03 0.12929573290E+03
 0.75545194214E+02 0.43545997875E+02 0.25284680310E+02 0.14798364678E+02 0.85734932435E+01
 0.49545106836E+01 0.30034026764E+01 0.18839500097E+01 0.11027127427E+01 0.64718445873E+00
 0.52637802981E+00 0.48481447082E+00 0.34765583762E+00 0.26487800437E+00 0.35811078647E+00
 0.35811078647E+00 0.28214626244E+00 0.20617993476E+00 0.30118248346E+00 0.44930117944E+00
 0.50682903168E+00 0.63869932928E+00 0.10888561079E+01 0.18542049397E+01 0.29544053859E+01
 0.48674771203E+01 0.84019988703E+01 0.14470121871E+02 0.24670076817E+02 0.42371216933E+02
 0.73290388669E+02 0.12514791010E+03 0.20558039707E+03 0.30857897838E+03 0.39470186754E+03
 0.41560297558E+03 0.34553231616E+03 0.20730871917E+03 0.70700959741E+02 0.13784229078E+02
 0.70700959741E+02 0.20730871917E+03 0.34553231616E+03 0.41560297558E+03 0.39470186754E+03
 0.30857897838E+03 0.20558039707E+03 0.12514791010E+03 0.73290388669E+02 0.42371216933E+02
 0.24670076817E+02 0.14470121871E+02 0.84019988703E+01 0.48674771203E+01 0.29544053859E+01
 0.18542049397E+01 0.10888561079E+01 0.63869932928E+00 0.50682903168E+00 0.44930117944E+00
 0.30118248346E+00 0.20617993476E+00 0.28214626244E+00 0.26487800437E+00 0.20617993476E+00
 0.15646072418E+00 0.25685838376E+00 0.40643488943E+00 0.48373839626E+00 0.62927026926E+00
 0.10550283116E+01 0.17713011382E+01 0.28141407717E+01 0.46171390767E+01 0.79113914874E+01
 0.13536244122E+02 0.22931288290E+02 0.39068932872E+02 0.66984427649E+02 0.11356518998E+03
 0.18595046356E+03 0.28300311655E+03 0.37435388980E+03 0.41806462224E+03 0.38912769876E+03
 0.30142922290E+03 0.20730871917E+03 0.16707070713E+03 0.20730871917E+03 0.30142922290E+03
 0.38912769876E+03 0.41806462224E+03 0.37435388980E+03 0.28300311655E+03 0.18595046356E+03
 0.11356518998E+03 0.66984427649E+02 0.39068932872E+02 0.22931288290E+02 0.13536244122E+02
 0.79113914874E+01 0.46171390767E+01 0.28141407717E+01 0.17713011382E+01 0.10550283116E+01
 0.62927026926E+00 0.48373839626E+00 0.40643488943E+00 0.25685838376E+00 0.15646072418E+00
 0.20617993476E+00 0.34765583762E+00 0.30118248346E+00 0.25685838376E+00 0.32363353114E+00
 0.43293957506E+00 0.50105371990E+00 0.63898956233E+00 0.10142901636E+01 0.16508380014E+01
 0.26014751997E+01 0.42339314632E+01 0.71674037537E+01 0.12134340045E+02 0.20349031522E+02
 0.34227327240E+02 0.57838358361E+02 0.96837805338E+02 0.15741557741E+03 0.24224765647E+03
 0.33427008864E+03 0.40057275872E+03 0.41777473780E+03 0.38912769876E+03 0.34553231616E+03
 0.32526308549E+03 0.34553231616E+03 0.38912769876E+03 0.41777473780E+03 0.40057275872E+03
 0.33427008864E+03 0.24224765647E+03 0.15741557741E+03 0.96837805338E+02 0.57838358361E+02
 0.34227327240E+02 0.20349031522E+02 0.12134340045E+02 0.71674037537E+01 0.42339314632E+01
 0.26014751997E+01 0.16508380014E+01 0.10142901636E+01 0.63898956233E+00 0.50105371990E+00
 0.43293957506E+00 0.32363353114E+00 0.25685838375E+00 0.30118248346E+00 0.48481447082E+00
 0.44930117944E+00 0.40643488943E+00 0.43293957506E+00 0.49328865604E+00 0.54253311060E+00
 0.66227646151E+00 0.97406236972E+00 0.15128706706E+01 0.23445059140E+01 0.37630276630E+01
 0.62624918163E+01 0.10451160319E+02 0.17294172352E+02 0.28606964430E+02 0.47404104799E+02
 0.77930650355E+02 0.12506717620E+03 0.19222668366E+03 0.27469127475E+03 0.35099417765E+03
 0.40057275872E+03 0.41806462224E+03 0.41560297558E+03 0.41184419771E+03 0.41560297558E+03
 0.41806462224E+03 0.40057275872E+03 0.35099417765E+03 0.27469127475E+03 0.19222668366E+03
 0.12506717620E+03 0.77930650355E+02 0.47404104799E+02 0.28606964430E+02 0.17294172352E+02
 0.10451160319E+02 0.62624918163E+01 0.37630276630E+01 0.23445059140E+01 0.15128706706E+01
 0.97406236972E+00 0.66227646151E+00 0.54253311060E+00 0.49328865604E+00 0.43293957506E+00
 0.40643488943E+00 0.44930117944E+00 0.52637802981E+00 0.50682903168E+00 0.48373839626E+00
 0.50105371990E+00 0.54253311060E+00 0.58920641523E+00 0.69602372199E+00 0.94594608205E+00
 0.13819603415E+01 0.20774502218E+01 0.32576639427E+01 0.52973637726E+01 0.86790219312E+01
 0.14131591712E+02 0.22925676966E+02 0.37111390842E+02 0.59586185718E+02 0.93795295309E+02
 0.14251697860E+03 0.20553423002E+03 0.27469127475E+03 0.33427008864E+03 0.37435388980E+03
 0.39470186754E+03 0.40049250029E+03 0.39470186754E+03 0.37435388980E+03 0.33427008864E+03
 0.27469127475E+03 0.20553423002E+03 0.14251697860E+03 0.93795295309E+02 0.59586185718E+02
 0.37111390842E+02 0.22925676966E+02 0.14131591712E+02 0.86790219312E+01 0.52973637726E+01
 0.32576639427E+01 0.20774502218E+01 0.13819603415E+01 0.94594608205E+00 0.69602372199E+00
 0.58920641523E+00 0.54253311060E+00 0.50105371990E+00 0.48373839626E+00 0.50682903168E+00
 0.64718445873E+00 0.63869932928E+00 0.62927026926E+00 0.63898956233E+00 0.66227646151E+00
 0.69602372199E+00 0.77635639040E+00 0.95873708452E+00 0.12882797940E+01 0.18372443749E+01
 0.27720146221E+01 0.43648413750E+01 0.69819195436E+01 0.11151203282E+02 0.17711491977E+02
 0.27950364454E+02 0.43664075275E+02 0.67014070991E+02 0.99874029584E+02 0.14251697860E+03
 0.19222668366E+03 0.24224765647E+03 0.28300311655E+03 0.30857897838E+03 0.31715652582E+03
 0.30857897838E+03 0.28300311655E+03 0.24224765647E+03 0.19222668366E+03 0.14251697860E+03
 0.99874029584E+02 0.67014070991E+02 0.43664075275E+02 0.27950364454E+02 0.17711491977E+02
 0.11151203282E+02 0.69819195436E+01 0.43648413750E+01 0.27720146221E+01 0.18372443749E+01
 0.12882797940E+01 0.95873708452E+00 0.77635639040E+00 0.69602372199E+00 0.66227646151E+00
 0.63898956233E+00 0.62927026926E+00 0.63869932928E+00 0.11027127427E+01 0.10888561079E+01
 0.10550283116E+01 0.10142901636E+01 0.97406236972E+00 0.94594608205E+00 0.95873708452E+00
 0.10514780751E+01 0.12647276254E+01 0.16600630330E+01 0.23549860838E+01 0.35391963588E+01
 0.54782184342E+01 0.85411517112E+01 0.13259722431E+02 0.20390850214E+02 0.30949953224E+02
 0.46139304239E+02 0.67014070991E+02 0.93795295309E+02 0.12506717620E+03 0.15741557741E+03
 0.18595046356E+03 0.20558039707E+03 0.21254741459E+03 0.20558039707E+03 0.18595046356E+03
 0.15741557741E+03 0.12506717620E+03 0.93795295309E+02 0.67014070991E+02 0.46139304239E+02
 0.30949953224E+02 0.20390850214E+02 0.13259722431E+02 0.85411517112E+01 0.54782184342E+01
 0.35391963588E+01 0.23549860838E+01 0.16600630330E+01 0.12647276254E+01 0.10514780751E+01
 0.95873708452E+00 0.94594608205E+00 0.97406236972E+00 0.10142901636E+01 0.10550283116E+01
 0.10888561079E+01 0.18839500097E+01 0.18542049397E+01 0.17713011382E+01 0.16508380014E+01
 0.15128706706E+01 0.13819603415E+01 0.12882797940E+01 0.12647276254E+01 0.13462289829E+01
 0.15804893590E+01 0.20468606682E+01 0.28717933794E+01 0.42380604434E+01 0.63946294683E+01
 0.96709548781E+01 0.14492825980E+02 0.21389009828E+02 0.30949953224E+02 0.43664075275E+02
 0.59586185718E+02 0.77930650355E+02 0.96837805338E+02 0.11356518998E+03 0.12514791010E+03
 0.12929573290E+03 0.12514791010E+03 0.11356518998E+03 0.96837805338E+02 0.77930650355E+02
 0.59586185718E+02 0.43664075275E+02 0.30949953224E+02 0.21389009828E+02 0.14492825980E+02
 0.96709548781E+01 0.63946294683E+01 0.42380604434E+01 0.28717933794E+01 0.20468606682E+01
 0.15804893590E+01 0.13462289829E+01 0.12647276254E+01 0.12882797940E+01 0.13819603415E+01
 0.15128706706E+01 0.16508380014E+01 0.17713011382E+01 0.18542049397E+01 0.30034026764E+01
 0.29544053859E+01 0.28141407717E+01 0.26014751997E+01 0.23445059140E+01 0.20774502218E+01
 0.18372443749E+01 0.16600630330E+01 0.15804893590E+01 0.16365962207E+01 0.18808297249E+01
 0.23928907451E+01 0.32900930718E+01 0.47321062826E+01 0.69193105943E+01 0.10086659965E+02
 0.14492825980E+02 0.20390850214E+02 0.27950364454E+02 0.37111390842E+02 0.47404104799E+02
 0.57838358361E+02 0.66984427649E+02 0.73290388669E+02 0.75545194214E+02 0.73290388669E+02
 0.66984427649E+02 0.57838358361E+02 0.47404104799E+02 0.37111390842E+02 0.27950364454E+02
 0.20390850214E+02 0.14492825980E+02 0.10086659965E+02 0.69193105943E+01 0.47321062826E+01
 0.32900930718E+01 0.23928907451E+01 0.18808297249E+01 0.16365962207E+01 0.15804893590E+01