   4   4   0   0
  0.6644022E+02  0.6429300E-09  0.6429300E-09  0.6429300E-09  0.5000000E-15
  1.000000000000000E-004
  CAR 
 Kr                                      
     14.59838277    -22.08258825  301     -6.04994717      1.00000000
    -22.083  0.0000E+00  0.0000E+00
    -21.960  0.0000E+00  0.0000E+00
    -21.838  0.0000E+00  0.0000E+00
    -21.716  0.0000E+00  0.0000E+00
    -21.594  0.0000E+00  0.0000E+00
    -21.471  0.0000E+00  0.0000E+00
    -21.349  0.0000E+00  0.0000E+00
    -21.227  0.0000E+00  0.0000E+00
    -21.104  0.0000E+00  0.0000E+00
    -20.982  0.0000E+00  0.0000E+00
    -20.860  0.0000E+00  0.0000E+00
    -20.738  0.0000E+00  0.0000E+00
    -20.615  0.6927E-08  0.8469E-09
    -20.493  0.4807E-01  0.5878E-02
    -20.371  0.3222E+02  0.3945E+01
    -20.249  0.3313E+02  0.7996E+01
    -20.126  0.3153E-01  0.8000E+01
    -20.004  0.7171E-09  0.8000E+01
    -19.882  0.0000E+00  0.8000E+01
    -19.759  0.0000E+00  0.8000E+01
    -19.637  0.0000E+00  0.8000E+01
    -19.515  0.0000E+00  0.8000E+01
    -19.393  0.0000E+00  0.8000E+01
    -19.270  0.0000E+00  0.8000E+01
    -19.148  0.0000E+00  0.8000E+01
    -19.026  0.0000E+00  0.8000E+01
    -18.904  0.0000E+00  0.8000E+01
    -18.781  0.0000E+00  0.8000E+01
    -18.659  0.0000E+00  0.8000E+01
    -18.537  0.0000E+00  0.8000E+01
    -18.414  0.0000E+00  0.8000E+01
    -18.292  0.0000E+00  0.8000E+01
    -18.170  0.0000E+00  0.8000E+01
    -18.048  0.0000E+00  0.8000E+01
    -17.925  0.0000E+00  0.8000E+01
    -17.803  0.0000E+00  0.8000E+01
    -17.681  0.0000E+00  0.8000E+01
    -17.559  0.0000E+00  0.8000E+01
    -17.436  0.0000E+00  0.8000E+01
    -17.314  0.0000E+00  0.8000E+01
    -17.192  0.0000E+00  0.8000E+01
    -17.070  0.0000E+00  0.8000E+01
    -16.947  0.0000E+00  0.8000E+01
    -16.825  0.0000E+00  0.8000E+01
    -16.703  0.0000E+00  0.8000E+01
    -16.580  0.0000E+00  0.8000E+01
    -16.458  0.0000E+00  0.8000E+01
    -16.336  0.0000E+00  0.8000E+01
    -16.214  0.0000E+00  0.8000E+01
    -16.091  0.0000E+00  0.8000E+01
    -15.969  0.0000E+00  0.8000E+01
    -15.847  0.0000E+00  0.8000E+01
    -15.725  0.0000E+00  0.8000E+01
    -15.602  0.0000E+00  0.8000E+01
    -15.480  0.0000E+00  0.8000E+01
    -15.358  0.0000E+00  0.8000E+01
    -15.235  0.0000E+00  0.8000E+01
    -15.113  0.0000E+00  0.8000E+01
    -14.991  0.0000E+00  0.8000E+01
    -14.869  0.0000E+00  0.8000E+01
    -14.746  0.0000E+00  0.8000E+01
    -14.624  0.0000E+00  0.8000E+01
    -14.502  0.0000E+00  0.8000E+01
    -14.380  0.0000E+00  0.8000E+01
    -14.257  0.0000E+00  0.8000E+01
    -14.135  0.0000E+00  0.8000E+01
    -14.013  0.0000E+00  0.8000E+01
    -13.891  0.0000E+00  0.8000E+01
    -13.768  0.0000E+00  0.8000E+01
    -13.646  0.0000E+00  0.8000E+01
    -13.524  0.0000E+00  0.8000E+01
    -13.401  0.0000E+00  0.8000E+01
    -13.279  0.0000E+00  0.8000E+01
    -13.157  0.0000E+00  0.8000E+01
    -13.035  0.0000E+00  0.8000E+01
    -12.912  0.0000E+00  0.8000E+01
    -12.790  0.0000E+00  0.8000E+01
    -12.668  0.0000E+00  0.8000E+01
    -12.546  0.0000E+00  0.8000E+01
    -12.423  0.0000E+00  0.8000E+01
    -12.301  0.0000E+00  0.8000E+01
    -12.179  0.0000E+00  0.8000E+01
    -12.056  0.0000E+00  0.8000E+01
    -11.934  0.0000E+00  0.8000E+01
    -11.812  0.0000E+00  0.8000E+01
    -11.690  0.0000E+00  0.8000E+01
    -11.567  0.0000E+00  0.8000E+01
    -11.445  0.0000E+00  0.8000E+01
    -11.323  0.0000E+00  0.8000E+01
    -11.201  0.0000E+00  0.8000E+01
    -11.078  0.0000E+00  0.8000E+01
    -10.956  0.0000E+00  0.8000E+01
    -10.834  0.0000E+00  0.8000E+01
    -10.711  0.0000E+00  0.8000E+01
    -10.589  0.0000E+00  0.8000E+01
    -10.467  0.0000E+00  0.8000E+01
    -10.345  0.0000E+00  0.8000E+01
    -10.222  0.0000E+00  0.8000E+01
    -10.100  0.0000E+00  0.8000E+01
     -9.978  0.0000E+00  0.8000E+01
     -9.856  0.0000E+00  0.8000E+01
     -9.733  0.0000E+00  0.8000E+01
     -9.611  0.0000E+00  0.8000E+01
     -9.489  0.0000E+00  0.8000E+01
     -9.367  0.0000E+00  0.8000E+01
     -9.244  0.0000E+00  0.8000E+01
     -9.122  0.0000E+00  0.8000E+01
     -9.000  0.0000E+00  0.8000E+01
     -8.877  0.0000E+00  0.8000E+01
     -8.755  0.0000E+00  0.8000E+01
     -8.633  0.0000E+00  0.8000E+01
     -8.511  0.0000E+00  0.8000E+01
     -8.388  0.0000E+00  0.8000E+01
     -8.266  0.0000E+00  0.8000E+01
     -8.144  0.0000E+00  0.8000E+01
     -8.022  0.0000E+00  0.8000E+01
     -7.899  0.0000E+00  0.8000E+01
     -7.777  0.0000E+00  0.8000E+01
     -7.655  0.0000E+00  0.8000E+01
     -7.532  0.0000E+00  0.8000E+01
     -7.410  0.0000E+00  0.8000E+01
     -7.288  0.0000E+00  0.8000E+01
     -7.166  0.1284E-11  0.8000E+01
     -7.043  0.1726E-03  0.8000E+01
     -6.921  0.1188E+01  0.8145E+01
     -6.799  0.2601E+02  0.1133E+02
     -6.677  0.3162E+02  0.1519E+02
     -6.554  0.2820E+02  0.1864E+02
     -6.432  0.5988E+02  0.2596E+02
     -6.310  0.4709E+02  0.3172E+02
     -6.188  0.2294E+01  0.3200E+02
     -6.065  0.1363E-03  0.3200E+02
     -5.943  0.2586E-12  0.3200E+02
     -5.821  0.0000E+00  0.3200E+02
     -5.698  0.0000E+00  0.3200E+02
     -5.576  0.0000E+00  0.3200E+02
     -5.454  0.0000E+00  0.3200E+02
     -5.332  0.0000E+00  0.3200E+02
     -5.209  0.0000E+00  0.3200E+02
     -5.087  0.0000E+00  0.3200E+02
     -4.965  0.0000E+00  0.3200E+02
     -4.843  0.0000E+00  0.3200E+02
     -4.720  0.0000E+00  0.3200E+02
     -4.598  0.0000E+00  0.3200E+02
     -4.476  0.0000E+00  0.3200E+02
     -4.353  0.0000E+00  0.3200E+02
     -4.231  0.0000E+00  0.3200E+02
     -4.109  0.0000E+00  0.3200E+02
     -3.987  0.0000E+00  0.3200E+02
     -3.864  0.0000E+00  0.3200E+02
     -3.742  0.0000E+00  0.3200E+02
     -3.620  0.0000E+00  0.3200E+02
     -3.498  0.0000E+00  0.3200E+02
     -3.375  0.0000E+00  0.3200E+02
     -3.253  0.0000E+00  0.3200E+02
     -3.131  0.0000E+00  0.3200E+02
     -3.008  0.0000E+00  0.3200E+02
     -2.886  0.0000E+00  0.3200E+02
     -2.764  0.0000E+00  0.3200E+02
     -2.642  0.0000E+00  0.3200E+02
     -2.519  0.0000E+00  0.3200E+02
     -2.397  0.0000E+00  0.3200E+02
     -2.275  0.0000E+00  0.3200E+02
     -2.153  0.0000E+00  0.3200E+02
     -2.030  0.0000E+00  0.3200E+02
     -1.908  0.0000E+00  0.3200E+02
     -1.786  0.0000E+00  0.3200E+02
     -1.664  0.0000E+00  0.3200E+02
     -1.541  0.0000E+00  0.3200E+02
     -1.419  0.0000E+00  0.3200E+02
     -1.297  0.0000E+00  0.3200E+02
     -1.174  0.0000E+00  0.3200E+02
     -1.052  0.0000E+00  0.3200E+02
     -0.930  0.0000E+00  0.3200E+02
     -0.808  0.0000E+00  0.3200E+02
     -0.685  0.0000E+00  0.3200E+02
     -0.563  0.0000E+00  0.3200E+02
     -0.441  0.0000E+00  0.3200E+02
     -0.319  0.0000E+00  0.3200E+02
     -0.196  0.0000E+00  0.3200E+02
     -0.074  0.0000E+00  0.3200E+02
      0.048  0.0000E+00  0.3200E+02
      0.171  0.0000E+00  0.3200E+02
      0.293  0.0000E+00  0.3200E+02
      0.415  0.0000E+00  0.3200E+02
      0.537  0.0000E+00  0.3200E+02
      0.660  0.1324E-08  0.3200E+02
      0.782  0.9126E-03  0.3200E+02
      0.904  0.5155E-01  0.3201E+02
      1.026  0.3006E+00  0.3204E+02
      1.149  0.4290E+00  0.3210E+02
      1.271  0.3407E+00  0.3214E+02
      1.393  0.1031E+01  0.3226E+02
      1.516  0.4597E+00  0.3232E+02
      1.638  0.7462E+00  0.3241E+02
      1.760  0.1233E+01  0.3256E+02
      1.882  0.1042E+01  0.3269E+02
      2.005  0.1148E+01  0.3283E+02
      2.127  0.1255E+01  0.3298E+02
      2.249  0.1247E+01  0.3314E+02
      2.371  0.1892E+01  0.3337E+02
      2.494  0.1858E+01  0.3359E+02
      2.616  0.1769E+01  0.3381E+02
      2.738  0.1183E+01  0.3395E+02
      2.860  0.3589E+01  0.3439E+02
      2.983  0.2335E+01  0.3468E+02
      3.105  0.2566E+01  0.3499E+02
      3.227  0.3685E+01  0.3544E+02
      3.350  0.4739E+01  0.3602E+02
      3.472  0.5164E+01  0.3665E+02
      3.594  0.3320E+01  0.3706E+02
      3.716  0.5234E+01  0.3770E+02
      3.839  0.5382E+01  0.3836E+02
      3.961  0.2489E+01  0.3866E+02
      4.083  0.4565E+01  0.3922E+02
      4.205  0.3928E+01  0.3970E+02
      4.328  0.2435E+01  0.4000E+02
      4.450  0.2046E+01  0.4025E+02
      4.572  0.5666E+01  0.4094E+02
      4.695  0.6742E+01  0.4177E+02
      4.817  0.1350E+02  0.4342E+02
      4.939  0.7860E+01  0.4438E+02
      5.061  0.7382E+01  0.4528E+02
      5.184  0.6951E+01  0.4613E+02
      5.306  0.6397E+01  0.4691E+02
      5.428  0.1230E+02  0.4842E+02
      5.550  0.1141E+02  0.4981E+02
      5.673  0.1041E+02  0.5109E+02
      5.795  0.7927E+01  0.5205E+02
      5.917  0.4443E+01  0.5260E+02
      6.039  0.4514E+01  0.5315E+02
      6.162  0.3302E+01  0.5355E+02
      6.284  0.4813E+01  0.5414E+02
      6.406  0.3131E+01  0.5453E+02
      6.529  0.2101E+01  0.5478E+02
      6.651  0.3427E+01  0.5520E+02
      6.773  0.4840E+01  0.5579E+02
      6.895  0.6665E+01  0.5661E+02
      7.018  0.8264E+01  0.5762E+02
      7.140  0.1165E+02  0.5904E+02
      7.262  0.1237E+02  0.6056E+02
      7.384  0.8539E+01  0.6160E+02
      7.507  0.5548E+01  0.6228E+02
      7.629  0.5956E+01  0.6301E+02
      7.751  0.5442E+01  0.6367E+02
      7.874  0.3481E+01  0.6410E+02
      7.996  0.3593E+01  0.6454E+02
      8.118  0.5270E+01  0.6518E+02
      8.240  0.3949E+01  0.6566E+02
      8.363  0.2573E+01  0.6598E+02
      8.485  0.9719E+01  0.6717E+02
      8.607  0.6946E+01  0.6802E+02
      8.729  0.7933E+01  0.6899E+02
      8.852  0.6965E+01  0.6984E+02
      8.974  0.8491E+01  0.7088E+02
      9.096  0.4625E+01  0.7144E+02
      9.219  0.5889E+01  0.7216E+02
      9.341  0.4310E+01  0.7269E+02
      9.463  0.6078E+01  0.7343E+02
      9.585  0.3727E+01  0.7389E+02
      9.708  0.6356E+01  0.7466E+02
      9.830  0.7634E+01  0.7560E+02
      9.952  0.6251E+01  0.7636E+02
     10.074  0.7500E+01  0.7728E+02
     10.197  0.1043E+02  0.7855E+02
     10.319  0.9881E+01  0.7976E+02
     10.441  0.1257E+02  0.8130E+02
     10.563  0.1236E+02  0.8281E+02
     10.686  0.1309E+02  0.8441E+02
     10.808  0.8963E+01  0.8551E+02
     10.930  0.6338E+01  0.8628E+02
     11.053  0.1057E+02  0.8757E+02
     11.175  0.9949E+01  0.8879E+02
     11.297  0.7340E+01  0.8969E+02
     11.419  0.2949E+01  0.9005E+02
     11.542  0.4184E+01  0.9056E+02
     11.664  0.3460E+01  0.9098E+02
     11.786  0.9067E+01  0.9209E+02
     11.908  0.9391E+01  0.9324E+02
     12.031  0.4285E+01  0.9376E+02
     12.153  0.3948E+01  0.9424E+02
     12.275  0.3112E+01  0.9463E+02
     12.398  0.5249E+01  0.9527E+02
     12.520  0.4007E+01  0.9576E+02
     12.642  0.1055E+01  0.9589E+02
     12.764  0.1630E+00  0.9591E+02
     12.887  0.8516E-01  0.9592E+02
     13.009  0.6731E+00  0.9600E+02
     13.131  0.9979E-02  0.9600E+02
     13.253  0.5076E-08  0.9600E+02
     13.376  0.0000E+00  0.9600E+02
     13.498  0.0000E+00  0.9600E+02
     13.620  0.0000E+00  0.9600E+02
     13.742  0.0000E+00  0.9600E+02
     13.865  0.0000E+00  0.9600E+02
     13.987  0.0000E+00  0.9600E+02
     14.109  0.0000E+00  0.9600E+02
     14.232  0.0000E+00  0.9600E+02
     14.354  0.0000E+00  0.9600E+02
     14.476  0.0000E+00  0.9600E+02
     14.598  0.0000E+00  0.9600E+02
