<?xml version="1.0" encoding="ISO-8859-1"?>
<modeling>
 <generator>
  <i name="program" type="string">vasp </i>
  <i name="version" type="string">6.4.3  </i>
  <i name="subversion" type="string">19Mar24 (build Jun 26 2024 13:02:28) complex                          parallel </i>
  <i name="platform" type="string">LinuxIFC </i>
  <i name="date" type="string">2025 08 08 </i>
  <i name="time" type="string">18:47:28 </i>
 </generator>
 <incar>
  <i type="string" name="SYSTEM">Kr</i>
  <i type="int" name="IBRION">    -1</i>
  <i type="int" name="ISYM">     2</i>
  <i name="ENCUT">    240.93030000</i>
  <i type="int" name="ISMEAR">     0</i>
  <i name="SIGMA">      0.05000000</i>
  <i type="logical" name="LWAVE"> T  </i>
  <i type="logical" name="LCHARG"> T  </i>
 </incar>
 <primitive_cell>
  <structure name="primitive_cell" >
   <crystal>
    <varray name="basis" >
     <v>       3.21465000      -3.21465000       0.00000000 </v>
     <v>       3.21465000       0.00000000       3.21465000 </v>
     <v>       0.00000000      -3.21465000       3.21465000 </v>
    </varray>
    <i name="volume">     66.44022304 </i>
    <varray name="rec_basis" >
     <v>       0.15553793      -0.15553793      -0.15553793 </v>
     <v>       0.15553793       0.15553793       0.15553793 </v>
     <v>      -0.15553793      -0.15553793       0.15553793 </v>
    </varray>
   </crystal>
   <varray name="positions" >
    <v>       0.00000000       0.00000000       0.00000000 </v>
   </varray>
  </structure>
  <varray name="primitive_index" >
   <v type="int" >        1 </v>
  </varray>
 </primitive_cell>
 <kpoints>
  <generation param="Gamma">
   <v type="int" name="divisions">       8        8        8 </v>
   <v name="usershift">      0.00000000       0.00000000       0.00000000 </v>
   <v name="genvec1">      0.12500000      -0.00000000       0.00000000 </v>
   <v name="genvec2">      0.00000000       0.12500000       0.00000000 </v>
   <v name="genvec3">     -0.00000000      -0.00000000       0.12500000 </v>
   <v name="shift">      0.00000000       0.00000000       0.00000000 </v>
  </generation>
  <varray name="kpointlist" >
   <v>       0.00000000       0.00000000       0.00000000 </v>
   <v>       0.12500000       0.00000000       0.00000000 </v>
   <v>       0.25000000       0.00000000       0.00000000 </v>
   <v>       0.37500000       0.00000000       0.00000000 </v>
   <v>       0.50000000       0.00000000       0.00000000 </v>
   <v>       0.12500000       0.12500000       0.00000000 </v>
   <v>       0.25000000       0.12500000       0.00000000 </v>
   <v>       0.37500000       0.12500000       0.00000000 </v>
   <v>       0.50000000       0.12500000       0.00000000 </v>
   <v>       0.25000000       0.25000000       0.00000000 </v>
   <v>       0.37500000       0.25000000       0.00000000 </v>
   <v>       0.50000000       0.25000000       0.00000000 </v>
   <v>       0.37500000       0.37500000       0.00000000 </v>
   <v>       0.50000000       0.37500000       0.00000000 </v>
   <v>       0.50000000       0.50000000       0.00000000 </v>
   <v>       0.12500000       0.12500000       0.12500000 </v>
   <v>       0.25000000       0.12500000       0.12500000 </v>
   <v>       0.37500000       0.12500000       0.12500000 </v>
   <v>       0.50000000       0.12500000       0.12500000 </v>
   <v>       0.25000000       0.25000000       0.12500000 </v>
   <v>       0.37500000       0.25000000       0.12500000 </v>
   <v>       0.50000000       0.25000000       0.12500000 </v>
   <v>       0.37500000       0.37500000       0.12500000 </v>
   <v>       0.50000000       0.37500000       0.12500000 </v>
   <v>       0.50000000       0.50000000       0.12500000 </v>
   <v>       0.25000000       0.25000000       0.25000000 </v>
   <v>       0.37500000       0.25000000       0.25000000 </v>
   <v>       0.50000000       0.25000000       0.25000000 </v>
   <v>       0.37500000       0.37500000       0.25000000 </v>
   <v>       0.50000000       0.37500000       0.25000000 </v>
   <v>       0.50000000       0.50000000       0.25000000 </v>
   <v>       0.37500000       0.37500000       0.37500000 </v>
   <v>       0.50000000       0.37500000       0.37500000 </v>
   <v>       0.50000000       0.50000000       0.37500000 </v>
   <v>       0.50000000       0.50000000       0.50000000 </v>
  </varray>
  <varray name="weights" >
   <v>       0.00195312 </v>
   <v>       0.01171875 </v>
   <v>       0.01171875 </v>
   <v>       0.01171875 </v>
   <v>       0.00585938 </v>
   <v>       0.02343750 </v>
   <v>       0.04687500 </v>
   <v>       0.04687500 </v>
   <v>       0.02343750 </v>
   <v>       0.02343750 </v>
   <v>       0.04687500 </v>
   <v>       0.02343750 </v>
   <v>       0.02343750 </v>
   <v>       0.02343750 </v>
   <v>       0.00585938 </v>
   <v>       0.01562500 </v>
   <v>       0.04687500 </v>
   <v>       0.04687500 </v>
   <v>       0.02343750 </v>
   <v>       0.04687500 </v>
   <v>       0.09375000 </v>
   <v>       0.04687500 </v>
   <v>       0.04687500 </v>
   <v>       0.04687500 </v>
   <v>       0.01171875 </v>
   <v>       0.01562500 </v>
   <v>       0.04687500 </v>
   <v>       0.02343750 </v>
   <v>       0.04687500 </v>
   <v>       0.04687500 </v>
   <v>       0.01171875 </v>
   <v>       0.01562500 </v>
   <v>       0.02343750 </v>
   <v>       0.01171875 </v>
   <v>       0.00195312 </v>
  </varray>
 </kpoints>
 <parameters>
  <separator name="general" >
   <i type="string" name="SYSTEM">Kr</i>
   <i type="logical" name="LCOMPAT"> F  </i>
  </separator>
  <separator name="electronic" >
   <i type="string" name="PREC">normal</i>
   <i name="ENMAX">    240.93030000</i>
   <i name="ENAUG">    334.95000000</i>
   <i name="EDIFF">      0.00010000</i>
   <i type="int" name="IALGO">    38</i>
   <i type="int" name="IWAVPR">    10</i>
   <i type="int" name="NBANDS">    48</i>
   <i type="int" name="NBANDSLOW">    -1</i>
   <i type="int" name="NBANDSHIGH">    -1</i>
   <i name="NELECT">     32.00000000</i>
   <i type="int" name="TURBO">     0</i>
   <i type="int" name="IRESTART">     0</i>
   <i type="int" name="NREBOOT">     0</i>
   <i type="int" name="NMIN">     0</i>
   <i name="EREF">      0.00000000</i>
   <separator name="electronic smearing" >
    <i type="int" name="ISMEAR">     0</i>
    <i name="SIGMA">      0.05000000</i>
    <i name="KSPACING">      0.50000000</i>
    <i type="logical" name="KGAMMA"> T  </i>
    <i type="logical" name="KBLOWUP"> T  </i>
   </separator>
   <separator name="electronic projectors" >
    <i type="logical" name="LREAL"> F  </i>
    <v name="ROPT">      0.00000000</v>
    <i type="int" name="LMAXPAW">  -100</i>
    <i type="int" name="LMAXMIX">     2</i>
    <i type="logical" name="NLSPLINE"> F  </i>
   </separator>
   <separator name="electronic startup" >
    <i type="int" name="ISTART">     1</i>
    <i type="int" name="ICHARG">     0</i>
    <i type="int" name="INIWAV">     1</i>
   </separator>
   <separator name="electronic spin" >
    <i type="int" name="ISPIN">     1</i>
    <i type="logical" name="LNONCOLLINEAR"> F  </i>
    <v name="MAGMOM">      1.00000000      1.00000000      1.00000000      1.00000000</v>
    <i name="NUPDOWN">     -1.00000000</i>
    <i type="logical" name="LSORBIT"> F  </i>
    <v name="SAXIS">      0.00000000      0.00000000      1.00000000</v>
    <i type="logical" name="LSPIRAL"> F  </i>
    <v name="QSPIRAL">      0.00000000      0.00000000      0.00000000</v>
    <i type="logical" name="LZEROZ"> F  </i>
   </separator>
   <separator name="electronic exchange-correlation" >
    <i type="logical" name="LASPH"> F  </i>
   </separator>
   <separator name="electronic convergence" >
    <i type="int" name="NELM">    60</i>
    <i type="int" name="NELMDL">     0</i>
    <i type="int" name="NELMIN">     2</i>
    <i name="ENINI">    240.93030000</i>
    <separator name="electronic convergence detail" >
     <i type="logical" name="LDIAG"> T  </i>
     <i type="logical" name="LSUBROT"> F  </i>
     <i name="WEIMIN">      0.00000000</i>
     <i name="EBREAK">      0.00000052</i>
     <i name="DEPER">      0.30000000</i>
     <i type="int" name="NRMM">     4</i>
     <i name="TIME">      0.40000000</i>
    </separator>
   </separator>
   <separator name="electronic mixer" >
    <i name="AMIX">      0.40000000</i>
    <i name="BMIX">      1.00000000</i>
    <i name="AMIN">      0.10000000</i>
    <i name="AMIX_MAG">      1.60000000</i>
    <i name="BMIX_MAG">      1.00000000</i>
    <separator name="electronic mixer details" >
     <i type="int" name="IMIX">     4</i>
     <i type="logical" name="MIXFIRST"> F  </i>
     <i type="int" name="MAXMIX">   -45</i>
     <i name="WC">    100.00000000</i>
     <i type="int" name="INIMIX">     1</i>
     <i type="int" name="MIXPRE">     1</i>
     <i type="int" name="MREMOVE">     5</i>
    </separator>
   </separator>
   <separator name="electronic dipolcorrection" >
    <i type="logical" name="LDIPOL"> F  </i>
    <i type="logical" name="LMONO"> F  </i>
    <i type="int" name="IDIPOL">     0</i>
    <i name="EPSILON">      1.00000000</i>
    <v name="DIPOL">   -100.00000000   -100.00000000   -100.00000000</v>
    <i name="EFIELD">      0.00000000</i>
    <i type="logical" name="LVACPOTAV"> F  </i>
   </separator>
  </separator>
  <separator name="grids" >
   <i type="int" name="NGX">    24</i>
   <i type="int" name="NGY">    24</i>
   <i type="int" name="NGZ">    24</i>
   <i type="int" name="NGXF">    48</i>
   <i type="int" name="NGYF">    48</i>
   <i type="int" name="NGZF">    48</i>
   <i type="logical" name="ADDGRID"> F  </i>
  </separator>
  <separator name="ionic" >
   <i type="int" name="NSW">     0</i>
   <i type="int" name="IBRION">    -1</i>
   <i type="int" name="MDALGO">     0</i>
   <i type="int" name="ISIF">     2</i>
   <i name="PSTRESS">      0.00000000</i>
   <i name="EDIFFG">      0.00100000</i>
   <i type="int" name="NFREE">     0</i>
   <i name="POTIM">      0.50000000</i>
   <i name="SMASS">     -3.00000000</i>
   <i name="SCALEE">      1.00000000</i>
  </separator>
  <separator name="ionic md" >
   <i name="TEBEG">      0.00010000</i>
   <i name="TEEND">      0.00010000</i>
   <i type="int" name="NBLOCK">     1</i>
   <i type="int" name="KBLOCK">     1</i>
   <i type="int" name="NPACO">   256</i>
   <i name="APACO">     10.00000000</i>
  </separator>
  <separator name="symmetry" >
   <i type="int" name="ISYM">     2</i>
   <i name="SYMPREC">      0.00001000</i>
  </separator>
  <separator name="dos" >
   <i type="int" name="LORBIT">     0</i>
   <v name="RWIGS">     -1.00000000</v>
   <i type="int" name="NEDOS">   301</i>
   <i name="EMIN">     10.00000000</i>
   <i name="EMAX">    -10.00000000</i>
   <i name="EFERMI">      0.00000000</i>
  </separator>
  <separator name="writing" >
   <i type="int" name="NWRITE">     2</i>
   <i type="logical" name="LWAVE"> T  </i>
   <i type="logical" name="LDOWNSAMPLE"> F  </i>
   <i type="logical" name="LCHARG"> T  </i>
   <i type="logical" name="LPARD"> F  </i>
   <i type="logical" name="LVTOT"> F  </i>
   <i type="logical" name="LVHAR"> F  </i>
   <i type="logical" name="LELF"> F  </i>
   <i type="logical" name="LOPTICS"> F  </i>
   <v name="STM">      0.00000000      0.00000000      0.00000000      0.00000000      0.00000000      0.00000000      0.00000000</v>
  </separator>
  <separator name="performance" >
   <i type="int" name="NPAR">    48</i>
   <i type="int" name="NSIM">     4</i>
   <i type="int" name="NBLK">    -1</i>
   <i type="logical" name="LPLANE"> T  </i>
   <i type="logical" name="LSCALAPACK"> T  </i>
   <i type="logical" name="LSCAAWARE"> F  </i>
   <i type="logical" name="LSCALU"> F  </i>
   <i type="logical" name="LASYNC"> F  </i>
   <i type="logical" name="LORBITALREAL"> F  </i>
  </separator>
  <separator name="miscellaneous" >
   <i type="int" name="IDIOT">     3</i>
   <i type="int" name="PHON_NSTRUCT">    -1</i>
   <i type="logical" name="LMUSIC"> F  </i>
   <v name="POMASS">     83.80000000</v>
   <v name="DARWINR">      0.00000000</v>
   <v name="DARWINV">      1.00000000</v>
   <i type="logical" name="LCORR"> T  </i>
  </separator>
  <i type="logical" name="GGA_COMPAT"> T  </i>
  <i type="logical" name="LBERRY"> F  </i>
  <i type="int" name="ICORELEVEL">     0</i>
  <i type="logical" name="LDAU"> F  </i>
  <i type="int" name="I_CONSTRAINED_M">     0</i>
  <separator name="electronic exchange-correlation" >
   <i type="string" name="GGA    ">PE</i>
   <i type="string" name="XC_C">1</i>
   <i type="int" name="VOSKOWN">     0</i>
   <i type="logical" name="LHFCALC"> F  </i>
   <i type="string" name="PRECFOCK"></i>
   <i type="logical" name="LSYMGRAD"> F  </i>
   <i type="logical" name="LHFONE"> F  </i>
   <i type="logical" name="LRHFCALC"> F  </i>
   <i type="logical" name="LTHOMAS"> F  </i>
   <i type="logical" name="LMODELHF"> F  </i>
   <i type="logical" name="LFOCKACE"> F  </i>
   <i name="ENCUT4O">     -1.00000000</i>
   <i type="int" name="EXXOEP">     0</i>
   <i type="int" name="FOURORBIT">     0</i>
   <i name="AEXX">      0.00000000</i>
   <i name="HFALPHA">      0.00000000</i>
   <i name="MCALPHA">      0.00000000</i>
   <i name="ALDAX">      1.00000000</i>
   <i name="AGGAX">      1.00000000</i>
   <i name="AMGGAX">      1.00000000</i>
   <i name="ALDAC">      1.00000000</i>
   <i name="AGGAC">      1.00000000</i>
   <i name="AMGGAC">      1.00000000</i>
   <i type="int" name="NKREDX">     1</i>
   <i type="int" name="NKREDY">     1</i>
   <i type="int" name="NKREDZ">     1</i>
   <i type="logical" name="SHIFTRED"> F  </i>
   <i type="logical" name="ODDONLY"> F  </i>
   <i type="logical" name="EVENONLY"> F  </i>
   <i type="int" name="LMAXFOCK">     0</i>
   <i type="int" name="NMAXFOCKAE">     0</i>
   <i type="logical" name="LFOCKAEDFT"> F  </i>
   <i name="HFSCREEN">      0.00000000</i>
   <i name="HFSCREENC">      0.00000000</i>
   <i type="int" name="NBANDSGWLOW">     0</i>
  </separator>
  <separator name="vdW DFT" >
   <i type="logical" name="LUSE_VDW"> F  </i>
   <i type="int" name="IVDW_NL">    -1</i>
   <i type="logical" name="LSPIN_VDW"> F  </i>
   <i name="ZAB_VDW">     -0.84910000</i>
   <i name="GAMMA_VDW">      1.39626340</i>
   <i name="ALPHA_VDW">      0.00000000</i>
   <i name="PARAM1">      0.12340000</i>
   <i name="PARAM2">      1.00000000</i>
   <i name="BPARAM">      6.30000000</i>
   <i name="CPARAM">      0.00930000</i>
  </separator>
  <separator name="model GW" >
   <i type="int" name="MODEL_GW">     0</i>
   <i name="MODEL_EPS0">     39.86413382</i>
   <i name="MODEL_ALPHA">      1.00000000</i>
  </separator>
  <separator name="linear response parameters" >
   <i type="logical" name="LEPSILON"> F  </i>
   <i type="logical" name="LRPA"> F  </i>
   <i type="logical" name="LNABLA"> F  </i>
   <i type="logical" name="LVEL"> F  </i>
   <i name="CSHIFT">      0.10000000</i>
   <i name="OMEGAMAX">     -1.00000000</i>
   <i name="DEG_THRESHOLD">      0.00200000</i>
   <i name="RTIME">     -0.10000000</i>
   <i name="WPLASMAI">      0.00000000</i>
   <v name="DFIELD">      0.00000000      0.00000000      0.00000000</v>
   <v name="WPLASMA">      0.00000000      0.00000000      0.00000000      0.00000000      0.00000000      0.00000000      0.00000000      0.00000000      0.00000000</v>
  </separator>
  <separator name="orbital magnetization" >
   <i type="logical" name="NUCIND"> F  </i>
   <v name="MAGPOS">      0.00000000      0.00000000      0.00000000</v>
   <i type="logical" name="LNICSALL"> T  </i>
   <i type="logical" name="ORBITALMAG"> F  </i>
   <i type="logical" name="LMAGBLOCH"> F  </i>
   <i type="logical" name="LCHIMAG"> F  </i>
   <i type="logical" name="LGAUGE"> T  </i>
   <i type="int" name="MAGATOM">     0</i>
   <v name="MAGDIPOL">      0.00000000      0.00000000      0.00000000</v>
   <v name="AVECCONST">      0.00000000      0.00000000      0.00000000</v>
  </separator>
  <separator name="response functions" >
   <i type="logical" name="LALL_IN_ONE"> F  </i>
   <i type="int" name="IALL_IN_ONE">    -1</i>
   <i type="int" name="NBANDS_WAVE">    -1</i>
   <i type="logical" name="LFINITE_TEMPERATURE"> F  </i>
   <i type="logical" name="LADDER"> F  </i>
   <i type="logical" name="LRPAFORCE"> F  </i>
   <i type="logical" name="LFXC"> F  </i>
   <i type="logical" name="LHARTREE"> T  </i>
   <i type="int" name="IBSE">     0</i>
   <v type="int" name="KPOINT">    -1     0     0     0</v>
   <i type="logical" name="LTCTC"> F  </i>
   <i type="logical" name="LTCTE"> F  </i>
   <i type="logical" name="LTETE"> F  </i>
   <i type="logical" name="LTRIPLET"> F  </i>
   <i type="logical" name="LFXCEPS"> F  </i>
   <i type="logical" name="LFXHEG"> F  </i>
   <i type="int" name="NATURALO">     2</i>
   <i type="logical" name="LHOLEGF"> F  </i>
   <i type="logical" name="L2ORDER"> F  </i>
   <i type="logical" name="LDMP1"> F  </i>
   <i type="logical" name="LMP2LT"> F  </i>
   <i type="logical" name="LSMP2LT"> F  </i>
   <i type="logical" name="LGWLF"> F  </i>
   <i name="ENCUTGW">     -1.60000002</i>
   <i name="ENCUTGWSOFT">     -1.60000002</i>
   <i name="ENCUTLF">     -1.00000000</i>
   <i type="logical" name="ESF_SPLINES"> F  </i>
   <i name="ESF_CONV">      0.01000000</i>
   <i type="int" name="ESF_NINTER">    15</i>
   <i type="int" name="LMAXMP2">    -1</i>
   <i name="SCISSOR">      0.00000000</i>
   <i type="int" name="NOMEGA">     0</i>
   <i type="int" name="NOMEGAR">     0</i>
   <i type="int" name="NBANDSGW">    -1</i>
   <i type="int" name="NBANDSO">    -1</i>
   <i type="int" name="NBANDSV">    -1</i>
   <i type="int" name="NELMGW">     1</i>
   <i type="int" name="NELMHF">     1</i>
   <i type="int" name="DIM">     3</i>
   <i type="int" name="IESPILON">     4</i>
   <i type="int" name="ANTIRES">     0</i>
   <i name="OMEGAMAX">    -30.00000000</i>
   <i name="OMEGAMIN">    -30.00000000</i>
   <i name="OMEGATL">   -200.00000000</i>
   <i type="int" name="OMEGAGRID">     0</i>
   <i name="CSHIFT">     -0.10000000</i>
   <i type="logical" name="LSELFENERGY"> F  </i>
   <i type="logical" name="LSPECTRAL"> F  </i>
   <i type="logical" name="LSPECTRALGW"> F  </i>
   <i type="logical" name="LSINGLES"> F  </i>
   <i type="logical" name="LFERMIGW"> F  </i>
   <i type="logical" name="ODDONLYGW"> F  </i>
   <i type="logical" name="EVENONLYGW"> F  </i>
   <i type="int" name="NKREDLFX">     1</i>
   <i type="int" name="NKREDLFY">     1</i>
   <i type="int" name="NKREDLFZ">     1</i>
   <i type="int" name="MAXMEM">  2800</i>
   <i type="int" name="TELESCOPE">     0</i>
   <i type="int" name="NTAUPAR">    -1</i>
   <i type="int" name="NOMEGAPAR">    -1</i>
   <i name="DAMP_NEWTON">      0.80000001</i>
   <i name="LAMBDA">      1.00000000</i>
  </separator>
  <separator name="External order field" >
   <i name="OFIELD_KAPPA">      0.00000000</i>
   <v name="OFIELD_K">      0.00000000      0.00000000      0.00000000</v>
   <i name="OFIELD_Q6_NEAR">      0.00000000</i>
   <i name="OFIELD_Q6_FAR">      0.00000000</i>
   <i name="OFIELD_A">      0.00000000</i>
  </separator>
  <separator name="optional k-points parameters" >
   <i type="int" name="KPOINTS_OPT_MODE">     1</i>
   <i type="logical" name="LKPOINTS_OPT"> T  </i>
  </separator>
 </parameters>
 <atominfo>
  <atoms>       4 </atoms>
  <types>       1 </types>
  <array name="atoms" >
   <dimension dim="1">ion</dimension>
   <field type="string">element</field>
   <field type="int">atomtype</field>
   <set>
    <rc><c>Kr</c><c>   1</c></rc>
    <rc><c>Kr</c><c>   1</c></rc>
    <rc><c>Kr</c><c>   1</c></rc>
    <rc><c>Kr</c><c>   1</c></rc>
   </set>
  </array>
  <array name="atomtypes" >
   <dimension dim="1">type</dimension>
   <field type="int">atomspertype</field>
   <field type="string">element</field>
   <field>mass</field>
   <field>valence</field>
   <field type="string">pseudopotential</field>
   <set>
    <rc><c>   4</c><c>Kr</c><c>     83.80000000</c><c>      8.00000000</c><c>PAW_PBE Kr 07Sep2000                    </c></rc>
   </set>
  </array>
 </atominfo>
 <structure name="initialpos" >
  <crystal>
   <varray name="basis" >
    <v>       6.42930000       0.00000000       0.00000000 </v>
    <v>       0.00000000       6.42930000       0.00000000 </v>
    <v>       0.00000000       0.00000000       6.42930000 </v>
   </varray>
   <i name="volume">    265.76089216 </i>
   <varray name="rec_basis" >
    <v>       0.15553793      -0.00000000       0.00000000 </v>
    <v>       0.00000000       0.15553793       0.00000000 </v>
    <v>      -0.00000000      -0.00000000       0.15553793 </v>
   </varray>
  </crystal>
  <varray name="positions" >
   <v>       0.00000000       0.00000000       0.00000000 </v>
   <v>       0.00000000       0.50000000       0.50000000 </v>
   <v>       0.50000000       0.00000000       0.50000000 </v>
   <v>       0.50000000       0.50000000       0.00000000 </v>
  </varray>
 </structure>
 <calculation>
  <scstep>
   <time name="dav">    0.74    0.80</time>
   <time name="total">    0.75    0.82</time>
   <energy>
    <i name="alphaZ">     46.25721931 </i>
    <i name="ewald">  -1314.40327266 </i>
    <i name="hartreedc">   -518.96008882 </i>
    <i name="XCdc">     82.09042609 </i>
    <i name="pawpsdc">   1640.71684289 </i>
    <i name="pawaedc">  -1642.11512822 </i>
    <i name="eentropy">     -0.00000000 </i>
    <i name="bandstr">   -320.64120230 </i>
    <i name="atom">   2026.86644763 </i>
    <i name="e_fr_energy">     -0.18875607 </i>
    <i name="e_wo_entrp">     -0.18875607 </i>
    <i name="e_0_energy">     -0.18875607 </i>
   </energy>
  </scstep>
  <scstep>
   <time name="dav">    0.51    0.51</time>
   <time name="total">    0.52    0.52</time>
   <energy>
    <i name="alphaZ">     46.25721931 </i>
    <i name="ewald">  -1314.40327266 </i>
    <i name="hartreedc">   -518.96092356 </i>
    <i name="XCdc">     82.09045759 </i>
    <i name="pawpsdc">   1640.73150438 </i>
    <i name="pawaedc">  -1642.12990093 </i>
    <i name="eentropy">     -0.00000000 </i>
    <i name="bandstr">   -320.64028792 </i>
    <i name="atom">   2026.86644763 </i>
    <i name="e_fr_energy">     -0.18875615 </i>
    <i name="e_wo_entrp">     -0.18875615 </i>
    <i name="e_0_energy">     -0.18875615 </i>
   </energy>
  </scstep>
  <structure>
   <crystal>
    <varray name="basis" >
     <v>       6.42930000       0.00000000       0.00000000 </v>
     <v>       0.00000000       6.42930000       0.00000000 </v>
     <v>       0.00000000       0.00000000       6.42930000 </v>
    </varray>
    <i name="volume">    265.76089216 </i>
    <varray name="rec_basis" >
     <v>       0.15553793      -0.00000000       0.00000000 </v>
     <v>       0.00000000       0.15553793       0.00000000 </v>
     <v>      -0.00000000      -0.00000000       0.15553793 </v>
    </varray>
   </crystal>
   <varray name="positions" >
    <v>       0.00000000       0.00000000       0.00000000 </v>
    <v>       0.00000000       0.50000000       0.50000000 </v>
    <v>       0.50000000       0.00000000       0.50000000 </v>
    <v>       0.50000000       0.50000000       0.00000000 </v>
   </varray>
  </structure>
  <varray name="forces" >
   <v>      -0.00000000      -0.00000000       0.00000000 </v>
   <v>       0.00000000       0.00000000      -0.00000000 </v>
   <v>       0.00000000      -0.00000000      -0.00000000 </v>
   <v>      -0.00000000       0.00000000       0.00000000 </v>
  </varray>
  <varray name="stress" >
   <v>      -0.49083227      -0.00000000      -0.00000000 </v>
   <v>      -0.00000000      -0.49083227      -0.00000000 </v>
   <v>       0.00000000      -0.00000000      -0.49083227 </v>
  </varray>
  <energy>
   <i name="e_fr_energy">     -0.18875615 </i>
   <i name="e_wo_entrp">     -0.18875615 </i>
   <i name="e_0_energy">     -0.18875615 </i>
  </energy>
  <dos comment="kpoints_opt">
   <i name="efermi">     -3.97837811 </i>
   <total>
    <array>
     <dimension dim="1">gridpoints</dimension>
     <dimension dim="2">spin</dimension>
     <field>energy</field>
     <field>total</field>
     <field>integrated</field>
     <set>
      <set comment="spin 1">
       <r>   -22.0826     0.0000     0.0000 </r>
       <r>   -21.9603     0.0000     0.0000 </r>
       <r>   -21.8380     0.0000     0.0000 </r>
       <r>   -21.7158     0.0000     0.0000 </r>
       <r>   -21.5935     0.0000     0.0000 </r>
       <r>   -21.4712     0.0000     0.0000 </r>
       <r>   -21.3490     0.0000     0.0000 </r>
       <r>   -21.2267     0.0000     0.0000 </r>
       <r>   -21.1044     0.0000     0.0000 </r>
       <r>   -20.9822     0.0000     0.0000 </r>
       <r>   -20.8599     0.0000     0.0000 </r>
       <r>   -20.7376     0.0000     0.0000 </r>
       <r>   -20.6153     0.0000     0.0000 </r>
       <r>   -20.4931     0.0654     0.0080 </r>
       <r>   -20.3708    32.0335     3.9247 </r>
       <r>   -20.2485    33.2991     7.9962 </r>
       <r>   -20.1263     0.0310     8.0000 </r>
       <r>   -20.0040     0.0000     8.0000 </r>
       <r>   -19.8817     0.0000     8.0000 </r>
       <r>   -19.7595     0.0000     8.0000 </r>
       <r>   -19.6372     0.0000     8.0000 </r>
       <r>   -19.5149     0.0000     8.0000 </r>
       <r>   -19.3927     0.0000     8.0000 </r>
       <r>   -19.2704     0.0000     8.0000 </r>
       <r>   -19.1481     0.0000     8.0000 </r>
       <r>   -19.0258     0.0000     8.0000 </r>
       <r>   -18.9036     0.0000     8.0000 </r>
       <r>   -18.7813     0.0000     8.0000 </r>
       <r>   -18.6590     0.0000     8.0000 </r>
       <r>   -18.5368     0.0000     8.0000 </r>
       <r>   -18.4145     0.0000     8.0000 </r>
       <r>   -18.2922     0.0000     8.0000 </r>
       <r>   -18.1700     0.0000     8.0000 </r>
       <r>   -18.0477     0.0000     8.0000 </r>
       <r>   -17.9254     0.0000     8.0000 </r>
       <r>   -17.8031     0.0000     8.0000 </r>
       <r>   -17.6809     0.0000     8.0000 </r>
       <r>   -17.5586     0.0000     8.0000 </r>
       <r>   -17.4363     0.0000     8.0000 </r>
       <r>   -17.3141     0.0000     8.0000 </r>
       <r>   -17.1918     0.0000     8.0000 </r>
       <r>   -17.0695     0.0000     8.0000 </r>
       <r>   -16.9473     0.0000     8.0000 </r>
       <r>   -16.8250     0.0000     8.0000 </r>
       <r>   -16.7027     0.0000     8.0000 </r>
       <r>   -16.5804     0.0000     8.0000 </r>
       <r>   -16.4582     0.0000     8.0000 </r>
       <r>   -16.3359     0.0000     8.0000 </r>
       <r>   -16.2136     0.0000     8.0000 </r>
       <r>   -16.0914     0.0000     8.0000 </r>
       <r>   -15.9691     0.0000     8.0000 </r>
       <r>   -15.8468     0.0000     8.0000 </r>
       <r>   -15.7246     0.0000     8.0000 </r>
       <r>   -15.6023     0.0000     8.0000 </r>
       <r>   -15.4800     0.0000     8.0000 </r>
       <r>   -15.3577     0.0000     8.0000 </r>
       <r>   -15.2355     0.0000     8.0000 </r>
       <r>   -15.1132     0.0000     8.0000 </r>
       <r>   -14.9909     0.0000     8.0000 </r>
       <r>   -14.8687     0.0000     8.0000 </r>
       <r>   -14.7464     0.0000     8.0000 </r>
       <r>   -14.6241     0.0000     8.0000 </r>
       <r>   -14.5019     0.0000     8.0000 </r>
       <r>   -14.3796     0.0000     8.0000 </r>
       <r>   -14.2573     0.0000     8.0000 </r>
       <r>   -14.1350     0.0000     8.0000 </r>
       <r>   -14.0128     0.0000     8.0000 </r>
       <r>   -13.8905     0.0000     8.0000 </r>
       <r>   -13.7682     0.0000     8.0000 </r>
       <r>   -13.6460     0.0000     8.0000 </r>
       <r>   -13.5237     0.0000     8.0000 </r>
       <r>   -13.4014     0.0000     8.0000 </r>
       <r>   -13.2792     0.0000     8.0000 </r>
       <r>   -13.1569     0.0000     8.0000 </r>
       <r>   -13.0346     0.0000     8.0000 </r>
       <r>   -12.9123     0.0000     8.0000 </r>
       <r>   -12.7901     0.0000     8.0000 </r>
       <r>   -12.6678     0.0000     8.0000 </r>
       <r>   -12.5455     0.0000     8.0000 </r>
       <r>   -12.4233     0.0000     8.0000 </r>
       <r>   -12.3010     0.0000     8.0000 </r>
       <r>   -12.1787     0.0000     8.0000 </r>
       <r>   -12.0565     0.0000     8.0000 </r>
       <r>   -11.9342     0.0000     8.0000 </r>
       <r>   -11.8119     0.0000     8.0000 </r>
       <r>   -11.6896     0.0000     8.0000 </r>
       <r>   -11.5674     0.0000     8.0000 </r>
       <r>   -11.4451     0.0000     8.0000 </r>
       <r>   -11.3228     0.0000     8.0000 </r>
       <r>   -11.2006     0.0000     8.0000 </r>
       <r>   -11.0783     0.0000     8.0000 </r>
       <r>   -10.9560     0.0000     8.0000 </r>
       <r>   -10.8338     0.0000     8.0000 </r>
       <r>   -10.7115     0.0000     8.0000 </r>
       <r>   -10.5892     0.0000     8.0000 </r>
       <r>   -10.4669     0.0000     8.0000 </r>
       <r>   -10.3447     0.0000     8.0000 </r>
       <r>   -10.2224     0.0000     8.0000 </r>
       <r>   -10.1001     0.0000     8.0000 </r>
       <r>    -9.9779     0.0000     8.0000 </r>
       <r>    -9.8556     0.0000     8.0000 </r>
       <r>    -9.7333     0.0000     8.0000 </r>
       <r>    -9.6111     0.0000     8.0000 </r>
       <r>    -9.4888     0.0000     8.0000 </r>
       <r>    -9.3665     0.0000     8.0000 </r>
       <r>    -9.2442     0.0000     8.0000 </r>
       <r>    -9.1220     0.0000     8.0000 </r>
       <r>    -8.9997     0.0000     8.0000 </r>
       <r>    -8.8774     0.0000     8.0000 </r>
       <r>    -8.7552     0.0000     8.0000 </r>
       <r>    -8.6329     0.0000     8.0000 </r>
       <r>    -8.5106     0.0000     8.0000 </r>
       <r>    -8.3884     0.0000     8.0000 </r>
       <r>    -8.2661     0.0000     8.0000 </r>
       <r>    -8.1438     0.0000     8.0000 </r>
       <r>    -8.0215     0.0000     8.0000 </r>
       <r>    -7.8993     0.0000     8.0000 </r>
       <r>    -7.7770     0.0000     8.0000 </r>
       <r>    -7.6547     0.0000     8.0000 </r>
       <r>    -7.5325     0.0000     8.0000 </r>
       <r>    -7.4102     0.0000     8.0000 </r>
       <r>    -7.2879     0.0000     8.0000 </r>
       <r>    -7.1657     0.0000     8.0000 </r>
       <r>    -7.0434     0.0000     8.0000 </r>
       <r>    -6.9211     0.7549     8.0923 </r>
       <r>    -6.7989    31.8393    11.9853 </r>
       <r>    -6.6766    27.1306    15.3025 </r>
       <r>    -6.5543    23.6931    18.1995 </r>
       <r>    -6.4320    60.8900    25.6445 </r>
       <r>    -6.3098    47.4164    31.4421 </r>
       <r>    -6.1875     4.5619    31.9999 </r>
       <r>    -6.0652     0.0007    32.0000 </r>
       <r>    -5.9430     0.0000    32.0000 </r>
       <r>    -5.8207     0.0000    32.0000 </r>
       <r>    -5.6984     0.0000    32.0000 </r>
       <r>    -5.5762     0.0000    32.0000 </r>
       <r>    -5.4539     0.0000    32.0000 </r>
       <r>    -5.3316     0.0000    32.0000 </r>
       <r>    -5.2093     0.0000    32.0000 </r>
       <r>    -5.0871     0.0000    32.0000 </r>
       <r>    -4.9648     0.0000    32.0000 </r>
       <r>    -4.8425     0.0000    32.0000 </r>
       <r>    -4.7203     0.0000    32.0000 </r>
       <r>    -4.5980     0.0000    32.0000 </r>
       <r>    -4.4757     0.0000    32.0000 </r>
       <r>    -4.3535     0.0000    32.0000 </r>
       <r>    -4.2312     0.0000    32.0000 </r>
       <r>    -4.1089     0.0000    32.0000 </r>
       <r>    -3.9866     0.0000    32.0000 </r>
       <r>    -3.8644     0.0000    32.0000 </r>
       <r>    -3.7421     0.0000    32.0000 </r>
       <r>    -3.6198     0.0000    32.0000 </r>
       <r>    -3.4976     0.0000    32.0000 </r>
       <r>    -3.3753     0.0000    32.0000 </r>
       <r>    -3.2530     0.0000    32.0000 </r>
       <r>    -3.1308     0.0000    32.0000 </r>
       <r>    -3.0085     0.0000    32.0000 </r>
       <r>    -2.8862     0.0000    32.0000 </r>
       <r>    -2.7639     0.0000    32.0000 </r>
       <r>    -2.6417     0.0000    32.0000 </r>
       <r>    -2.5194     0.0000    32.0000 </r>
       <r>    -2.3971     0.0000    32.0000 </r>
       <r>    -2.2749     0.0000    32.0000 </r>
       <r>    -2.1526     0.0000    32.0000 </r>
       <r>    -2.0303     0.0000    32.0000 </r>
       <r>    -1.9081     0.0000    32.0000 </r>
       <r>    -1.7858     0.0000    32.0000 </r>
       <r>    -1.6635     0.0000    32.0000 </r>
       <r>    -1.5412     0.0000    32.0000 </r>
       <r>    -1.4190     0.0000    32.0000 </r>
       <r>    -1.2967     0.0000    32.0000 </r>
       <r>    -1.1744     0.0000    32.0000 </r>
       <r>    -1.0522     0.0000    32.0000 </r>
       <r>    -0.9299     0.0000    32.0000 </r>
       <r>    -0.8076     0.0000    32.0000 </r>
       <r>    -0.6854     0.0000    32.0000 </r>
       <r>    -0.5631     0.0000    32.0000 </r>
       <r>    -0.4408     0.0000    32.0000 </r>
       <r>    -0.3185     0.0000    32.0000 </r>
       <r>    -0.1963     0.0000    32.0000 </r>
       <r>    -0.0740     0.0000    32.0000 </r>
       <r>     0.0483     0.0000    32.0000 </r>
       <r>     0.1705     0.0000    32.0000 </r>
       <r>     0.2928     0.0000    32.0000 </r>
       <r>     0.4151     0.0000    32.0000 </r>
       <r>     0.5373     0.0000    32.0000 </r>
       <r>     0.6596     0.0000    32.0000 </r>
       <r>     0.7819     0.0192    32.0023 </r>
       <r>     0.9042     1.2620    32.1566 </r>
       <r>     1.0264     1.0902    32.2899 </r>
       <r>     1.1487     0.7100    32.3767 </r>
       <r>     1.2710     0.5844    32.4482 </r>
       <r>     1.3932     0.5147    32.5111 </r>
       <r>     1.5155     0.4693    32.5685 </r>
       <r>     1.6378     0.4376    32.6220 </r>
       <r>     1.7600     0.4142    32.6727 </r>
       <r>     1.8823     0.3944    32.7209 </r>
       <r>     2.0046     0.3827    32.7677 </r>
       <r>     2.1269     0.3677    32.8126 </r>
       <r>     2.2491     0.3620    32.8569 </r>
       <r>     2.3714     0.3525    32.9000 </r>
       <r>     2.4937     0.5115    32.9625 </r>
       <r>     2.6159     1.7309    33.1742 </r>
       <r>     2.7382     1.5862    33.3681 </r>
       <r>     2.8605     1.4057    33.5400 </r>
       <r>     2.9827     1.3072    33.6998 </r>
       <r>     3.1050     1.2713    33.8553 </r>
       <r>     3.2273     7.5500    34.7784 </r>
       <r>     3.3496    14.8465    36.5937 </r>
       <r>     3.4718    15.2629    38.4599 </r>
       <r>     3.5941     3.3759    38.8727 </r>
       <r>     3.7164     2.4889    39.1770 </r>
       <r>     3.8386     3.0850    39.5542 </r>
       <r>     3.9609     1.0264    39.6797 </r>
       <r>     4.0832     0.9633    39.7975 </r>
       <r>     4.2054     1.0441    39.9251 </r>
       <r>     4.3277     0.6424    40.0037 </r>
       <r>     4.4500     0.9678    40.1220 </r>
       <r>     4.5723     3.0448    40.4943 </r>
       <r>     4.6945     8.7492    41.5641 </r>
       <r>     4.8168    10.4235    42.8385 </r>
       <r>     4.9391    11.3219    44.2229 </r>
       <r>     5.0613     5.4584    44.8903 </r>
       <r>     5.1836     6.6600    45.7046 </r>
       <r>     5.3059    11.0188    47.0519 </r>
       <r>     5.4281    12.1898    48.5423 </r>
       <r>     5.5504    10.2134    49.7911 </r>
       <r>     5.6727     9.3526    50.9346 </r>
       <r>     5.7949    11.4488    52.3345 </r>
       <r>     5.9172     7.4311    53.2431 </r>
       <r>     6.0395     5.5847    53.9259 </r>
       <r>     6.1618     2.1301    54.1864 </r>
       <r>     6.2840     1.6348    54.3862 </r>
       <r>     6.4063     1.6275    54.5852 </r>
       <r>     6.5286     1.6788    54.7905 </r>
       <r>     6.6508     1.7441    55.0038 </r>
       <r>     6.7731     1.2796    55.1602 </r>
       <r>     6.8954     3.7374    55.6172 </r>
       <r>     7.0176    14.8893    57.4377 </r>
       <r>     7.1399    12.1898    58.9281 </r>
       <r>     7.2622    13.3094    60.5555 </r>
       <r>     7.3845     6.8765    61.3963 </r>
       <r>     7.5067     3.2175    61.7897 </r>
       <r>     7.6290     2.5898    62.1063 </r>
       <r>     7.7513     2.2477    62.3811 </r>
       <r>     7.8735     2.0443    62.6311 </r>
       <r>     7.9958     3.1431    63.0154 </r>
       <r>     8.1181     3.9119    63.4937 </r>
       <r>     8.2403     3.2037    63.8854 </r>
       <r>     8.3626     5.5001    64.5579 </r>
       <r>     8.4849    10.6948    65.8656 </r>
       <r>     8.6072     9.7625    67.0593 </r>
       <r>     8.7294    11.1443    68.4219 </r>
       <r>     8.8517    11.6681    69.8485 </r>
       <r>     8.9740     9.0568    70.9559 </r>
       <r>     9.0962    10.6155    72.2539 </r>
       <r>     9.2185     4.8238    72.8437 </r>
       <r>     9.3408     2.3153    73.1268 </r>
       <r>     9.4630     2.3068    73.4088 </r>
       <r>     9.5853     2.6263    73.7299 </r>
       <r>     9.7076     2.9595    74.0918 </r>
       <r>     9.8299     3.1846    74.4812 </r>
       <r>     9.9521     4.1191    74.9848 </r>
       <r>    10.0744    11.5316    76.3948 </r>
       <r>    10.1967    11.4990    77.8008 </r>
       <r>    10.3189    14.7251    79.6012 </r>
       <r>    10.4412    14.4179    81.3641 </r>
       <r>    10.5635    13.1426    82.9710 </r>
       <r>    10.6857    15.7207    84.8932 </r>
       <r>    10.8080    14.8757    86.7120 </r>
       <r>    10.9303    10.7634    88.0281 </r>
       <r>    11.0526    10.1820    89.2730 </r>
       <r>    11.1748     8.6212    90.3272 </r>
       <r>    11.2971     5.5065    91.0004 </r>
       <r>    11.4194     4.9773    91.6090 </r>
       <r>    11.5416     4.7727    92.1926 </r>
       <r>    11.6639     5.2215    92.8310 </r>
       <r>    11.7862     6.9732    93.6836 </r>
       <r>    11.9084     7.7830    94.6352 </r>
       <r>    12.0307     4.8077    95.2231 </r>
       <r>    12.1530     2.4132    95.5181 </r>
       <r>    12.2753     2.0482    95.7686 </r>
       <r>    12.3975     1.1980    95.9150 </r>
       <r>    12.5198     0.6886    95.9992 </r>
       <r>    12.6421     0.0062    96.0000 </r>
       <r>    12.7643     0.0000    96.0000 </r>
       <r>    12.8866     0.0000    96.0000 </r>
       <r>    13.0089     0.0000    96.0000 </r>
       <r>    13.1311     0.0000    96.0000 </r>
       <r>    13.2534     0.0000    96.0000 </r>
       <r>    13.3757     0.0000    96.0000 </r>
       <r>    13.4980     0.0000    96.0000 </r>
       <r>    13.6202     0.0000    96.0000 </r>
       <r>    13.7425     0.0000    96.0000 </r>
       <r>    13.8648     0.0000    96.0000 </r>
       <r>    13.9870     0.0000    96.0000 </r>
       <r>    14.1093     0.0000    96.0000 </r>
       <r>    14.2316     0.0000    96.0000 </r>
       <r>    14.3538     0.0000    96.0000 </r>
       <r>    14.4761     0.0000    96.0000 </r>
       <r>    14.5984     0.0000    96.0000 </r>
      </set>
     </set>
    </array>
   </total>
  </dos>
  <eigenvalues_kpoints_opt comment="kpoints_opt">
   <kpoints>
    <varray name="kpointlist" >
     <v>       0.00000000       0.00000000       0.00000000 </v>
     <v>       0.01041667       0.00000000       0.01041667 </v>
     <v>       0.02083333       0.00000000       0.02083333 </v>
     <v>       0.03125000       0.00000000       0.03125000 </v>
     <v>       0.04166667       0.00000000       0.04166667 </v>
     <v>       0.05208333       0.00000000       0.05208333 </v>
     <v>       0.06250000       0.00000000       0.06250000 </v>
     <v>       0.07291667       0.00000000       0.07291667 </v>
     <v>       0.08333333       0.00000000       0.08333333 </v>
     <v>       0.09375000       0.00000000       0.09375000 </v>
     <v>       0.10416667       0.00000000       0.10416667 </v>
     <v>       0.11458333       0.00000000       0.11458333 </v>
     <v>       0.12500000       0.00000000       0.12500000 </v>
     <v>       0.13541667       0.00000000       0.13541667 </v>
     <v>       0.14583333       0.00000000       0.14583333 </v>
     <v>       0.15625000       0.00000000       0.15625000 </v>
     <v>       0.16666667       0.00000000       0.16666667 </v>
     <v>       0.17708333       0.00000000       0.17708333 </v>
     <v>       0.18750000       0.00000000       0.18750000 </v>
     <v>       0.19791667       0.00000000       0.19791667 </v>
     <v>       0.20833333       0.00000000       0.20833333 </v>
     <v>       0.21875000       0.00000000       0.21875000 </v>
     <v>       0.22916667       0.00000000       0.22916667 </v>
     <v>       0.23958333       0.00000000       0.23958333 </v>
     <v>       0.25000000       0.00000000       0.25000000 </v>
     <v>       0.26041667       0.00000000       0.26041667 </v>
     <v>       0.27083333       0.00000000       0.27083333 </v>
     <v>       0.28125000       0.00000000       0.28125000 </v>
     <v>       0.29166667       0.00000000       0.29166667 </v>
     <v>       0.30208333       0.00000000       0.30208333 </v>
     <v>       0.31250000       0.00000000       0.31250000 </v>
     <v>       0.32291667       0.00000000       0.32291667 </v>
     <v>       0.33333333       0.00000000       0.33333333 </v>
     <v>       0.34375000       0.00000000       0.34375000 </v>
     <v>       0.35416667       0.00000000       0.35416667 </v>
     <v>       0.36458333       0.00000000       0.36458333 </v>
     <v>       0.37500000       0.00000000       0.37500000 </v>
     <v>       0.38541667       0.00000000       0.38541667 </v>
     <v>       0.39583333       0.00000000       0.39583333 </v>
     <v>       0.40625000       0.00000000       0.40625000 </v>
     <v>       0.41666667       0.00000000       0.41666667 </v>
     <v>       0.42708333       0.00000000       0.42708333 </v>
     <v>       0.43750000       0.00000000       0.43750000 </v>
     <v>       0.44791667       0.00000000       0.44791667 </v>
     <v>       0.45833333       0.00000000       0.45833333 </v>
     <v>       0.46875000       0.00000000       0.46875000 </v>
     <v>       0.47916667       0.00000000       0.47916667 </v>
     <v>       0.48958333       0.00000000       0.48958333 </v>
     <v>       0.50000000       0.00000000       0.50000000 </v>
     <v>       0.50000000       0.00000000       0.50000000 </v>
     <v>       0.50260417       0.00520833       0.50260417 </v>
     <v>       0.50520833       0.01041667       0.50520833 </v>
     <v>       0.50781250       0.01562500       0.50781250 </v>
     <v>       0.51041667       0.02083333       0.51041667 </v>
     <v>       0.51302083       0.02604167       0.51302083 </v>
     <v>       0.51562500       0.03125000       0.51562500 </v>
     <v>       0.51822917       0.03645833       0.51822917 </v>
     <v>       0.52083333       0.04166667       0.52083333 </v>
     <v>       0.52343750       0.04687500       0.52343750 </v>
     <v>       0.52604167       0.05208333       0.52604167 </v>
     <v>       0.52864583       0.05729167       0.52864583 </v>
     <v>       0.53125000       0.06250000       0.53125000 </v>
     <v>       0.53385417       0.06770833       0.53385417 </v>
     <v>       0.53645833       0.07291667       0.53645833 </v>
     <v>       0.53906250       0.07812500       0.53906250 </v>
     <v>       0.54166667       0.08333333       0.54166667 </v>
     <v>       0.54427083       0.08854167       0.54427083 </v>
     <v>       0.54687500       0.09375000       0.54687500 </v>
     <v>       0.54947917       0.09895833       0.54947917 </v>
     <v>       0.55208333       0.10416667       0.55208333 </v>
     <v>       0.55468750       0.10937500       0.55468750 </v>
     <v>       0.55729167       0.11458333       0.55729167 </v>
     <v>       0.55989583       0.11979167       0.55989583 </v>
     <v>       0.56250000       0.12500000       0.56250000 </v>
     <v>       0.56510417       0.13020833       0.56510417 </v>
     <v>       0.56770833       0.13541667       0.56770833 </v>
     <v>       0.57031250       0.14062500       0.57031250 </v>
     <v>       0.57291667       0.14583333       0.57291667 </v>
     <v>       0.57552083       0.15104167       0.57552083 </v>
     <v>       0.57812500       0.15625000       0.57812500 </v>
     <v>       0.58072917       0.16145833       0.58072917 </v>
     <v>       0.58333333       0.16666667       0.58333333 </v>
     <v>       0.58593750       0.17187500       0.58593750 </v>
     <v>       0.58854167       0.17708333       0.58854167 </v>
     <v>       0.59114583       0.18229167       0.59114583 </v>
     <v>       0.59375000       0.18750000       0.59375000 </v>
     <v>       0.59635417       0.19270833       0.59635417 </v>
     <v>       0.59895833       0.19791667       0.59895833 </v>
     <v>       0.60156250       0.20312500       0.60156250 </v>
     <v>       0.60416667       0.20833333       0.60416667 </v>
     <v>       0.60677083       0.21354167       0.60677083 </v>
     <v>       0.60937500       0.21875000       0.60937500 </v>
     <v>       0.61197917       0.22395833       0.61197917 </v>
     <v>       0.61458333       0.22916667       0.61458333 </v>
     <v>       0.61718750       0.23437500       0.61718750 </v>
     <v>       0.61979167       0.23958333       0.61979167 </v>
     <v>       0.62239583       0.24479167       0.62239583 </v>
     <v>       0.62500000       0.25000000       0.62500000 </v>
     <v>       0.62500000       0.25000000       0.62500000 </v>
     <v>       0.61197917       0.24479167       0.61197917 </v>
     <v>       0.59895833       0.23958333       0.59895833 </v>
     <v>       0.58593750       0.23437500       0.58593750 </v>
     <v>       0.57291667       0.22916667       0.57291667 </v>
     <v>       0.55989583       0.22395833       0.55989583 </v>
     <v>       0.54687500       0.21875000       0.54687500 </v>
     <v>       0.53385417       0.21354167       0.53385417 </v>
     <v>       0.52083333       0.20833333       0.52083333 </v>
     <v>       0.50781250       0.20312500       0.50781250 </v>
     <v>       0.49479167       0.19791667       0.49479167 </v>
     <v>       0.48177083       0.19270833       0.48177083 </v>
     <v>       0.46875000       0.18750000       0.46875000 </v>
     <v>       0.45572917       0.18229167       0.45572917 </v>
     <v>       0.44270833       0.17708333       0.44270833 </v>
     <v>       0.42968750       0.17187500       0.42968750 </v>
     <v>       0.41666667       0.16666667       0.41666667 </v>
     <v>       0.40364583       0.16145833       0.40364583 </v>
     <v>       0.39062500       0.15625000       0.39062500 </v>
     <v>       0.37760417       0.15104167       0.37760417 </v>
     <v>       0.36458333       0.14583333       0.36458333 </v>
     <v>       0.35156250       0.14062500       0.35156250 </v>
     <v>       0.33854167       0.13541667       0.33854167 </v>
     <v>       0.32552083       0.13020833       0.32552083 </v>
     <v>       0.31250000       0.12500000       0.31250000 </v>
     <v>       0.29947917       0.11979167       0.29947917 </v>
     <v>       0.28645833       0.11458333       0.28645833 </v>
     <v>       0.27343750       0.10937500       0.27343750 </v>
     <v>       0.26041667       0.10416667       0.26041667 </v>
     <v>       0.24739583       0.09895833       0.24739583 </v>
     <v>       0.23437500       0.09375000       0.23437500 </v>
     <v>       0.22135417       0.08854167       0.22135417 </v>
     <v>       0.20833333       0.08333333       0.20833333 </v>
     <v>       0.19531250       0.07812500       0.19531250 </v>
     <v>       0.18229167       0.07291667       0.18229167 </v>
     <v>       0.16927083       0.06770833       0.16927083 </v>
     <v>       0.15625000       0.06250000       0.15625000 </v>
     <v>       0.14322917       0.05729167       0.14322917 </v>
     <v>       0.13020833       0.05208333       0.13020833 </v>
     <v>       0.11718750       0.04687500       0.11718750 </v>
     <v>       0.10416667       0.04166667       0.10416667 </v>
     <v>       0.09114583       0.03645833       0.09114583 </v>
     <v>       0.07812500       0.03125000       0.07812500 </v>
     <v>       0.06510417       0.02604167       0.06510417 </v>
     <v>       0.05208333       0.02083333       0.05208333 </v>
     <v>       0.03906250       0.01562500       0.03906250 </v>
     <v>       0.02604167       0.01041667       0.02604167 </v>
     <v>       0.01302083       0.00520833       0.01302083 </v>
     <v>      -0.00000000       0.00000000      -0.00000000 </v>
    </varray>
    <varray name="weights" >
     <v>       0.00680272 </v>
     <v>       0.00680272 </v>
     <v>       0.00680272 </v>
     <v>       0.00680272 </v>
     <v>       0.00680272 </v>
     <v>       0.00680272 </v>
     <v>       0.00680272 </v>
     <v>       0.00680272 </v>
     <v>       0.00680272 </v>
     <v>       0.00680272 </v>
     <v>       0.00680272 </v>
     <v>       0.00680272 </v>
     <v>       0.00680272 </v>
     <v>       0.00680272 </v>
     <v>       0.00680272 </v>
     <v>       0.00680272 </v>
     <v>       0.00680272 </v>
     <v>       0.00680272 </v>
     <v>       0.00680272 </v>
     <v>       0.00680272 </v>
     <v>       0.00680272 </v>
     <v>       0.00680272 </v>
     <v>       0.00680272 </v>
     <v>       0.00680272 </v>
     <v>       0.00680272 </v>
     <v>       0.00680272 </v>
     <v>       0.00680272 </v>
     <v>       0.00680272 </v>
     <v>       0.00680272 </v>
     <v>       0.00680272 </v>
     <v>       0.00680272 </v>
     <v>       0.00680272 </v>
     <v>       0.00680272 </v>
     <v>       0.00680272 </v>
     <v>       0.00680272 </v>
     <v>       0.00680272 </v>
     <v>       0.00680272 </v>
     <v>       0.00680272 </v>
     <v>       0.00680272 </v>
     <v>       0.00680272 </v>
     <v>       0.00680272 </v>
     <v>       0.00680272 </v>
     <v>       0.00680272 </v>
     <v>       0.00680272 </v>
     <v>       0.00680272 </v>
     <v>       0.00680272 </v>
     <v>       0.00680272 </v>
     <v>       0.00680272 </v>
     <v>       0.00680272 </v>
     <v>       0.00680272 </v>
     <v>       0.00680272 </v>
     <v>       0.00680272 </v>
     <v>       0.00680272 </v>
     <v>       0.00680272 </v>
     <v>       0.00680272 </v>
     <v>       0.00680272 </v>
     <v>       0.00680272 </v>
     <v>       0.00680272 </v>
     <v>       0.00680272 </v>
     <v>       0.00680272 </v>
     <v>       0.00680272 </v>
     <v>       0.00680272 </v>
     <v>       0.00680272 </v>
     <v>       0.00680272 </v>
     <v>       0.00680272 </v>
     <v>       0.00680272 </v>
     <v>       0.00680272 </v>
     <v>       0.00680272 </v>
     <v>       0.00680272 </v>
     <v>       0.00680272 </v>
     <v>       0.00680272 </v>
     <v>       0.00680272 </v>
     <v>       0.00680272 </v>
     <v>       0.00680272 </v>
     <v>       0.00680272 </v>
     <v>       0.00680272 </v>
     <v>       0.00680272 </v>
     <v>       0.00680272 </v>
     <v>       0.00680272 </v>
     <v>       0.00680272 </v>
     <v>       0.00680272 </v>
     <v>       0.00680272 </v>
     <v>       0.00680272 </v>
     <v>       0.00680272 </v>
     <v>       0.00680272 </v>
     <v>       0.00680272 </v>
     <v>       0.00680272 </v>
     <v>       0.00680272 </v>
     <v>       0.00680272 </v>
     <v>       0.00680272 </v>
     <v>       0.00680272 </v>
     <v>       0.00680272 </v>
     <v>       0.00680272 </v>
     <v>       0.00680272 </v>
     <v>       0.00680272 </v>
     <v>       0.00680272 </v>
     <v>       0.00680272 </v>
     <v>       0.00680272 </v>
     <v>       0.00680272 </v>
     <v>       0.00680272 </v>
     <v>       0.00680272 </v>
     <v>       0.00680272 </v>
     <v>       0.00680272 </v>
     <v>       0.00680272 </v>
     <v>       0.00680272 </v>
     <v>       0.00680272 </v>
     <v>       0.00680272 </v>
     <v>       0.00680272 </v>
     <v>       0.00680272 </v>
     <v>       0.00680272 </v>
     <v>       0.00680272 </v>
     <v>       0.00680272 </v>
     <v>       0.00680272 </v>
     <v>       0.00680272 </v>
     <v>       0.00680272 </v>
     <v>       0.00680272 </v>
     <v>       0.00680272 </v>
     <v>       0.00680272 </v>
     <v>       0.00680272 </v>
     <v>       0.00680272 </v>
     <v>       0.00680272 </v>
     <v>       0.00680272 </v>
     <v>       0.00680272 </v>
     <v>       0.00680272 </v>
     <v>       0.00680272 </v>
     <v>       0.00680272 </v>
     <v>       0.00680272 </v>
     <v>       0.00680272 </v>
     <v>       0.00680272 </v>
     <v>       0.00680272 </v>
     <v>       0.00680272 </v>
     <v>       0.00680272 </v>
     <v>       0.00680272 </v>
     <v>       0.00680272 </v>
     <v>       0.00680272 </v>
     <v>       0.00680272 </v>
     <v>       0.00680272 </v>
     <v>       0.00680272 </v>
     <v>       0.00680272 </v>
     <v>       0.00680272 </v>
     <v>       0.00680272 </v>
     <v>       0.00680272 </v>
     <v>       0.00680272 </v>
     <v>       0.00680272 </v>
     <v>       0.00680272 </v>
     <v>       0.00680272 </v>
     <v>       0.00680272 </v>
    </varray>
   </kpoints>
   <eigenvalues>
    <array>
     <dimension dim="1">band</dimension>
     <dimension dim="2">kpoint</dimension>
     <dimension dim="3">spin</dimension>
     <field>eigene</field>
     <set>
      <set comment="spin 1">
       <set comment="kpoint 1">
        <r>  -20.4153 </r>
        <r>  -20.3559 </r>
        <r>  -20.3559 </r>
        <r>  -20.3559 </r>
        <r>   -6.8767 </r>
        <r>   -6.8767 </r>
        <r>   -6.8767 </r>
        <r>   -6.5236 </r>
        <r>   -6.5236 </r>
        <r>   -6.5236 </r>
        <r>   -6.5236 </r>
        <r>   -6.5236 </r>
        <r>   -6.5236 </r>
        <r>   -6.3169 </r>
        <r>   -6.3169 </r>
        <r>   -6.3169 </r>
        <r>    0.8491 </r>
        <r>    3.3732 </r>
        <r>    3.3732 </r>
        <r>    3.3732 </r>
        <r>    4.6382 </r>
        <r>    4.6382 </r>
        <r>    4.6382 </r>
        <r>    5.7829 </r>
        <r>    5.7829 </r>
        <r>    5.7829 </r>
        <r>    6.9205 </r>
        <r>    6.9205 </r>
        <r>    6.9205 </r>
        <r>    8.8070 </r>
        <r>    8.8070 </r>
        <r>    9.1027 </r>
        <r>    9.1027 </r>
        <r>    9.1027 </r>
        <r>    9.1027 </r>
        <r>    9.1027 </r>
        <r>    9.1027 </r>
        <r>    9.8769 </r>
        <r>   10.2135 </r>
        <r>   10.2135 </r>
        <r>   10.2135 </r>
        <r>   10.3202 </r>
        <r>   10.3202 </r>
        <r>   10.3202 </r>
        <r>   10.8131 </r>
        <r>   10.8131 </r>
        <r>   10.8131 </r>
        <r>   10.8131 </r>
       </set>
       <set comment="kpoint 2">
        <r>  -20.4152 </r>
        <r>  -20.3559 </r>
        <r>  -20.3559 </r>
        <r>  -20.3559 </r>
        <r>   -6.8765 </r>
        <r>   -6.8765 </r>
        <r>   -6.8765 </r>
        <r>   -6.5239 </r>
        <r>   -6.5236 </r>
        <r>   -6.5236 </r>
        <r>   -6.5236 </r>
        <r>   -6.5236 </r>
        <r>   -6.5235 </r>
        <r>   -6.3174 </r>
        <r>   -6.3170 </r>
        <r>   -6.3169 </r>
        <r>    0.8505 </r>
        <r>    3.3735 </r>
        <r>    3.3735 </r>
        <r>    3.3744 </r>
        <r>    4.6388 </r>
        <r>    4.6389 </r>
        <r>    4.6389 </r>
        <r>    5.7819 </r>
        <r>    5.7819 </r>
        <r>    5.7822 </r>
        <r>    6.9175 </r>
        <r>    6.9211 </r>
        <r>    6.9212 </r>
        <r>    8.8037 </r>
        <r>    8.8063 </r>
        <r>    9.0926 </r>
        <r>    9.0926 </r>
        <r>    9.0932 </r>
        <r>    9.0967 </r>
        <r>    9.1012 </r>
        <r>    9.1012 </r>
        <r>    9.8812 </r>
        <r>   10.2207 </r>
        <r>   10.2207 </r>
        <r>   10.2238 </r>
        <r>   10.3240 </r>
        <r>   10.3241 </r>
        <r>   10.3274 </r>
        <r>   10.8123 </r>
        <r>   10.8149 </r>
        <r>   10.8159 </r>
        <r>   10.8164 </r>
       </set>
       <set comment="kpoint 3">
        <r>  -20.4151 </r>
        <r>  -20.3558 </r>
        <r>  -20.3558 </r>
        <r>  -20.3557 </r>
        <r>   -6.8760 </r>
        <r>   -6.8759 </r>
        <r>   -6.8759 </r>
        <r>   -6.5249 </r>
        <r>   -6.5238 </r>
        <r>   -6.5238 </r>
        <r>   -6.5234 </r>
        <r>   -6.5234 </r>
        <r>   -6.5232 </r>
        <r>   -6.3188 </r>
        <r>   -6.3174 </r>
        <r>   -6.3170 </r>
        <r>    0.8546 </r>
        <r>    3.3748 </r>
        <r>    3.3748 </r>
        <r>    3.3780 </r>
        <r>    4.6407 </r>
        <r>    4.6410 </r>
        <r>    4.6410 </r>
        <r>    5.7789 </r>
        <r>    5.7789 </r>
        <r>    5.7802 </r>
        <r>    6.9086 </r>
        <r>    6.9228 </r>
        <r>    6.9232 </r>
        <r>    8.7938 </r>
        <r>    8.8041 </r>
        <r>    9.0633 </r>
        <r>    9.0633 </r>
        <r>    9.0657 </r>
        <r>    9.0791 </r>
        <r>    9.0968 </r>
        <r>    9.0968 </r>
        <r>    9.8942 </r>
        <r>   10.2390 </r>
        <r>   10.2390 </r>
        <r>   10.2542 </r>
        <r>   10.3349 </r>
        <r>   10.3349 </r>
        <r>   10.3517 </r>
        <r>   10.8083 </r>
        <r>   10.8223 </r>
        <r>   10.8239 </r>
        <r>   10.8243 </r>
       </set>
       <set comment="kpoint 4">
        <r>  -20.4150 </r>
        <r>  -20.3559 </r>
        <r>  -20.3559 </r>
        <r>  -20.3557 </r>
        <r>   -6.8751 </r>
        <r>   -6.8748 </r>
        <r>   -6.8748 </r>
        <r>   -6.5265 </r>
        <r>   -6.5240 </r>
        <r>   -6.5240 </r>
        <r>   -6.5232 </r>
        <r>   -6.5232 </r>
        <r>   -6.5228 </r>
        <r>   -6.3211 </r>
        <r>   -6.3179 </r>
        <r>   -6.3171 </r>
        <r>    0.8614 </r>
        <r>    3.3762 </r>
        <r>    3.3762 </r>
        <r>    3.3838 </r>
        <r>    4.6435 </r>
        <r>    4.6441 </r>
        <r>    4.6441 </r>
        <r>    5.7738 </r>
        <r>    5.7738 </r>
        <r>    5.7767 </r>
        <r>    6.8938 </r>
        <r>    6.9255 </r>
        <r>    6.9266 </r>
        <r>    8.7776 </r>
        <r>    8.8005 </r>
        <r>    9.0179 </r>
        <r>    9.0179 </r>
        <r>    9.0230 </r>
        <r>    9.0510 </r>
        <r>    9.0895 </r>
        <r>    9.0895 </r>
        <r>    9.9157 </r>
        <r>   10.2595 </r>
        <r>   10.2595 </r>
        <r>   10.3006 </r>
        <r>   10.3587 </r>
        <r>   10.3588 </r>
        <r>   10.3857 </r>
        <r>   10.7984 </r>
        <r>   10.8294 </r>
        <r>   10.8374 </r>
        <r>   10.8374 </r>
       </set>
       <set comment="kpoint 5">
        <r>  -20.4148 </r>
        <r>  -20.3559 </r>
        <r>  -20.3559 </r>
        <r>  -20.3557 </r>
        <r>   -6.8739 </r>
        <r>   -6.8734 </r>
        <r>   -6.8734 </r>
        <r>   -6.5287 </r>
        <r>   -6.5243 </r>
        <r>   -6.5243 </r>
        <r>   -6.5230 </r>
        <r>   -6.5230 </r>
        <r>   -6.5222 </r>
        <r>   -6.3244 </r>
        <r>   -6.3187 </r>
        <r>   -6.3173 </r>
        <r>    0.8709 </r>
        <r>    3.3780 </r>
        <r>    3.3780 </r>
        <r>    3.3921 </r>
        <r>    4.6473 </r>
        <r>    4.6486 </r>
        <r>    4.6486 </r>
        <r>    5.7667 </r>
        <r>    5.7667 </r>
        <r>    5.7719 </r>
        <r>    6.8731 </r>
        <r>    6.9288 </r>
        <r>    6.9312 </r>
        <r>    8.7548 </r>
        <r>    8.7954 </r>
        <r>    8.9604 </r>
        <r>    8.9604 </r>
        <r>    8.9684 </r>
        <r>    9.0139 </r>
        <r>    9.0796 </r>
        <r>    9.0796 </r>
        <r>    9.9453 </r>
        <r>   10.2756 </r>
        <r>   10.2756 </r>
        <r>   10.3603 </r>
        <r>   10.3963 </r>
        <r>   10.3963 </r>
        <r>   10.4309 </r>
        <r>   10.7848 </r>
        <r>   10.8392 </r>
        <r>   10.8557 </r>
        <r>   10.8590 </r>
       </set>
       <set comment="kpoint 6">
        <r>  -20.4145 </r>
        <r>  -20.3561 </r>
        <r>  -20.3561 </r>
        <r>  -20.3557 </r>
        <r>   -6.8723 </r>
        <r>   -6.8716 </r>
        <r>   -6.8716 </r>
        <r>   -6.5315 </r>
        <r>   -6.5248 </r>
        <r>   -6.5248 </r>
        <r>   -6.5226 </r>
        <r>   -6.5226 </r>
        <r>   -6.5214 </r>
        <r>   -6.3285 </r>
        <r>   -6.3198 </r>
        <r>   -6.3175 </r>
        <r>    0.8831 </r>
        <r>    3.3804 </r>
        <r>    3.3804 </r>
        <r>    3.4029 </r>
        <r>    4.6520 </r>
        <r>    4.6542 </r>
        <r>    4.6542 </r>
        <r>    5.7576 </r>
        <r>    5.7576 </r>
        <r>    5.7658 </r>
        <r>    6.8478 </r>
        <r>    6.9335 </r>
        <r>    6.9372 </r>
        <r>    8.7272 </r>
        <r>    8.7891 </r>
        <r>    8.8942 </r>
        <r>    8.8942 </r>
        <r>    8.9053 </r>
        <r>    8.9696 </r>
        <r>    9.0670 </r>
        <r>    9.0670 </r>
        <r>    9.9825 </r>
        <r>   10.2862 </r>
        <r>   10.2862 </r>
        <r>   10.4300 </r>
        <r>   10.4394 </r>
        <r>   10.4394 </r>
        <r>   10.4858 </r>
        <r>   10.7676 </r>
        <r>   10.8509 </r>
        <r>   10.8773 </r>
        <r>   10.8779 </r>
       </set>
       <set comment="kpoint 7">
        <r>  -20.4142 </r>
        <r>  -20.3562 </r>
        <r>  -20.3562 </r>
        <r>  -20.3557 </r>
        <r>   -6.8703 </r>
        <r>   -6.8694 </r>
        <r>   -6.8694 </r>
        <r>   -6.5349 </r>
        <r>   -6.5253 </r>
        <r>   -6.5253 </r>
        <r>   -6.5222 </r>
        <r>   -6.5222 </r>
        <r>   -6.5205 </r>
        <r>   -6.3335 </r>
        <r>   -6.3210 </r>
        <r>   -6.3177 </r>
        <r>    0.8979 </r>
        <r>    3.3833 </r>
        <r>    3.3833 </r>
        <r>    3.4157 </r>
        <r>    4.6576 </r>
        <r>    4.6612 </r>
        <r>    4.6612 </r>
        <r>    5.7468 </r>
        <r>    5.7468 </r>
        <r>    5.7584 </r>
        <r>    6.8178 </r>
        <r>    6.9389 </r>
        <r>    6.9446 </r>
        <r>    8.6946 </r>
        <r>    8.7817 </r>
        <r>    8.8225 </r>
        <r>    8.8225 </r>
        <r>    8.8364 </r>
        <r>    8.9196 </r>
        <r>    9.0521 </r>
        <r>    9.0521 </r>
        <r>   10.0268 </r>
        <r>   10.2946 </r>
        <r>   10.2946 </r>
        <r>   10.4813 </r>
        <r>   10.4813 </r>
        <r>   10.5069 </r>
        <r>   10.5486 </r>
        <r>   10.7471 </r>
        <r>   10.8656 </r>
        <r>   10.9034 </r>
        <r>   10.9042 </r>
       </set>
       <set comment="kpoint 8">
        <r>  -20.4138 </r>
        <r>  -20.3564 </r>
        <r>  -20.3564 </r>
        <r>  -20.3557 </r>
        <r>   -6.8681 </r>
        <r>   -6.8668 </r>
        <r>   -6.8668 </r>
        <r>   -6.5389 </r>
        <r>   -6.5259 </r>
        <r>   -6.5259 </r>
        <r>   -6.5216 </r>
        <r>   -6.5216 </r>
        <r>   -6.5194 </r>
        <r>   -6.3394 </r>
        <r>   -6.3225 </r>
        <r>   -6.3180 </r>
        <r>    0.9154 </r>
        <r>    3.3865 </r>
        <r>    3.3865 </r>
        <r>    3.4307 </r>
        <r>    4.6640 </r>
        <r>    4.6692 </r>
        <r>    4.6692 </r>
        <r>    5.7340 </r>
        <r>    5.7340 </r>
        <r>    5.7497 </r>
        <r>    6.7832 </r>
        <r>    6.9448 </r>
        <r>    6.9533 </r>
        <r>    8.6577 </r>
        <r>    8.7473 </r>
        <r>    8.7473 </r>
        <r>    8.7639 </r>
        <r>    8.7728 </r>
        <r>    8.8655 </r>
        <r>    9.0351 </r>
        <r>    9.0351 </r>
        <r>   10.0775 </r>
        <r>   10.3019 </r>
        <r>   10.3019 </r>
        <r>   10.5163 </r>
        <r>   10.5164 </r>
        <r>   10.5889 </r>
        <r>   10.6180 </r>
        <r>   10.7228 </r>
        <r>   10.8831 </r>
        <r>   10.9334 </r>
        <r>   10.9335 </r>
       </set>
       <set comment="kpoint 9">
        <r>  -20.4133 </r>
        <r>  -20.3566 </r>
        <r>  -20.3566 </r>
        <r>  -20.3556 </r>
        <r>   -6.8654 </r>
        <r>   -6.8639 </r>
        <r>   -6.8639 </r>
        <r>   -6.5435 </r>
        <r>   -6.5265 </r>
        <r>   -6.5265 </r>
        <r>   -6.5209 </r>
        <r>   -6.5209 </r>
        <r>   -6.5181 </r>
        <r>   -6.3461 </r>
        <r>   -6.3242 </r>
        <r>   -6.3183 </r>
        <r>    0.9355 </r>
        <r>    3.3901 </r>
        <r>    3.3901 </r>
        <r>    3.4480 </r>
        <r>    4.6712 </r>
        <r>    4.6785 </r>
        <r>    4.6785 </r>
        <r>    5.7196 </r>
        <r>    5.7196 </r>
        <r>    5.7400 </r>
        <r>    6.7454 </r>
        <r>    6.9512 </r>
        <r>    6.9634 </r>
        <r>    8.6171 </r>
        <r>    8.6702 </r>
        <r>    8.6702 </r>
        <r>    8.6896 </r>
        <r>    8.7634 </r>
        <r>    8.8090 </r>
        <r>    9.0164 </r>
        <r>    9.0164 </r>
        <r>   10.1342 </r>
        <r>   10.3080 </r>
        <r>   10.3080 </r>
        <r>   10.5425 </r>
        <r>   10.5426 </r>
        <r>   10.6751 </r>
        <r>   10.6952 </r>
        <r>   10.6957 </r>
        <r>   10.9053 </r>
        <r>   10.9670 </r>
        <r>   10.9671 </r>
       </set>
       <set comment="kpoint 10">
        <r>  -20.4129 </r>
        <r>  -20.3568 </r>
        <r>  -20.3568 </r>
        <r>  -20.3556 </r>
        <r>   -6.8625 </r>
        <r>   -6.8607 </r>
        <r>   -6.8607 </r>
        <r>   -6.5486 </r>
        <r>   -6.5273 </r>
        <r>   -6.5273 </r>
        <r>   -6.5201 </r>
        <r>   -6.5201 </r>
        <r>   -6.5167 </r>
        <r>   -6.3536 </r>
        <r>   -6.3262 </r>
        <r>   -6.3187 </r>
        <r>    0.9580 </r>
        <r>    3.3941 </r>
        <r>    3.3941 </r>
        <r>    3.4674 </r>
        <r>    4.6786 </r>
        <r>    4.6889 </r>
        <r>    4.6889 </r>
        <r>    5.7036 </r>
        <r>    5.7036 </r>
        <r>    5.7290 </r>
        <r>    6.7035 </r>
        <r>    6.9569 </r>
        <r>    6.9747 </r>
        <r>    8.5724 </r>
        <r>    8.5927 </r>
        <r>    8.5927 </r>
        <r>    8.6146 </r>
        <r>    8.7497 </r>
        <r>    8.7529 </r>
        <r>    8.9964 </r>
        <r>    8.9964 </r>
        <r>   10.1959 </r>
        <r>   10.3144 </r>
        <r>   10.3144 </r>
        <r>   10.5614 </r>
        <r>   10.5614 </r>
        <r>   10.6648 </r>
        <r>   10.7624 </r>
        <r>   10.7743 </r>
        <r>   10.9279 </r>
        <r>   11.0062 </r>
        <r>   11.0065 </r>
       </set>
       <set comment="kpoint 11">
        <r>  -20.4124 </r>
        <r>  -20.3570 </r>
        <r>  -20.3570 </r>
        <r>  -20.3556 </r>
        <r>   -6.8592 </r>
        <r>   -6.8572 </r>
        <r>   -6.8572 </r>
        <r>   -6.5542 </r>
        <r>   -6.5281 </r>
        <r>   -6.5281 </r>
        <r>   -6.5192 </r>
        <r>   -6.5192 </r>
        <r>   -6.5151 </r>
        <r>   -6.3618 </r>
        <r>   -6.3283 </r>
        <r>   -6.3192 </r>
        <r>    0.9832 </r>
        <r>    3.3981 </r>
        <r>    3.3981 </r>
        <r>    3.4889 </r>
        <r>    4.6863 </r>
        <r>    4.7006 </r>
        <r>    4.7006 </r>
        <r>    5.6862 </r>
        <r>    5.6862 </r>
        <r>    5.7170 </r>
        <r>    6.6598 </r>
        <r>    6.9627 </r>
        <r>    6.9869 </r>
        <r>    8.5155 </r>
        <r>    8.5155 </r>
        <r>    8.5254 </r>
        <r>    8.5401 </r>
        <r>    8.6889 </r>
        <r>    8.7424 </r>
        <r>    8.9748 </r>
        <r>    8.9748 </r>
        <r>   10.2621 </r>
        <r>   10.3197 </r>
        <r>   10.3197 </r>
        <r>   10.5736 </r>
        <r>   10.5736 </r>
        <r>   10.6307 </r>
        <r>   10.8507 </r>
        <r>   10.8572 </r>
        <r>   10.9525 </r>
        <r>   11.0471 </r>
        <r>   11.0474 </r>
       </set>
       <set comment="kpoint 12">
        <r>  -20.4118 </r>
        <r>  -20.3573 </r>
        <r>  -20.3573 </r>
        <r>  -20.3556 </r>
        <r>   -6.8555 </r>
        <r>   -6.8534 </r>
        <r>   -6.8534 </r>
        <r>   -6.5602 </r>
        <r>   -6.5291 </r>
        <r>   -6.5291 </r>
        <r>   -6.5181 </r>
        <r>   -6.5181 </r>
        <r>   -6.5134 </r>
        <r>   -6.3708 </r>
        <r>   -6.3307 </r>
        <r>   -6.3197 </r>
        <r>    1.0107 </r>
        <r>    3.4022 </r>
        <r>    3.4022 </r>
        <r>    3.5125 </r>
        <r>    4.6941 </r>
        <r>    4.7132 </r>
        <r>    4.7132 </r>
        <r>    5.6674 </r>
        <r>    5.6674 </r>
        <r>    5.7040 </r>
        <r>    6.6133 </r>
        <r>    6.9684 </r>
        <r>    7.0009 </r>
        <r>    8.4394 </r>
        <r>    8.4394 </r>
        <r>    8.4671 </r>
        <r>    8.4753 </r>
        <r>    8.6274 </r>
        <r>    8.7313 </r>
        <r>    8.9521 </r>
        <r>    8.9521 </r>
        <r>   10.3245 </r>
        <r>   10.3245 </r>
        <r>   10.3320 </r>
        <r>   10.5814 </r>
        <r>   10.5814 </r>
        <r>   10.5936 </r>
        <r>   10.9391 </r>
        <r>   10.9432 </r>
        <r>   10.9797 </r>
        <r>   11.0902 </r>
        <r>   11.0905 </r>
       </set>
       <set comment="kpoint 13">
        <r>  -20.4111 </r>
        <r>  -20.3577 </r>
        <r>  -20.3577 </r>
        <r>  -20.3556 </r>
        <r>   -6.8516 </r>
        <r>   -6.8494 </r>
        <r>   -6.8494 </r>
        <r>   -6.5667 </r>
        <r>   -6.5300 </r>
        <r>   -6.5300 </r>
        <r>   -6.5168 </r>
        <r>   -6.5168 </r>
        <r>   -6.5115 </r>
        <r>   -6.3804 </r>
        <r>   -6.3334 </r>
        <r>   -6.3202 </r>
        <r>    1.0408 </r>
        <r>    3.4063 </r>
        <r>    3.4063 </r>
        <r>    3.5380 </r>
        <r>    4.7017 </r>
        <r>    4.7269 </r>
        <r>    4.7269 </r>
        <r>    5.6475 </r>
        <r>    5.6475 </r>
        <r>    5.6901 </r>
        <r>    6.5657 </r>
        <r>    6.9734 </r>
        <r>    7.0162 </r>
        <r>    8.3648 </r>
        <r>    8.3648 </r>
        <r>    8.3962 </r>
        <r>    8.4252 </r>
        <r>    8.5654 </r>
        <r>    8.7212 </r>
        <r>    8.9286 </r>
        <r>    8.9286 </r>
        <r>   10.3288 </r>
        <r>   10.3288 </r>
        <r>   10.4050 </r>
        <r>   10.5537 </r>
        <r>   10.5864 </r>
        <r>   10.5865 </r>
        <r>   11.0091 </r>
        <r>   11.0268 </r>
        <r>   11.0318 </r>
        <r>   11.1359 </r>
        <r>   11.1361 </r>
       </set>
       <set comment="kpoint 14">
        <r>  -20.4104 </r>
        <r>  -20.3581 </r>
        <r>  -20.3581 </r>
        <r>  -20.3556 </r>
        <r>   -6.8473 </r>
        <r>   -6.8452 </r>
        <r>   -6.8452 </r>
        <r>   -6.5736 </r>
        <r>   -6.5311 </r>
        <r>   -6.5311 </r>
        <r>   -6.5154 </r>
        <r>   -6.5154 </r>
        <r>   -6.5095 </r>
        <r>   -6.3906 </r>
        <r>   -6.3362 </r>
        <r>   -6.3208 </r>
        <r>    1.0731 </r>
        <r>    3.4102 </r>
        <r>    3.4102 </r>
        <r>    3.5654 </r>
        <r>    4.7088 </r>
        <r>    4.7415 </r>
        <r>    4.7415 </r>
        <r>    5.6266 </r>
        <r>    5.6266 </r>
        <r>    5.6754 </r>
        <r>    6.5167 </r>
        <r>    6.9771 </r>
        <r>    7.0329 </r>
        <r>    8.2923 </r>
        <r>    8.2923 </r>
        <r>    8.3282 </r>
        <r>    8.3738 </r>
        <r>    8.5034 </r>
        <r>    8.7119 </r>
        <r>    8.9044 </r>
        <r>    8.9044 </r>
        <r>   10.3321 </r>
        <r>   10.3321 </r>
        <r>   10.4804 </r>
        <r>   10.5111 </r>
        <r>   10.5896 </r>
        <r>   10.5896 </r>
        <r>   11.0407 </r>
        <r>   11.1131 </r>
        <r>   11.1171 </r>
        <r>   11.1232 </r>
        <r>   11.1838 </r>
       </set>
       <set comment="kpoint 15">
        <r>  -20.4096 </r>
        <r>  -20.3584 </r>
        <r>  -20.3584 </r>
        <r>  -20.3557 </r>
        <r>   -6.8427 </r>
        <r>   -6.8409 </r>
        <r>   -6.8409 </r>
        <r>   -6.5809 </r>
        <r>   -6.5322 </r>
        <r>   -6.5322 </r>
        <r>   -6.5137 </r>
        <r>   -6.5137 </r>
        <r>   -6.5073 </r>
        <r>   -6.4014 </r>
        <r>   -6.3393 </r>
        <r>   -6.3215 </r>
        <r>    1.1079 </r>
        <r>    3.4140 </r>
        <r>    3.4140 </r>
        <r>    3.5946 </r>
        <r>    4.7149 </r>
        <r>    4.7571 </r>
        <r>    4.7571 </r>
        <r>    5.6049 </r>
        <r>    5.6049 </r>
        <r>    5.6600 </r>
        <r>    6.4667 </r>
        <r>    6.9791 </r>
        <r>    7.0509 </r>
        <r>    8.2220 </r>
        <r>    8.2220 </r>
        <r>    8.2636 </r>
        <r>    8.3224 </r>
        <r>    8.4413 </r>
        <r>    8.7041 </r>
        <r>    8.8799 </r>
        <r>    8.8799 </r>
        <r>   10.3345 </r>
        <r>   10.3345 </r>
        <r>   10.4659 </r>
        <r>   10.5575 </r>
        <r>   10.5922 </r>
        <r>   10.5922 </r>
        <r>   11.0743 </r>
        <r>   11.0793 </r>
        <r>   11.1976 </r>
        <r>   11.2138 </r>
        <r>   11.2340 </r>
       </set>
       <set comment="kpoint 16">
        <r>  -20.4087 </r>
        <r>  -20.3588 </r>
        <r>  -20.3588 </r>
        <r>  -20.3556 </r>
        <r>   -6.8378 </r>
        <r>   -6.8364 </r>
        <r>   -6.8364 </r>
        <r>   -6.5885 </r>
        <r>   -6.5334 </r>
        <r>   -6.5334 </r>
        <r>   -6.5119 </r>
        <r>   -6.5119 </r>
        <r>   -6.5050 </r>
        <r>   -6.4128 </r>
        <r>   -6.3426 </r>
        <r>   -6.3222 </r>
        <r>    1.1448 </r>
        <r>    3.4175 </r>
        <r>    3.4175 </r>
        <r>    3.6260 </r>
        <r>    4.7202 </r>
        <r>    4.7735 </r>
        <r>    4.7735 </r>
        <r>    5.5827 </r>
        <r>    5.5827 </r>
        <r>    5.6443 </r>
        <r>    6.4161 </r>
        <r>    6.9787 </r>
        <r>    7.0702 </r>
        <r>    8.1542 </r>
        <r>    8.1542 </r>
        <r>    8.2033 </r>
        <r>    8.2692 </r>
        <r>    8.3806 </r>
        <r>    8.6977 </r>
        <r>    8.8550 </r>
        <r>    8.8550 </r>
        <r>   10.3355 </r>
        <r>   10.3355 </r>
        <r>   10.4214 </r>
        <r>   10.5947 </r>
        <r>   10.5947 </r>
        <r>   10.6357 </r>
        <r>   11.0452 </r>
        <r>   11.1114 </r>
        <r>   11.2787 </r>
        <r>   11.2859 </r>
        <r>   11.2863 </r>
       </set>
       <set comment="kpoint 17">
        <r>  -20.4079 </r>
        <r>  -20.3593 </r>
        <r>  -20.3593 </r>
        <r>  -20.3557 </r>
        <r>   -6.8326 </r>
        <r>   -6.8319 </r>
        <r>   -6.8319 </r>
        <r>   -6.5964 </r>
        <r>   -6.5346 </r>
        <r>   -6.5346 </r>
        <r>   -6.5098 </r>
        <r>   -6.5098 </r>
        <r>   -6.5025 </r>
        <r>   -6.4246 </r>
        <r>   -6.3462 </r>
        <r>   -6.3230 </r>
        <r>    1.1839 </r>
        <r>    3.4205 </r>
        <r>    3.4205 </r>
        <r>    3.6587 </r>
        <r>    4.7238 </r>
        <r>    4.7908 </r>
        <r>    4.7908 </r>
        <r>    5.5601 </r>
        <r>    5.5601 </r>
        <r>    5.6277 </r>
        <r>    6.3651 </r>
        <r>    6.9759 </r>
        <r>    7.0909 </r>
        <r>    8.0890 </r>
        <r>    8.0890 </r>
        <r>    8.1476 </r>
        <r>    8.2164 </r>
        <r>    8.3202 </r>
        <r>    8.6941 </r>
        <r>    8.8299 </r>
        <r>    8.8299 </r>
        <r>   10.3340 </r>
        <r>   10.3340 </r>
        <r>   10.3717 </r>
        <r>   10.5972 </r>
        <r>   10.5972 </r>
        <r>   10.7143 </r>
        <r>   11.0153 </r>
        <r>   11.1491 </r>
        <r>   11.3385 </r>
        <r>   11.3387 </r>
        <r>   11.3572 </r>
       </set>
       <set comment="kpoint 18">
        <r>  -20.4069 </r>
        <r>  -20.3598 </r>
        <r>  -20.3598 </r>
        <r>  -20.3558 </r>
        <r>   -6.8273 </r>
        <r>   -6.8273 </r>
        <r>   -6.8271 </r>
        <r>   -6.6045 </r>
        <r>   -6.5359 </r>
        <r>   -6.5359 </r>
        <r>   -6.5075 </r>
        <r>   -6.5075 </r>
        <r>   -6.5000 </r>
        <r>   -6.4368 </r>
        <r>   -6.3500 </r>
        <r>   -6.3239 </r>
        <r>    1.2252 </r>
        <r>    3.4231 </r>
        <r>    3.4231 </r>
        <r>    3.6931 </r>
        <r>    4.7257 </r>
        <r>    4.8088 </r>
        <r>    4.8088 </r>
        <r>    5.5375 </r>
        <r>    5.5375 </r>
        <r>    5.6107 </r>
        <r>    6.3139 </r>
        <r>    6.9699 </r>
        <r>    7.1128 </r>
        <r>    8.0266 </r>
        <r>    8.0266 </r>
        <r>    8.0972 </r>
        <r>    8.1638 </r>
        <r>    8.2607 </r>
        <r>    8.6934 </r>
        <r>    8.8050 </r>
        <r>    8.8050 </r>
        <r>   10.3199 </r>
        <r>   10.3316 </r>
        <r>   10.3316 </r>
        <r>   10.6004 </r>
        <r>   10.6004 </r>
        <r>   10.7927 </r>
        <r>   10.9895 </r>
        <r>   11.1885 </r>
        <r>   11.3932 </r>
        <r>   11.3936 </r>
        <r>   11.4320 </r>
       </set>
       <set comment="kpoint 19">
        <r>  -20.4059 </r>
        <r>  -20.3602 </r>
        <r>  -20.3602 </r>
        <r>  -20.3558 </r>
        <r>   -6.8227 </r>
        <r>   -6.8227 </r>
        <r>   -6.8214 </r>
        <r>   -6.6128 </r>
        <r>   -6.5372 </r>
        <r>   -6.5372 </r>
        <r>   -6.5049 </r>
        <r>   -6.5049 </r>
        <r>   -6.4973 </r>
        <r>   -6.4494 </r>
        <r>   -6.3540 </r>
        <r>   -6.3248 </r>
        <r>    1.2685 </r>
        <r>    3.4250 </r>
        <r>    3.4250 </r>
        <r>    3.7290 </r>
        <r>    4.7252 </r>
        <r>    4.8276 </r>
        <r>    4.8276 </r>
        <r>    5.5150 </r>
        <r>    5.5150 </r>
        <r>    5.5933 </r>
        <r>    6.2629 </r>
        <r>    6.9604 </r>
        <r>    7.1361 </r>
        <r>    7.9670 </r>
        <r>    7.9670 </r>
        <r>    8.0526 </r>
        <r>    8.1115 </r>
        <r>    8.2023 </r>
        <r>    8.6965 </r>
        <r>    8.7803 </r>
        <r>    8.7803 </r>
        <r>   10.2662 </r>
        <r>   10.3279 </r>
        <r>   10.3279 </r>
        <r>   10.6048 </r>
        <r>   10.6048 </r>
        <r>   10.8704 </r>
        <r>   10.9678 </r>
        <r>   11.2298 </r>
        <r>   11.4492 </r>
        <r>   11.4499 </r>
        <r>   11.5026 </r>
       </set>
       <set comment="kpoint 20">
        <r>  -20.4049 </r>
        <r>  -20.3606 </r>
        <r>  -20.3606 </r>
        <r>  -20.3559 </r>
        <r>   -6.8182 </r>
        <r>   -6.8182 </r>
        <r>   -6.8153 </r>
        <r>   -6.6213 </r>
        <r>   -6.5385 </r>
        <r>   -6.5385 </r>
        <r>   -6.5020 </r>
        <r>   -6.5020 </r>
        <r>   -6.4944 </r>
        <r>   -6.4623 </r>
        <r>   -6.3582 </r>
        <r>   -6.3258 </r>
        <r>    1.3139 </r>
        <r>    3.4262 </r>
        <r>    3.4262 </r>
        <r>    3.7665 </r>
        <r>    4.7222 </r>
        <r>    4.8472 </r>
        <r>    4.8472 </r>
        <r>    5.4932 </r>
        <r>    5.4932 </r>
        <r>    5.5756 </r>
        <r>    6.2122 </r>
        <r>    6.9470 </r>
        <r>    7.1606 </r>
        <r>    7.9106 </r>
        <r>    7.9106 </r>
        <r>    8.0142 </r>
        <r>    8.0598 </r>
        <r>    8.1450 </r>
        <r>    8.7037 </r>
        <r>    8.7562 </r>
        <r>    8.7562 </r>
        <r>   10.2108 </r>
[...]
       <r>   10.0881    0.0000 </r>
       <r>   10.4185    0.0000 </r>
       <r>   10.4185    0.0000 </r>
       <r>   10.4619    0.0000 </r>
       <r>   10.4619    0.0000 </r>
       <r>   10.9480    0.0000 </r>
       <r>   10.9480    0.0000 </r>
      </set>
      <set comment="kpoint 34">
       <r>  -20.3704    1.0000 </r>
       <r>  -20.3704    1.0000 </r>
       <r>  -20.3704    1.0000 </r>
       <r>  -20.3704    1.0000 </r>
       <r>   -6.9105    1.0000 </r>
       <r>   -6.9105    1.0000 </r>
       <r>   -6.9105    1.0000 </r>
       <r>   -6.9105    1.0000 </r>
       <r>   -6.4079    1.0000 </r>
       <r>   -6.4079    1.0000 </r>
       <r>   -6.4079    1.0000 </r>
       <r>   -6.4079    1.0000 </r>
       <r>   -6.3894    1.0000 </r>
       <r>   -6.3894    1.0000 </r>
       <r>   -6.3894    1.0000 </r>
       <r>   -6.3894    1.0000 </r>
       <r>    3.1924    0.0000 </r>
       <r>    3.1924    0.0000 </r>
       <r>    3.1924    0.0000 </r>
       <r>    3.1924    0.0000 </r>
       <r>    4.7220    0.0000 </r>
       <r>    4.7220    0.0000 </r>
       <r>    4.7220    0.0000 </r>
       <r>    4.7220    0.0000 </r>
       <r>    6.4797    0.0000 </r>
       <r>    6.4797    0.0000 </r>
       <r>    6.4797    0.0000 </r>
       <r>    6.4797    0.0000 </r>
       <r>    6.6660    0.0000 </r>
       <r>    6.6660    0.0000 </r>
       <r>    6.6660    0.0000 </r>
       <r>    6.6660    0.0000 </r>
       <r>    9.6607    0.0000 </r>
       <r>    9.6607    0.0000 </r>
       <r>    9.6607    0.0000 </r>
       <r>    9.6607    0.0000 </r>
       <r>    9.9081    0.0000 </r>
       <r>    9.9081    0.0000 </r>
       <r>    9.9081    0.0000 </r>
       <r>    9.9081    0.0000 </r>
       <r>   10.3561    0.0000 </r>
       <r>   10.3561    0.0000 </r>
       <r>   10.3561    0.0000 </r>
       <r>   10.3561    0.0000 </r>
       <r>   10.4915    0.0000 </r>
       <r>   10.4915    0.0000 </r>
       <r>   10.4915    0.0000 </r>
       <r>   10.4915    0.0000 </r>
      </set>
      <set comment="kpoint 35">
       <r>  -20.3704    1.0000 </r>
       <r>  -20.3704    1.0000 </r>
       <r>  -20.3704    1.0000 </r>
       <r>  -20.3704    1.0000 </r>
       <r>   -6.9274    1.0000 </r>
       <r>   -6.9274    1.0000 </r>
       <r>   -6.9274    1.0000 </r>
       <r>   -6.9274    1.0000 </r>
       <r>   -6.3892    1.0000 </r>
       <r>   -6.3892    1.0000 </r>
       <r>   -6.3892    1.0000 </r>
       <r>   -6.3892    1.0000 </r>
       <r>   -6.3892    1.0000 </r>
       <r>   -6.3892    1.0000 </r>
       <r>   -6.3892    1.0000 </r>
       <r>   -6.3892    1.0000 </r>
       <r>    3.1843    0.0000 </r>
       <r>    3.1843    0.0000 </r>
       <r>    3.1843    0.0000 </r>
       <r>    3.1843    0.0000 </r>
       <r>    4.7066    0.0000 </r>
       <r>    4.7066    0.0000 </r>
       <r>    4.7066    0.0000 </r>
       <r>    4.7066    0.0000 </r>
       <r>    6.6044    0.0000 </r>
       <r>    6.6044    0.0000 </r>
       <r>    6.6044    0.0000 </r>
       <r>    6.6044    0.0000 </r>
       <r>    6.6044    0.0000 </r>
       <r>    6.6044    0.0000 </r>
       <r>    6.6044    0.0000 </r>
       <r>    6.6044    0.0000 </r>
       <r>    9.5007    0.0000 </r>
       <r>    9.5007    0.0000 </r>
       <r>    9.5007    0.0000 </r>
       <r>    9.5007    0.0000 </r>
       <r>   10.2939    0.0000 </r>
       <r>   10.2939    0.0000 </r>
       <r>   10.2939    0.0000 </r>
       <r>   10.2939    0.0000 </r>
       <r>   10.2939    0.0000 </r>
       <r>   10.2939    0.0000 </r>
       <r>   10.2939    0.0000 </r>
       <r>   10.2939    0.0000 </r>
       <r>   10.5624    0.0000 </r>
       <r>   10.5624    0.0000 </r>
       <r>   10.5624    0.0000 </r>
       <r>   10.5624    0.0000 </r>
      </set>
     </set>
    </set>
   </array>
  </eigenvalues>
  <separator name="orbital magnetization" >
   <v name="MAGDIPOLOUT">      0.00000000      0.00000000      0.00000000</v>
  </separator>
  <dos>
   <i name="efermi">     -6.04994717 </i>
   <total>
    <array>
     <dimension dim="1">gridpoints</dimension>
     <dimension dim="2">spin</dimension>
     <field>energy</field>
     <field>total</field>
     <field>integrated</field>
     <set>
      <set comment="spin 1">
       <r>   -22.0826     0.0000     0.0000 </r>
       <r>   -21.9603     0.0000     0.0000 </r>
       <r>   -21.8380     0.0000     0.0000 </r>
       <r>   -21.7158     0.0000     0.0000 </r>
       <r>   -21.5935     0.0000     0.0000 </r>
       <r>   -21.4712     0.0000     0.0000 </r>
       <r>   -21.3490     0.0000     0.0000 </r>
       <r>   -21.2267     0.0000     0.0000 </r>
       <r>   -21.1044     0.0000     0.0000 </r>
       <r>   -20.9822     0.0000     0.0000 </r>
       <r>   -20.8599     0.0000     0.0000 </r>
       <r>   -20.7376     0.0000     0.0000 </r>
       <r>   -20.6153     0.0000     0.0000 </r>
       <r>   -20.4931     0.0481     0.0059 </r>
       <r>   -20.3708    32.2166     3.9450 </r>
       <r>   -20.2485    33.1328     7.9961 </r>
       <r>   -20.1263     0.0315     8.0000 </r>
       <r>   -20.0040     0.0000     8.0000 </r>
       <r>   -19.8817     0.0000     8.0000 </r>
       <r>   -19.7595     0.0000     8.0000 </r>
       <r>   -19.6372     0.0000     8.0000 </r>
       <r>   -19.5149     0.0000     8.0000 </r>
       <r>   -19.3927     0.0000     8.0000 </r>
       <r>   -19.2704     0.0000     8.0000 </r>
       <r>   -19.1481     0.0000     8.0000 </r>
       <r>   -19.0258     0.0000     8.0000 </r>
       <r>   -18.9036     0.0000     8.0000 </r>
       <r>   -18.7813     0.0000     8.0000 </r>
       <r>   -18.6590     0.0000     8.0000 </r>
       <r>   -18.5368     0.0000     8.0000 </r>
       <r>   -18.4145     0.0000     8.0000 </r>
       <r>   -18.2922     0.0000     8.0000 </r>
       <r>   -18.1700     0.0000     8.0000 </r>
       <r>   -18.0477     0.0000     8.0000 </r>
       <r>   -17.9254     0.0000     8.0000 </r>
       <r>   -17.8031     0.0000     8.0000 </r>
       <r>   -17.6809     0.0000     8.0000 </r>
       <r>   -17.5586     0.0000     8.0000 </r>
       <r>   -17.4363     0.0000     8.0000 </r>
       <r>   -17.3141     0.0000     8.0000 </r>
       <r>   -17.1918     0.0000     8.0000 </r>
       <r>   -17.0695     0.0000     8.0000 </r>
       <r>   -16.9473     0.0000     8.0000 </r>
       <r>   -16.8250     0.0000     8.0000 </r>
       <r>   -16.7027     0.0000     8.0000 </r>
       <r>   -16.5804     0.0000     8.0000 </r>
       <r>   -16.4582     0.0000     8.0000 </r>
       <r>   -16.3359     0.0000     8.0000 </r>
       <r>   -16.2136     0.0000     8.0000 </r>
       <r>   -16.0914     0.0000     8.0000 </r>
       <r>   -15.9691     0.0000     8.0000 </r>
       <r>   -15.8468     0.0000     8.0000 </r>
       <r>   -15.7246     0.0000     8.0000 </r>
       <r>   -15.6023     0.0000     8.0000 </r>
       <r>   -15.4800     0.0000     8.0000 </r>
       <r>   -15.3577     0.0000     8.0000 </r>
       <r>   -15.2355     0.0000     8.0000 </r>
       <r>   -15.1132     0.0000     8.0000 </r>
       <r>   -14.9909     0.0000     8.0000 </r>
       <r>   -14.8687     0.0000     8.0000 </r>
       <r>   -14.7464     0.0000     8.0000 </r>
       <r>   -14.6241     0.0000     8.0000 </r>
       <r>   -14.5019     0.0000     8.0000 </r>
       <r>   -14.3796     0.0000     8.0000 </r>
       <r>   -14.2573     0.0000     8.0000 </r>
       <r>   -14.1350     0.0000     8.0000 </r>
       <r>   -14.0128     0.0000     8.0000 </r>
       <r>   -13.8905     0.0000     8.0000 </r>
       <r>   -13.7682     0.0000     8.0000 </r>
       <r>   -13.6460     0.0000     8.0000 </r>
       <r>   -13.5237     0.0000     8.0000 </r>
       <r>   -13.4014     0.0000     8.0000 </r>
       <r>   -13.2792     0.0000     8.0000 </r>
       <r>   -13.1569     0.0000     8.0000 </r>
       <r>   -13.0346     0.0000     8.0000 </r>
       <r>   -12.9123     0.0000     8.0000 </r>
       <r>   -12.7901     0.0000     8.0000 </r>
       <r>   -12.6678     0.0000     8.0000 </r>
       <r>   -12.5455     0.0000     8.0000 </r>
       <r>   -12.4233     0.0000     8.0000 </r>
       <r>   -12.3010     0.0000     8.0000 </r>
       <r>   -12.1787     0.0000     8.0000 </r>
       <r>   -12.0565     0.0000     8.0000 </r>
       <r>   -11.9342     0.0000     8.0000 </r>
       <r>   -11.8119     0.0000     8.0000 </r>
       <r>   -11.6896     0.0000     8.0000 </r>
       <r>   -11.5674     0.0000     8.0000 </r>
       <r>   -11.4451     0.0000     8.0000 </r>
       <r>   -11.3228     0.0000     8.0000 </r>
       <r>   -11.2006     0.0000     8.0000 </r>
       <r>   -11.0783     0.0000     8.0000 </r>
       <r>   -10.9560     0.0000     8.0000 </r>
       <r>   -10.8338     0.0000     8.0000 </r>
       <r>   -10.7115     0.0000     8.0000 </r>
       <r>   -10.5892     0.0000     8.0000 </r>
       <r>   -10.4669     0.0000     8.0000 </r>
       <r>   -10.3447     0.0000     8.0000 </r>
       <r>   -10.2224     0.0000     8.0000 </r>
       <r>   -10.1001     0.0000     8.0000 </r>
       <r>    -9.9779     0.0000     8.0000 </r>
       <r>    -9.8556     0.0000     8.0000 </r>
       <r>    -9.7333     0.0000     8.0000 </r>
       <r>    -9.6111     0.0000     8.0000 </r>
       <r>    -9.4888     0.0000     8.0000 </r>
       <r>    -9.3665     0.0000     8.0000 </r>
       <r>    -9.2442     0.0000     8.0000 </r>
       <r>    -9.1220     0.0000     8.0000 </r>
       <r>    -8.9997     0.0000     8.0000 </r>
       <r>    -8.8774     0.0000     8.0000 </r>
       <r>    -8.7552     0.0000     8.0000 </r>
       <r>    -8.6329     0.0000     8.0000 </r>
       <r>    -8.5106     0.0000     8.0000 </r>
       <r>    -8.3884     0.0000     8.0000 </r>
       <r>    -8.2661     0.0000     8.0000 </r>
       <r>    -8.1438     0.0000     8.0000 </r>
       <r>    -8.0215     0.0000     8.0000 </r>
       <r>    -7.8993     0.0000     8.0000 </r>
       <r>    -7.7770     0.0000     8.0000 </r>
       <r>    -7.6547     0.0000     8.0000 </r>
       <r>    -7.5325     0.0000     8.0000 </r>
       <r>    -7.4102     0.0000     8.0000 </r>
       <r>    -7.2879     0.0000     8.0000 </r>
       <r>    -7.1657     0.0000     8.0000 </r>
       <r>    -7.0434     0.0002     8.0000 </r>
       <r>    -6.9211     1.1877     8.1452 </r>
       <r>    -6.7989    26.0148    11.3261 </r>
       <r>    -6.6766    31.6157    15.1917 </r>
       <r>    -6.5543    28.1990    18.6396 </r>
       <r>    -6.4320    59.8815    25.9613 </r>
       <r>    -6.3098    47.0942    31.7195 </r>
       <r>    -6.1875     2.2938    32.0000 </r>
       <r>    -6.0652     0.0001    32.0000 </r>
       <r>    -5.9430     0.0000    32.0000 </r>
       <r>    -5.8207     0.0000    32.0000 </r>
       <r>    -5.6984     0.0000    32.0000 </r>
       <r>    -5.5762     0.0000    32.0000 </r>
       <r>    -5.4539     0.0000    32.0000 </r>
       <r>    -5.3316     0.0000    32.0000 </r>
       <r>    -5.2093     0.0000    32.0000 </r>
       <r>    -5.0871     0.0000    32.0000 </r>
       <r>    -4.9648     0.0000    32.0000 </r>
       <r>    -4.8425     0.0000    32.0000 </r>
       <r>    -4.7203     0.0000    32.0000 </r>
       <r>    -4.5980     0.0000    32.0000 </r>
       <r>    -4.4757     0.0000    32.0000 </r>
       <r>    -4.3535     0.0000    32.0000 </r>
       <r>    -4.2312     0.0000    32.0000 </r>
       <r>    -4.1089     0.0000    32.0000 </r>
       <r>    -3.9866     0.0000    32.0000 </r>
       <r>    -3.8644     0.0000    32.0000 </r>
       <r>    -3.7421     0.0000    32.0000 </r>
       <r>    -3.6198     0.0000    32.0000 </r>
       <r>    -3.4976     0.0000    32.0000 </r>
       <r>    -3.3753     0.0000    32.0000 </r>
       <r>    -3.2530     0.0000    32.0000 </r>
       <r>    -3.1308     0.0000    32.0000 </r>
       <r>    -3.0085     0.0000    32.0000 </r>
       <r>    -2.8862     0.0000    32.0000 </r>
       <r>    -2.7639     0.0000    32.0000 </r>
       <r>    -2.6417     0.0000    32.0000 </r>
       <r>    -2.5194     0.0000    32.0000 </r>
       <r>    -2.3971     0.0000    32.0000 </r>
       <r>    -2.2749     0.0000    32.0000 </r>
       <r>    -2.1526     0.0000    32.0000 </r>
       <r>    -2.0303     0.0000    32.0000 </r>
       <r>    -1.9081     0.0000    32.0000 </r>
       <r>    -1.7858     0.0000    32.0000 </r>
       <r>    -1.6635     0.0000    32.0000 </r>
       <r>    -1.5412     0.0000    32.0000 </r>
       <r>    -1.4190     0.0000    32.0000 </r>
       <r>    -1.2967     0.0000    32.0000 </r>
       <r>    -1.1744     0.0000    32.0000 </r>
       <r>    -1.0522     0.0000    32.0000 </r>
       <r>    -0.9299     0.0000    32.0000 </r>
       <r>    -0.8076     0.0000    32.0000 </r>
       <r>    -0.6854     0.0000    32.0000 </r>
       <r>    -0.5631     0.0000    32.0000 </r>
       <r>    -0.4408     0.0000    32.0000 </r>
       <r>    -0.3185     0.0000    32.0000 </r>
       <r>    -0.1963     0.0000    32.0000 </r>
       <r>    -0.0740     0.0000    32.0000 </r>
       <r>     0.0483     0.0000    32.0000 </r>
       <r>     0.1705     0.0000    32.0000 </r>
       <r>     0.2928     0.0000    32.0000 </r>
       <r>     0.4151     0.0000    32.0000 </r>
       <r>     0.5373     0.0000    32.0000 </r>
       <r>     0.6596     0.0000    32.0000 </r>
       <r>     0.7819     0.0009    32.0001 </r>
       <r>     0.9042     0.0515    32.0064 </r>
       <r>     1.0264     0.3006    32.0432 </r>
       <r>     1.1487     0.4290    32.0956 </r>
       <r>     1.2710     0.3407    32.1373 </r>
       <r>     1.3932     1.0310    32.2633 </r>
       <r>     1.5155     0.4597    32.3196 </r>
       <r>     1.6378     0.7462    32.4108 </r>
       <r>     1.7600     1.2331    32.5616 </r>
       <r>     1.8823     1.0420    32.6890 </r>
       <r>     2.0046     1.1484    32.8294 </r>
       <r>     2.1269     1.2548    32.9828 </r>
       <r>     2.2491     1.2474    33.1353 </r>
       <r>     2.3714     1.8919    33.3667 </r>
       <r>     2.4937     1.8582    33.5939 </r>
       <r>     2.6159     1.7695    33.8102 </r>
       <r>     2.7382     1.1828    33.9548 </r>
       <r>     2.8605     3.5893    34.3937 </r>
       <r>     2.9827     2.3350    34.6792 </r>
       <r>     3.1050     2.5665    34.9930 </r>
       <r>     3.2273     3.6854    35.4436 </r>
       <r>     3.3496     4.7392    36.0231 </r>
       <r>     3.4718     5.1641    36.6545 </r>
       <r>     3.5941     3.3201    37.0605 </r>
       <r>     3.7164     5.2343    37.7004 </r>
       <r>     3.8386     5.3816    38.3585 </r>
       <r>     3.9609     2.4891    38.6628 </r>
       <r>     4.0832     4.5647    39.2209 </r>
       <r>     4.2054     3.9283    39.7012 </r>
       <r>     4.3277     2.4353    39.9990 </r>
       <r>     4.4500     2.0458    40.2492 </r>
       <r>     4.5723     5.6661    40.9419 </r>
       <r>     4.6945     6.7424    41.7663 </r>
       <r>     4.8168    13.5013    43.4171 </r>
       <r>     4.9391     7.8598    44.3782 </r>
       <r>     5.0613     7.3820    45.2807 </r>
       <r>     5.1836     6.9508    46.1306 </r>
       <r>     5.3059     6.3969    46.9128 </r>
       <r>     5.4281    12.3022    48.4170 </r>
       <r>     5.5504    11.4130    49.8124 </r>
       <r>     5.6727    10.4137    51.0857 </r>
       <r>     5.7949     7.9270    52.0549 </r>
       <r>     5.9172     4.4426    52.5981 </r>
       <r>     6.0395     4.5135    53.1500 </r>
       <r>     6.1618     3.3019    53.5537 </r>
       <r>     6.2840     4.8128    54.1422 </r>
       <r>     6.4063     3.1312    54.5250 </r>
       <r>     6.5286     2.1009    54.7819 </r>
       <r>     6.6508     3.4274    55.2010 </r>
       <r>     6.7731     4.8398    55.7928 </r>
       <r>     6.8954     6.6648    56.6077 </r>
       <r>     7.0176     8.2635    57.6180 </r>
       <r>     7.1399    11.6488    59.0423 </r>
       <r>     7.2622    12.3716    60.5550 </r>
       <r>     7.3845     8.5389    61.5991 </r>
       <r>     7.5067     5.5478    62.2774 </r>
       <r>     7.6290     5.9560    63.0056 </r>
       <r>     7.7513     5.4420    63.6710 </r>
       <r>     7.8735     3.4813    64.0967 </r>
       <r>     7.9958     3.5929    64.5360 </r>
       <r>     8.1181     5.2705    65.1804 </r>
       <r>     8.2403     3.9493    65.6633 </r>
       <r>     8.3626     2.5731    65.9779 </r>
       <r>     8.4849     9.7186    67.1662 </r>
       <r>     8.6072     6.9458    68.0155 </r>
       <r>     8.7294     7.9325    68.9854 </r>
       <r>     8.8517     6.9648    69.8370 </r>
       <r>     8.9740     8.4907    70.8751 </r>
       <r>     9.0962     4.6251    71.4406 </r>
       <r>     9.2185     5.8886    72.1606 </r>
       <r>     9.3408     4.3105    72.6877 </r>
       <r>     9.4630     6.0779    73.4308 </r>
       <r>     9.5853     3.7267    73.8865 </r>
       <r>     9.7076     6.3557    74.6636 </r>
       <r>     9.8299     7.6338    75.5970 </r>
       <r>     9.9521     6.2505    76.3612 </r>
       <r>    10.0744     7.4996    77.2782 </r>
       <r>    10.1967    10.4293    78.5534 </r>
       <r>    10.3189     9.8814    79.7616 </r>
       <r>    10.4412    12.5651    81.2979 </r>
       <r>    10.5635    12.3608    82.8093 </r>
       <r>    10.6857    13.0876    84.4095 </r>
       <r>    10.8080     8.9631    85.5054 </r>
       <r>    10.9303     6.3378    86.2803 </r>
       <r>    11.0526    10.5662    87.5723 </r>
       <r>    11.1748     9.9491    88.7887 </r>
       <r>    11.2971     7.3401    89.6862 </r>
       <r>    11.4194     2.9488    90.0468 </r>
       <r>    11.5416     4.1841    90.5584 </r>
       <r>    11.6639     3.4600    90.9814 </r>
       <r>    11.7862     9.0673    92.0901 </r>
       <r>    11.9084     9.3909    93.2383 </r>
       <r>    12.0307     4.2850    93.7622 </r>
       <r>    12.1530     3.9476    94.2449 </r>
       <r>    12.2753     3.1124    94.6255 </r>
       <r>    12.3975     5.2493    95.2673 </r>
       <r>    12.5198     4.0067    95.7572 </r>
       <r>    12.6421     1.0546    95.8861 </r>
       <r>    12.7643     0.1630    95.9061 </r>
       <r>    12.8866     0.0852    95.9165 </r>
       <r>    13.0089     0.6731    95.9988 </r>
       <r>    13.1311     0.0100    96.0000 </r>
       <r>    13.2534     0.0000    96.0000 </r>
       <r>    13.3757     0.0000    96.0000 </r>
       <r>    13.4980     0.0000    96.0000 </r>
       <r>    13.6202     0.0000    96.0000 </r>
       <r>    13.7425     0.0000    96.0000 </r>
       <r>    13.8648     0.0000    96.0000 </r>
       <r>    13.9870     0.0000    96.0000 </r>
       <r>    14.1093     0.0000    96.0000 </r>
       <r>    14.2316     0.0000    96.0000 </r>
       <r>    14.3538     0.0000    96.0000 </r>
       <r>    14.4761     0.0000    96.0000 </r>
       <r>    14.5984     0.0000    96.0000 </r>
      </set>
     </set>
    </array>
   </total>
  </dos>
 </calculation>
 <structure name="finalpos" >
  <crystal>
   <varray name="basis" >
    <v>       6.42930000       0.00000000       0.00000000 </v>
    <v>       0.00000000       6.42930000       0.00000000 </v>
    <v>       0.00000000       0.00000000       6.42930000 </v>
   </varray>
   <i name="volume">    265.76089216 </i>
   <varray name="rec_basis" >
    <v>       0.15553793      -0.00000000       0.00000000 </v>
    <v>       0.00000000       0.15553793       0.00000000 </v>
    <v>      -0.00000000      -0.00000000       0.15553793 </v>
   </varray>
  </crystal>
  <varray name="positions" >
   <v>       0.00000000       0.00000000       0.00000000 </v>
   <v>       0.00000000       0.50000000       0.50000000 </v>
   <v>       0.50000000       0.00000000       0.50000000 </v>
   <v>       0.50000000       0.50000000       0.00000000 </v>
  </varray>
 </structure>
</modeling>
