Pt                                      
   1.00000000000000     
     3.976750    0.000000    0.000000
     0.000000    3.976750    0.000000
     0.000000    0.000000    3.976750
   Pt
     4
Direct
  0.000000  0.000000  0.000000
  0.000000  0.500000  0.500000
  0.500000  0.000000  0.500000
  0.500000  0.500000  0.000000
 
   36   36   36
  237.96      230.27      210.56      186.08      162.12      139.20      115.16      89.362      64.323      43.815    
  29.831      21.339      15.966      12.659      10.649      9.3900      8.5963      8.1492      8.0045      8.1492    
  8.5963      9.3900      10.649      12.659      15.966      21.339      29.831      43.815      64.323      89.362    
  115.16      139.20      162.12      186.08      210.56      230.27      230.27      223.06      204.56      181.41    
  158.44      136.08      112.45      87.134      62.725      42.861      29.370      21.147      15.918      12.699    
  10.738      9.5069      8.7293      8.2911      8.1492      8.2911      8.7293      9.5069      10.738      12.699    
  15.918      21.147      29.370      42.861      62.725      87.134      112.45      136.08      158.44      181.41    
  204.56      223.06      210.56      204.56      189.01      169.05      148.41      127.41      104.82      80.883    
  58.279      40.237      28.114      20.626      15.810      12.840      11.020      9.8700      9.1405      8.7293    
  8.5963      8.7293      9.1405      9.8700      11.020      12.840      15.810      20.626      28.114      40.237    
  58.280      80.883      104.82      127.41      148.41      169.05      189.01      204.56      186.08      181.41    
  169.05      152.49      134.24      114.69      93.529      71.735      51.896      36.550      26.379      19.920    
  15.725      13.133      11.534      10.516      9.8700      9.5069      9.3900      9.5069      9.8700      10.516    
  11.534      13.133      15.725      19.920      26.379      36.550      51.896      71.735      93.529      114.69    
  134.24      152.49      169.05      181.41      162.12      158.44      148.41      134.24      117.68      99.436    
  80.095      61.125      44.728      32.543      24.524      19.217      15.781      13.663      12.358      11.534    
  11.020      10.738      10.649      10.738      11.020      11.534      12.358      13.663      15.781      19.217    
  24.524      32.543      44.728      61.125      80.096      99.437      117.68      134.24      148.41      158.44    
  139.20      136.08      127.41      114.69      99.436      82.796      65.952      50.451      37.843      28.842    
  22.814      18.721      16.130      14.575      13.663      13.133      12.840      12.699      12.659      12.699    
  12.840      13.133      13.663      14.575      16.130      18.721      22.814      28.842      37.843      50.451    
  65.952      82.796      99.437      114.69      127.41      136.08      115.16      112.45      104.82      93.529    
  80.095      65.952      52.461      40.871      31.994      25.794      21.479      18.649      16.986      16.130    
  15.781      15.725      15.810      15.918      15.966      15.918      15.810      15.725      15.781      16.130    
  16.986      18.649      21.479      25.794      31.994      40.871      52.462      65.952      80.096      93.529    
  104.82      112.45      89.362      87.134      80.883      71.735      61.125      50.451      40.871      33.151    
  27.488      23.463      20.762      19.241      18.649      18.721      19.217      19.920      20.626      21.147    
  21.339      21.147      20.626      19.920      19.217      18.721      18.649      19.241      20.762      23.463    
  27.488      33.151      40.871      50.451      61.125      71.735      80.883      87.134      64.323      62.725    
  58.279      51.896      44.728      37.843      31.994      27.488      24.186      21.975      20.869      20.762    
  21.479      22.814      24.524      26.379      28.114      29.370      29.831      29.370      28.114      26.379    
  24.524      22.814      21.479      20.762      20.869      21.975      24.186      27.488      31.994      37.843    
  44.728      51.896      58.280      62.725      43.815      42.861      40.237      36.550      32.543      28.842    
  25.794      23.463      21.975      21.465      21.975      23.463      25.794      28.842      32.543      36.550    
  40.237      42.861      43.815      42.861      40.237      36.550      32.543      28.842      25.794      23.463    
  21.975      21.465      21.975      23.463      25.794      28.842      32.543      36.550      40.237      42.861    
  29.831      29.370      28.114      26.379      24.524      22.814      21.479      20.762      20.869      21.975    
  24.186      27.488      31.994      37.843      44.728      51.896      58.279      62.725      64.323      62.725    
  58.280      51.896      44.728      37.843      31.994      27.488      24.186      21.975      20.869      20.762    
  21.479      22.814      24.524      26.379      28.114      29.370      21.339      21.147      20.626      19.920    
  19.217      18.721      18.649      19.241      20.762      23.463      27.488      33.151      40.871      50.451    
  61.125      71.735      80.883      87.134      89.362      87.134      80.883      71.735      61.125      50.451    
  40.871      33.151      27.488      23.463      20.762      19.241      18.649      18.721      19.217      19.920    
  20.626      21.147      15.966      15.918      15.810      15.725      15.781      16.130      16.986      18.649    
  21.479      25.794      31.994      40.871      52.461      65.952      80.095      93.529      104.82      112.45    
  115.16      112.45      104.82      93.529      80.096      65.952      52.462      40.871      31.994      25.794    
  21.479      18.649      16.986      16.130      15.781      15.725      15.810      15.918      12.659      12.699    
  12.840      13.133      13.663      14.575      16.130      18.721      22.814      28.842      37.843      50.451    
  65.952      82.796      99.436      114.69      127.41      136.08      139.20      136.08      127.41      114.69    
  99.437      82.796      65.952      50.451      37.843      28.842      22.814      18.721      16.130      14.575    
  13.663      13.133      12.840      12.699      10.649      10.738      11.020      11.534      12.358      13.663    
  15.781      19.217      24.524      32.543      44.728      61.125      80.095      99.436      117.68      134.24    
  148.41      158.44      162.12      158.44      148.41      134.24      117.68      99.437      80.096      61.125    
  44.728      32.543      24.524      19.217      15.781      13.663      12.358      11.534      11.020      10.738    
  9.3900      9.5069      9.8700      10.516      11.534      13.133      15.725      19.920      26.379      36.550    
  51.896      71.735      93.529      114.69      134.24      152.49      169.05      181.41      186.08      181.41    
  169.05      152.49      134.24      114.69      93.529      71.735      51.896      36.550      26.379      19.920    
  15.725      13.133      11.534      10.516      9.8700      9.5069      8.5963      8.7293      9.1405      9.8700    
  11.020      12.840      15.810      20.626      28.114      40.237      58.279      80.883      104.82      127.41    
  148.41      169.05      189.01      204.56      210.56      204.56      189.01      169.05      148.41      127.41    
  104.82      80.883      58.280      40.237      28.114      20.626      15.810      12.840      11.020      9.8700    
  9.1405      8.7293      8.1492      8.2911      8.7293      9.5069      10.738      12.699      15.918      21.147    
  29.370      42.861      62.725      87.134      112.45      136.08      158.44      181.41      204.56      223.06    
  230.27      223.06      204.56      181.41      158.44      136.08      112.45      87.134      62.725      42.861    
  29.370      21.147      15.918      12.699      10.738      9.5069      8.7293      8.2911      8.0045      8.1492    
  8.5963      9.3900      10.649      12.659      15.966      21.339      29.831      43.815      64.323      89.362    
  115.16      139.20      162.12      186.08      210.56      230.27      237.96      230.27      210.56      186.08    
  162.12      139.20      115.16      89.362      64.323      43.815      29.831      21.339      15.966      12.659    
  10.649      9.3900      8.5963      8.1492      8.1492      8.2911      8.7293      9.5069      10.738      12.699    
  15.918      21.147      29.370      42.861      62.725      87.134      112.45      136.08      158.44      181.41    
  204.56      223.06      230.27      223.06      204.56      181.41      158.44      136.08      112.45      87.134    
  62.725      42.861      29.370      21.147      15.918      12.699      10.738      9.5069      8.7293      8.2911    
  8.5963      8.7293      9.1405      9.8700      11.020      12.840      15.810      20.626      28.114      40.237    
  58.280      80.883      104.82      127.41      148.41      169.05      189.01      204.56      210.56      204.56    
  189.01      169.05      148.41      127.41      104.82      80.883      58.279      40.237      28.114      20.626    
  15.810      12.840      11.020      9.8700      9.1405      8.7293      9.3900      9.5069      9.8700      10.516    
  11.534      13.133      15.725      19.920      26.379      36.550      51.896      71.735      93.529      114.69    
  134.24      152.49      169.05      181.41      186.08      181.41      169.05      152.49      134.24      114.69    
  93.529      71.735      51.896      36.550      26.379      19.920      15.725      13.133      11.534      10.516    
  9.8700      9.5069      10.649      10.738      11.020      11.534      12.358      13.663      15.781      19.217    
  24.524      32.543      44.728      61.125      80.096      99.437      117.68      134.24      148.41      158.44    
  162.12      158.44      148.41      134.24      117.68      99.436      80.095      61.125      44.728      32.543    
  24.524      19.217      15.781      13.663      12.358      11.534      11.020      10.738      12.659      12.699    
  12.840      13.133      13.663      14.575      16.130      18.721      22.814      28.842      37.843      50.451    
  65.952      82.796      99.437      114.69      127.41      136.08      139.20      136.08      127.41      114.69    
  99.436      82.796      65.952      50.451      37.843      28.842      22.814      18.721      16.130      14.575    
  13.663      13.133      12.840      12.699      15.966      15.918      15.810      15.725      15.781      16.130    
  16.986      18.649      21.479      25.794      31.994      40.871      52.462      65.952      80.096      93.529    
  104.82      112.45      115.16      112.45      104.82      93.529      80.095      65.952      52.461      40.871    
  31.994      25.794      21.479      18.649      16.986      16.130      15.781      15.725      15.810      15.918    
  21.339      21.147      20.626      19.920      19.217      18.721      18.649      19.241      20.762      23.463    
  27.488      33.151      40.871      50.451      61.125      71.735      80.883      87.134      89.362      87.134    
  80.883      71.735      61.125      50.451      40.871      33.151      27.488      23.463      20.762      19.241    
  18.649      18.721      19.217      19.920      20.626      21.147      29.831      29.370      28.114      26.379    
  24.524      22.814      21.479      20.762      20.869      21.975      24.186      27.488      31.994      37.843    
  44.728      51.896      58.280      62.725      64.323      62.725      58.279      51.896      44.728      37.843    
  31.994      27.488      24.186      21.975      20.869      20.762      21.479      22.814      24.524      26.379    
  28.114      29.370      43.815      42.861      40.237      36.550      32.543      28.842      25.794      23.463    
  21.975      21.465      21.975      23.463      25.794      28.842      32.543      36.550      40.237      42.861    
  43.815      42.861      40.237      36.550      32.543      28.842      25.794      23.463      21.975      21.465    
  21.975      23.463      25.794      28.842      32.543      36.550      40.237      42.861      64.323      62.725    
  58.280      51.896      44.728      37.843      31.994      27.488      24.186      21.975      20.869      20.762    
  21.479      22.814      24.524      26.379      28.114      29.370      29.831      29.370      28.114      26.379    
  24.524      22.814      21.479      20.762      20.869      21.975      24.186      27.488      31.994      37.843    
  44.728      51.896      58.279      62.725      89.362      87.134      80.883      71.735      61.125      50.451    
  40.871      33.151      27.488      23.463      20.762      19.241      18.649      18.721      19.217      19.920    
  20.626      21.147      21.339      21.147      20.626      19.920      19.217      18.721      18.649      19.241    
  20.762      23.463      27.488      33.151      40.871      50.451      61.125      71.735      80.883      87.134    
  115.16      112.45      104.82      93.529      80.096      65.952      52.462      40.871      31.994      25.794    
  21.479      18.649      16.986      16.130      15.781      15.725      15.810      15.918      15.966      15.918    
  15.810      15.725      15.781      16.130      16.986      18.649      21.479      25.794      31.994      40.871    
  52.461      65.952      80.095      93.529      104.82      112.45      139.20      136.08      127.41      114.69    
  99.437      82.796      65.952      50.451      37.843      28.842      22.814      18.721      16.130      14.575    
  13.663      13.133      12.840      12.699      12.659      12.699      12.840      13.133      13.663      14.575    
  16.130      18.721      22.814      28.842      37.843      50.451      65.952      82.796      99.436      114.69    
  127.41      136.08      162.12      158.44      148.41      134.24      117.68      99.437      80.096      61.125    
  44.728      32.543      24.524      19.217      15.781      13.663      12.358      11.534      11.020      10.738    
  10.649      10.738      11.020      11.534      12.358      13.663      15.781      19.217      24.524      32.543    
  44.728      61.125      80.095      99.436      117.68      134.24      148.41      158.44      186.08      181.41    
  169.05      152.49      134.24      114.69      93.529      71.735      51.896      36.550      26.379      19.920    
  15.725      13.133      11.534      10.516      9.8700      9.5069      9.3900      9.5069      9.8700      10.516    
  11.534      13.133      15.725      19.920      26.379      36.550      51.896      71.735      93.529      114.69    
  134.24      152.49      169.05      181.41      210.56      204.56      189.01      169.05      148.41      127.41    
  104.82      80.883      58.280      40.237      28.114      20.626      15.810      12.840      11.020      9.8700    
  9.1405      8.7293      8.5963      8.7293      9.1405      9.8700      11.020      12.840      15.810      20.626    
  28.114      40.237      58.279      80.883      104.82      127.41      148.41      169.05      189.01      204.56    
  230.27      223.06      204.56      181.41      158.44      136.08      112.45      87.134      62.725      42.861    
  29.370      21.147      15.918      12.699      10.738      9.5069      8.7293      8.2911      8.1492      8.2911    
  8.7293      9.5069      10.738      12.699      15.918      21.147      29.370      42.861      62.725      87.134    
  112.45      136.08      158.44      181.41      204.56      223.06      230.27      223.06      204.56      181.41    
  158.44      136.08      112.45      87.134      62.725      42.861      29.370      21.147      15.918      12.699    
  10.738      9.5069      8.7293      8.2911      8.1492      8.2911      8.7293      9.5069      10.738      12.699    
  15.918      21.147      29.370      42.861      62.725      87.134      112.45      136.08      158.44      181.41    
  204.56      223.06      223.06      216.31      198.91      176.96      154.88      133.05      109.80      84.963    
  61.175      41.939      28.923      20.957      15.871      12.737      10.824      9.6208      8.8593      8.4300    
  8.2911      8.4300      8.8593      9.6208      10.824      12.737      15.871      20.957      28.923      41.939    
  61.175      84.963      109.80      133.05      154.88      176.96      198.91      216.31      204.56      198.91    
  184.18      165.14      145.16      124.58      102.33      78.872      56.862      39.400      27.704      20.444    
  15.760      12.871      11.098      9.9747      9.2614      8.8593      8.7293      8.8593      9.2614      9.9747    
  11.098      12.871      15.760      20.444      27.704      39.400      56.862      78.872      102.33      124.58    
  145.16      165.14      184.18      198.91      181.41      176.96      165.14      149.16      131.35      112.12    
  91.295      69.962      50.672      35.835      26.019      19.747      15.672      13.153      11.597      10.605    
  9.9747      9.6208      9.5069      9.6208      9.9747      10.605      11.597      13.153      15.672      19.747    
  26.019      35.835      50.672      69.963      91.295      112.12      131.35      149.16      165.14      176.96    
  158.44      154.88      145.16      131.35      115.09      97.142      78.157      59.639      43.729      31.960    
  24.210      19.054      15.720      13.665      12.397      11.597      11.098      10.824      10.738      10.824    
  11.098      11.597      12.397      13.665      15.720      19.054      24.210      31.960      43.729      59.639    
  78.157      97.142      115.09      131.35      145.16      154.88      136.08      133.05      124.58      112.12    
  97.142      80.817      64.350      49.271      37.068      28.378      22.535      18.564      16.053      14.547    
  13.665      13.153      12.871      12.737      12.699      12.737      12.871      13.153      13.665      14.547    
  16.053      18.564      22.535      28.378      37.068      49.271      64.350      80.818      97.142      112.12    
  124.58      133.05      112.45      109.80      102.33      91.295      78.157      64.350      51.223      39.991    
  31.414      25.417      21.228      18.486      16.879      16.053      15.720      15.672      15.760      15.871    
  15.918      15.871      15.760      15.672      15.720      16.053      16.879      18.486      21.228      25.417    
  31.414      39.991      51.223      64.350      78.157      91.295      102.33      109.80      87.134      84.963    
  78.872      69.962      59.639      49.271      39.991      32.529      27.053      23.142      20.524      19.054    
  18.486      18.564      19.054      19.747      20.444      20.957      21.147      20.957      20.444      19.747    
  19.054      18.564      18.486      19.054      20.524      23.142      27.053      32.529      39.991      49.271    
  59.639      69.963      78.872      84.963      62.725      61.175      56.862      50.672      43.729      37.068    
  31.414      27.053      23.840      21.693      20.623      20.524      21.228      22.535      24.210      26.019    
  27.704      28.923      29.370      28.923      27.704      26.019      24.210      22.535      21.228      20.524    
  20.623      21.693      23.840      27.053      31.414      37.068      43.729      50.672      56.862      61.175    
  42.861      41.939      39.400      35.835      31.960      28.378      25.417      23.142      21.693      21.197    
  21.693      23.142      25.417      28.378      31.960      35.835      39.400      41.939      42.861      41.939    
  39.400      35.835      31.960      28.378      25.417      23.142      21.693      21.197      21.693      23.142    
  25.417      28.378      31.960      35.835      39.400      41.939      29.370      28.923      27.704      26.019    
  24.210      22.535      21.228      20.524      20.623      21.693      23.840      27.053      31.414      37.068    
  43.729      50.672      56.862      61.175      62.725      61.175      56.862      50.672      43.729      37.068    
  31.414      27.053      23.840      21.693      20.623      20.524      21.228      22.535      24.210      26.019    
  27.704      28.923      21.147      20.957      20.444      19.747      19.054      18.564      18.486      19.054    
  20.524      23.142      27.053      32.529      39.990      49.271      59.639      69.962      78.872      84.963    
  87.134      84.963      78.872      69.963      59.639      49.271      39.991      32.529      27.053      23.142    
  20.524      19.054      18.486      18.564      19.054      19.747      20.444      20.957      15.918      15.871    
  15.760      15.672      15.720      16.053      16.879      18.486      21.228      25.417      31.414      39.990    
  51.223      64.350      78.157      91.295      102.33      109.80      112.45      109.80      102.33      91.295    
  78.157      64.350      51.223      39.991      31.414      25.417      21.228      18.486      16.879      16.053    
  15.720      15.672      15.760      15.871      12.699      12.737      12.871      13.153      13.665      14.547    
  16.053      18.564      22.535      28.378      37.068      49.271      64.350      80.817      97.142      112.12    
  124.58      133.05      136.08      133.05      124.58      112.12      97.142      80.818      64.350      49.271    
  37.068      28.378      22.535      18.564      16.053      14.547      13.665      13.153      12.871      12.737    
  10.738      10.824      11.098      11.597      12.397      13.665      15.720      19.054      24.210      31.960    
  43.729      59.639      78.157      97.142      115.09      131.35      145.16      154.88      158.44      154.88    
  145.16      131.35      115.09      97.142      78.157      59.639      43.729      31.960      24.210      19.054    
  15.720      13.665      12.397      11.597      11.098      10.824      9.5069      9.6208      9.9747      10.605    
  11.597      13.153      15.672      19.747      26.019      35.835      50.672      69.962      91.295      112.12    
  131.35      149.15      165.14      176.96      181.41      176.96      165.14      149.16      131.35      112.12    
  91.295      69.963      50.672      35.835      26.019      19.747      15.672      13.153      11.597      10.605    
  9.9747      9.6208      8.7293      8.8593      9.2614      9.9747      11.098      12.871      15.760      20.444    
  27.704      39.400      56.862      78.872      102.33      124.58      145.16      165.14      184.18      198.91    
  204.56      198.91      184.18      165.14      145.16      124.58      102.33      78.872      56.862      39.400    
  27.704      20.444      15.760      12.871      11.098      9.9747      9.2614      8.8593      8.2911      8.4300    
  8.8593      9.6208      10.824      12.737      15.871      20.957      28.923      41.939      61.175      84.963    
  109.80      133.05      154.88      176.96      198.91      216.31      223.06      216.31      198.91      176.96    
  154.88      133.05      109.80      84.963      61.175      41.939      28.923      20.957      15.871      12.737    
  10.824      9.6208      8.8593      8.4300      8.1492      8.2911      8.7293      9.5069      10.738      12.699    
  15.918      21.147      29.370      42.861      62.725      87.134      112.45      136.08      158.44      181.41    
  204.56      223.06      230.27      223.06      204.56      181.41      158.44      136.08      112.45      87.134    
  62.725      42.861      29.370      21.147      15.918      12.699      10.738      9.5069      8.7293      8.2911    
  8.2911      8.4300      8.8593      9.6208      10.824      12.737      15.871      20.957      28.923      41.939    
  61.175      84.963      109.80      133.05      154.88      176.96      198.91      216.31      223.06      216.31    
  198.91      176.96      154.88      133.05      109.80      84.963      61.175      41.939      28.923      20.957    
  15.871      12.737      10.824      9.6208      8.8593      8.4300      8.7293      8.8593      9.2614      9.9747    
  11.098      12.871      15.760      20.444      27.704      39.400      56.862      78.872      102.33      124.58    
  145.16      165.14      184.18      198.91      204.56      198.91      184.18      165.14      145.16      124.58    
  102.33      78.872      56.862      39.400      27.704      20.444      15.760      12.871      11.098      9.9747    
  9.2614      8.8593      9.5069      9.6208      9.9747      10.605      11.597      13.153      15.672      19.747    
  26.019      35.835      50.672      69.963      91.295      112.12      131.35      149.16      165.14      176.96    
  181.41      176.96      165.14      149.16      131.35      112.12      91.295      69.962      50.672      35.835    
  26.019      19.747      15.672      13.153      11.597      10.605      9.9747      9.6208      10.738      10.824    
  11.098      11.597      12.397      13.665      15.720      19.054      24.210      31.960      43.729      59.639    
  78.157      97.142      115.09      131.35      145.16      154.88      158.44      154.88      145.16      131.35    
  115.09      97.142      78.157      59.639      43.729      31.960      24.210      19.054      15.720      13.665    
  12.397      11.597      11.098      10.824      12.699      12.737      12.871      13.153      13.665      14.547    
  16.053      18.564      22.535      28.378      37.068      49.271      64.350      80.818      97.142      112.12    
  124.58      133.05      136.08      133.05      124.58      112.12      97.142      80.817      64.350      49.271    
  37.068      28.378      22.535      18.564      16.053      14.547      13.665      13.153      12.871      12.737    
  15.918      15.871      15.760      15.672      15.720      16.053      16.879      18.486      21.228      25.417    
  31.414      39.991      51.223      64.350      78.157      91.295      102.33      109.80      112.45      109.80    
  102.33      91.295      78.157      64.350      51.223      39.991      31.414      25.417      21.228      18.486    
  16.879      16.053      15.720      15.672      15.760      15.871      21.147      20.957      20.444      19.747    
  19.054      18.564      18.486      19.054      20.524      23.142      27.053      32.529      39.991      49.271    
  59.639      69.963      78.872      84.963      87.134      84.963      78.872      69.962      59.639      49.271    
  39.991      32.529      27.053      23.142      20.524      19.054      18.486      18.564      19.054      19.747    
  20.444      20.957      29.370      28.923      27.704      26.019      24.210      22.535      21.228      20.524    
  20.623      21.693      23.840      27.053      31.414      37.068      43.729      50.672      56.862      61.175    
  62.725      61.175      56.862      50.672      43.729      37.068      31.414      27.053      23.840      21.693    
  20.623      20.524      21.228      22.535      24.210      26.019      27.704      28.923      42.861      41.939    
  39.400      35.835      31.960      28.378      25.417      23.142      21.693      21.197      21.693      23.142    
  25.417      28.378      31.960      35.835      39.400      41.939      42.861      41.939      39.400      35.835    
  31.960      28.378      25.417      23.142      21.693      21.197      21.693      23.142      25.417      28.378    
  31.960      35.835      39.400      41.939      62.725      61.175      56.862      50.672      43.729      37.068    
  31.414      27.053      23.840      21.693      20.623      20.524      21.228      22.535      24.210      26.019    
  27.704      28.923      29.370      28.923      27.704      26.019      24.210      22.535      21.228      20.524    
  20.623      21.693      23.840      27.053      31.414      37.068      43.729      50.672      56.862      61.175    
  87.134      84.963      78.872      69.963      59.639      49.271      39.991      32.529      27.053      23.142    
  20.524      19.054      18.486      18.564      19.054      19.747      20.444      20.957      21.147      20.957    
  20.444      19.747      19.054      18.564      18.486      19.054      20.524      23.142      27.053      32.529    
  39.990      49.271      59.639      69.962      78.872      84.963      112.45      109.80      102.33      91.295    
  78.157      64.350      51.223      39.991      31.414      25.417      21.228      18.486      16.879      16.053    
  15.720      15.672      15.760      15.871      15.918      15.871      15.760      15.672      15.720      16.053    
  16.879      18.486      21.228      25.417      31.414      39.990      51.223      64.350      78.157      91.295    
  102.33      109.80      136.08      133.05      124.58      112.12      97.142      80.818      64.350      49.271    
  37.068      28.378      22.535      18.564      16.053      14.547      13.665      13.153      12.871      12.737    
  12.699      12.737      12.871      13.153      13.665      14.547      16.053      18.564      22.535      28.378    
  37.068      49.271      64.350      80.817      97.142      112.12      124.58      133.05      158.44      154.88    