Pt                                      
   1.00000000000000     
     3.976750    0.000000    0.000000
     0.000000    3.976750    0.000000
     0.000000    0.000000    3.976750
   Pt
     4
Direct
  0.000000  0.000000  0.000000
  0.000000  0.500000  0.500000
  0.500000  0.000000  0.500000
  0.500000  0.500000  0.000000
 
   36   36   36
 0.23796136053E+03 0.23026651483E+03 0.21056381451E+03 0.18607662418E+03 0.16211966412E+03
 0.13919609960E+03 0.11516082993E+03 0.89362197256E+02 0.64322934347E+02 0.43814722969E+02
 0.29831016548E+02 0.21338696233E+02 0.15965806637E+02 0.12658597830E+02 0.10648658259E+02
 0.93900269761E+01 0.85962636496E+01 0.81492344511E+01 0.80044869612E+01 0.81492344511E+01
 0.85962636496E+01 0.93900269761E+01 0.10648658259E+02 0.12658597830E+02 0.15965806637E+02
 0.21338696233E+02 0.29831016548E+02 0.43814722969E+02 0.64322934347E+02 0.89362197256E+02
 0.11516082993E+03 0.13919609960E+03 0.16211966412E+03 0.18607662418E+03 0.21056381451E+03
 0.23026651483E+03 0.23026651483E+03 0.22306243179E+03 0.20456467059E+03 0.18140766003E+03
 0.15843684195E+03 0.13608410083E+03 0.11244728219E+03 0.87133916694E+02 0.62725097400E+02
 0.42861328524E+02 0.29370053560E+02 0.21146712284E+02 0.15918475175E+02 0.12698770697E+02
 0.10737945888E+02 0.95069460325E+01 0.87292699200E+01 0.82910938643E+01 0.81492344511E+01
 0.82910937997E+01 0.87292700446E+01 0.95069466722E+01 0.10737947245E+02 0.12698772852E+02
 0.15918478408E+02 0.21146717604E+02 0.29370063382E+02 0.42861348137E+02 0.62725133672E+02
 0.87133973571E+02 0.11244735621E+03 0.13608418044E+03 0.15843691221E+03 0.18140771011E+03
 0.20456469857E+03 0.22306244294E+03 0.21056381451E+03 0.20456467055E+03 0.18900683724E+03
 0.16905238097E+03 0.14841153526E+03 0.12741051501E+03 0.10481518330E+03 0.80882661219E+02
 0.58279439273E+02 0.40236983888E+02 0.28113933672E+02 0.20625923262E+02 0.15809824404E+02
 0.12839539896E+02 0.11020031698E+02 0.98700002046E+01 0.91405019477E+01 0.87292699210E+01
 0.85962636496E+01 0.87292700436E+01 0.91405025731E+01 0.98700018145E+01 0.11020034579E+02
 0.12839544174E+02 0.15809830591E+02 0.20625933165E+02 0.28113951417E+02 0.40237018534E+02
 0.58279503383E+02 0.80882763140E+02 0.10481531879E+03 0.12741066500E+03 0.14841167314E+03
 0.16905248531E+03 0.18900690079E+03 0.20456469860E+03 0.18607662418E+03 0.18140765991E+03
 0.16905238084E+03 0.15249169911E+03 0.13424036978E+03 0.11469313677E+03 0.93529292768E+02
 0.71734921751E+02 0.51895612267E+02 0.36549926589E+02 0.26379187852E+02 0.19919965093E+02
 0.15725268546E+02 0.13133286983E+02 0.11534084350E+02 0.10516461155E+02 0.98700002095E+01
 0.95069460365E+01 0.93900269761E+01 0.95069466680E+01 0.98700018092E+01 0.10516464136E+02
 0.11534088936E+02 0.13133293292E+02 0.15725277228E+02 0.19919978381E+02 0.26379210573E+02
 0.36549969026E+02 0.51895690282E+02 0.71735048060E+02 0.93529465942E+02 0.11469333651E+03
 0.13424056353E+03 0.15249185648E+03 0.16905248544E+03 0.18140771023E+03 0.16211966412E+03
 0.15843684172E+03 0.14841153495E+03 0.13424036956E+03 0.11767518114E+03 0.99436318322E+02
 0.80095464873E+02 0.61124962839E+02 0.44727609606E+02 0.32542589977E+02 0.24524092361E+02
 0.19217057101E+02 0.15781139051E+02 0.13662885429E+02 0.12357841708E+02 0.11534084361E+02
 0.11020031712E+02 0.10737945897E+02 0.10648658259E+02 0.10737947235E+02 0.11020034564E+02
 0.11534088923E+02 0.12357848049E+02 0.13662893617E+02 0.15781149742E+02 0.19217072513E+02
 0.24524117170E+02 0.32542633176E+02 0.44727687010E+02 0.61125090034E+02 0.80095645464E+02
 0.99436536501E+02 0.11767540503E+03 0.13424056375E+03 0.14841167345E+03 0.15843691243E+03
 0.13919609960E+03 0.13608410053E+03 0.12741051455E+03 0.11469313635E+03 0.99436318100E+02
 0.82796007018E+02 0.65952203810E+02 0.50450796968E+02 0.37843318132E+02 0.28841539491E+02
 0.22814302624E+02 0.18721058105E+02 0.16129616646E+02 0.14574911878E+02 0.13662885442E+02
 0.13133287004E+02 0.12839539918E+02 0.12698770711E+02 0.12658597830E+02 0.12698772836E+02
 0.12839544147E+02 0.13133293261E+02 0.13662893596E+02 0.14574921893E+02 0.16129629036E+02
 0.18721074691E+02 0.22814327315E+02 0.28841578923E+02 0.37843384735E+02 0.50450906164E+02
 0.65952363657E+02 0.82796209102E+02 0.99436536709E+02 0.11469333691E+03 0.12741066545E+03
 0.13608418074E+03 0.11516082993E+03 0.11244728187E+03 0.10481518280E+03 0.93529292279E+02
 0.80095464541E+02 0.65952203673E+02 0.52461448760E+02 0.40870880436E+02 0.31993527954E+02
 0.25793937391E+02 0.21479406796E+02 0.18648985904E+02 0.16986071647E+02 0.16129616655E+02
 0.15781139070E+02 0.15725268571E+02 0.15809824429E+02 0.15918475190E+02 0.15965806637E+02
 0.15918478390E+02 0.15809830556E+02 0.15725277183E+02 0.15781149701E+02 0.16129629011E+02
 0.16986085933E+02 0.18649003336E+02 0.21479430191E+02 0.25793971471E+02 0.31993580294E+02
 0.40870962904E+02 0.52461570879E+02 0.65952363771E+02 0.80095645760E+02 0.93529466397E+02
 0.10481531926E+03 0.11244735652E+03 0.89362197256E+02 0.87133916437E+02 0.80882660808E+02
 0.71734921337E+02 0.61124962534E+02 0.50450796807E+02 0.40870880383E+02 0.33150832187E+02
 0.27488281204E+02 0.23462898342E+02 0.20761500362E+02 0.19240927866E+02 0.18648985905E+02
 0.18721058112E+02 0.19217057112E+02 0.19919965106E+02 0.20625923273E+02 0.21146712291E+02
 0.21338696233E+02 0.21146717591E+02 0.20625933135E+02 0.19919978335E+02 0.19217072462E+02
 0.18721074647E+02 0.18649003312E+02 0.19240946754E+02 0.20761522582E+02 0.23462927181E+02
 0.27488321152E+02 0.33150889723E+02 0.40870962930E+02 0.50450906277E+02 0.61125090282E+02
 0.71735048426E+02 0.80882763522E+02 0.87133973819E+02 0.64322934347E+02 0.62725097241E+02
 0.58279439016E+02 0.51895612005E+02 0.44727609409E+02 0.37843318019E+02 0.31993527906E+02
 0.27488281191E+02 0.24185790332E+02 0.21975265789E+02 0.20869393811E+02 0.20761500359E+02
 0.21479406789E+02 0.22814302610E+02 0.24524092339E+02 0.26379187822E+02 0.28113933645E+02
 0.29370053544E+02 0.29831016548E+02 0.29370063390E+02 0.28113951417E+02 0.26379210554E+02
 0.24524117133E+02 0.22814327272E+02 0.21479430157E+02 0.20761522566E+02 0.20869416223E+02
 0.21975290840E+02 0.24185821207E+02 0.27488321145E+02 0.31993580297E+02 0.37843384782E+02
 0.44727687137E+02 0.51895690486E+02 0.58279503606E+02 0.62725133821E+02 0.43814722969E+02
 0.42861328454E+02 0.40236983774E+02 0.36549926472E+02 0.32542589887E+02 0.28841539436E+02
 0.25793937364E+02 0.23462898332E+02 0.21975265787E+02 0.21465315663E+02 0.21975265787E+02
 0.23462898332E+02 0.25793937364E+02 0.28841539436E+02 0.32542589887E+02 0.36549926472E+02
 0.40236983774E+02 0.42861328454E+02 0.43814722969E+02 0.42861348198E+02 0.40237018616E+02
 0.36549969086E+02 0.32542633194E+02 0.28841578909E+02 0.25793971446E+02 0.23462927164E+02
 0.21975290835E+02 0.21465339353E+02 0.21975290835E+02 0.23462927164E+02 0.25793971446E+02
 0.28841578909E+02 0.32542633194E+02 0.36549969086E+02 0.40237018616E+02 0.42861348198E+02
 0.29831016548E+02 0.29370053544E+02 0.28113933645E+02 0.26379187822E+02 0.24524092339E+02
 0.22814302610E+02 0.21479406789E+02 0.20761500359E+02 0.20869393811E+02 0.21975265789E+02
 0.24185790332E+02 0.27488281191E+02 0.31993527906E+02 0.37843318019E+02 0.44727609409E+02
 0.51895612005E+02 0.58279439016E+02 0.62725097241E+02 0.64322934347E+02 0.62725133821E+02
 0.58279503606E+02 0.51895690486E+02 0.44727687137E+02 0.37843384782E+02 0.31993580297E+02
 0.27488321145E+02 0.24185821207E+02 0.21975290840E+02 0.20869416223E+02 0.20761522566E+02
 0.21479430157E+02 0.22814327272E+02 0.24524117133E+02 0.26379210554E+02 0.28113951417E+02
 0.29370063390E+02 0.21338696233E+02 0.21146712291E+02 0.20625923273E+02 0.19919965106E+02
 0.19217057112E+02 0.18721058112E+02 0.18648985905E+02 0.19240927866E+02 0.20761500362E+02
 0.23462898342E+02 0.27488281204E+02 0.33150832187E+02 0.40870880383E+02 0.50450796807E+02
 0.61124962534E+02 0.71734921337E+02 0.80882660808E+02 0.87133916437E+02 0.89362197256E+02
 0.87133973819E+02 0.80882763522E+02 0.71735048426E+02 0.61125090282E+02 0.50450906277E+02
 0.40870962930E+02 0.33150889723E+02 0.27488321152E+02 0.23462927181E+02 0.20761522582E+02
 0.19240946754E+02 0.18649003312E+02 0.18721074647E+02 0.19217072462E+02 0.19919978335E+02
 0.20625933135E+02 0.21146717591E+02 0.15965806637E+02 0.15918475190E+02 0.15809824429E+02
 0.15725268571E+02 0.15781139070E+02 0.16129616655E+02 0.16986071647E+02 0.18648985904E+02
 0.21479406796E+02 0.25793937391E+02 0.31993527954E+02 0.40870880436E+02 0.52461448760E+02
 0.65952203673E+02 0.80095464541E+02 0.93529292279E+02 0.10481518280E+03 0.11244728187E+03
 0.11516082993E+03 0.11244735652E+03 0.10481531926E+03 0.93529466397E+02 0.80095645760E+02
 0.65952363771E+02 0.52461570879E+02 0.40870962904E+02 0.31993580294E+02 0.25793971471E+02
 0.21479430191E+02 0.18649003336E+02 0.16986085933E+02 0.16129629011E+02 0.15781149701E+02
 0.15725277183E+02 0.15809830556E+02 0.15918478390E+02 0.12658597830E+02 0.12698770711E+02
 0.12839539918E+02 0.13133287004E+02 0.13662885442E+02 0.14574911878E+02 0.16129616646E+02
 0.18721058105E+02 0.22814302624E+02 0.28841539491E+02 0.37843318132E+02 0.50450796968E+02
 0.65952203810E+02 0.82796007018E+02 0.99436318100E+02 0.11469313635E+03 0.12741051455E+03
 0.13608410053E+03 0.13919609960E+03 0.13608418074E+03 0.12741066545E+03 0.11469333691E+03
 0.99436536709E+02 0.82796209102E+02 0.65952363657E+02 0.50450906164E+02 0.37843384735E+02
 0.28841578923E+02 0.22814327315E+02 0.18721074691E+02 0.16129629036E+02 0.14574921893E+02
 0.13662893596E+02 0.13133293261E+02 0.12839544147E+02 0.12698772836E+02 0.10648658259E+02
 0.10737945897E+02 0.11020031712E+02 0.11534084361E+02 0.12357841708E+02 0.13662885429E+02
 0.15781139051E+02 0.19217057101E+02 0.24524092361E+02 0.32542589977E+02 0.44727609606E+02
 0.61124962839E+02 0.80095464873E+02 0.99436318322E+02 0.11767518114E+03 0.13424036956E+03
 0.14841153495E+03 0.15843684172E+03 0.16211966412E+03 0.15843691243E+03 0.14841167345E+03
 0.13424056375E+03 0.11767540503E+03 0.99436536501E+02 0.80095645464E+02 0.61125090034E+02
 0.44727687010E+02 0.32542633176E+02 0.24524117170E+02 0.19217072513E+02 0.15781149742E+02
 0.13662893617E+02 0.12357848049E+02 0.11534088923E+02 0.11020034564E+02 0.10737947235E+02
 0.93900269761E+01 0.95069460365E+01 0.98700002095E+01 0.10516461155E+02 0.11534084350E+02
 0.13133286983E+02 0.15725268546E+02 0.19919965093E+02 0.26379187852E+02 0.36549926589E+02
 0.51895612267E+02 0.71734921751E+02 0.93529292768E+02 0.11469313677E+03 0.13424036978E+03
 0.15249169911E+03 0.16905238084E+03 0.18140765991E+03 0.18607662418E+03 0.18140771023E+03
 0.16905248544E+03 0.15249185648E+03 0.13424056353E+03 0.11469333651E+03 0.93529465942E+02
 0.71735048060E+02 0.51895690282E+02 0.36549969026E+02 0.26379210573E+02 0.19919978381E+02
 0.15725277228E+02 0.13133293292E+02 0.11534088936E+02 0.10516464136E+02 0.98700018092E+01
 0.95069466680E+01 0.85962636496E+01 0.87292699210E+01 0.91405019477E+01 0.98700002046E+01
 0.11020031698E+02 0.12839539896E+02 0.15809824404E+02 0.20625923262E+02 0.28113933672E+02
 0.40236983888E+02 0.58279439273E+02 0.80882661219E+02 0.10481518330E+03 0.12741051501E+03
 0.14841153526E+03 0.16905238097E+03 0.18900683724E+03 0.20456467055E+03 0.21056381451E+03
 0.20456469860E+03 0.18900690079E+03 0.16905248531E+03 0.14841167314E+03 0.12741066500E+03
 0.10481531879E+03 0.80882763140E+02 0.58279503383E+02 0.40237018534E+02 0.28113951417E+02
 0.20625933165E+02 0.15809830591E+02 0.12839544174E+02 0.11020034579E+02 0.98700018145E+01
 0.91405025731E+01 0.87292700436E+01 0.81492344511E+01 0.82910938643E+01 0.87292699200E+01
 0.95069460325E+01 0.10737945888E+02 0.12698770697E+02 0.15918475175E+02 0.21146712284E+02
 0.29370053560E+02 0.42861328524E+02 0.62725097400E+02 0.87133916694E+02 0.11244728219E+03
 0.13608410083E+03 0.15843684195E+03 0.18140766003E+03 0.20456467059E+03 0.22306243179E+03
 0.23026651483E+03 0.22306244294E+03 0.20456469857E+03 0.18140771011E+03 0.15843691221E+03
 0.13608418044E+03 0.11244735621E+03 0.87133973571E+02 0.62725133672E+02 0.42861348137E+02
 0.29370063382E+02 0.21146717604E+02 0.15918478408E+02 0.12698772852E+02 0.10737947245E+02
 0.95069466722E+01 0.87292700446E+01 0.82910937997E+01 0.80044869612E+01 0.81492344511E+01
 0.85962636496E+01 0.93900269761E+01 0.10648658259E+02 0.12658597830E+02 0.15965806637E+02
 0.21338696233E+02 0.29831016548E+02 0.43814722969E+02 0.64322934347E+02 0.89362197256E+02
 0.11516082993E+03 0.13919609960E+03 0.16211966412E+03 0.18607662418E+03 0.21056381451E+03
 0.23026651483E+03 0.23796136053E+03 0.23026651483E+03 0.21056381451E+03 0.18607662418E+03
 0.16211966412E+03 0.13919609960E+03 0.11516082993E+03 0.89362197256E+02 0.64322934347E+02
 0.43814722969E+02 0.29831016548E+02 0.21338696233E+02 0.15965806637E+02 0.12658597830E+02
 0.10648658259E+02 0.93900269761E+01 0.85962636496E+01 0.81492344511E+01 0.81492344511E+01
 0.82910937997E+01 0.87292700446E+01 0.95069466722E+01 0.10737947245E+02 0.12698772852E+02
 0.15918478408E+02 0.21146717604E+02 0.29370063382E+02 0.42861348137E+02 0.62725133672E+02
 0.87133973571E+02 0.11244735621E+03 0.13608418044E+03 0.15843691221E+03 0.18140771011E+03
 0.20456469857E+03 0.22306244294E+03 0.23026651483E+03 0.22306243179E+03 0.20456467059E+03
 0.18140766003E+03 0.15843684195E+03 0.13608410083E+03 0.11244728219E+03 0.87133916694E+02
 0.62725097400E+02 0.42861328524E+02 0.29370053560E+02 0.21146712284E+02 0.15918475175E+02
 0.12698770697E+02 0.10737945888E+02 0.95069460325E+01 0.87292699200E+01 0.82910938643E+01
 0.85962636496E+01 0.87292700436E+01 0.91405025731E+01 0.98700018145E+01 0.11020034579E+02
 0.12839544174E+02 0.15809830591E+02 0.20625933165E+02 0.28113951417E+02 0.40237018534E+02
 0.58279503383E+02 0.80882763140E+02 0.10481531879E+03 0.12741066500E+03 0.14841167314E+03
 0.16905248531E+03 0.18900690079E+03 0.20456469860E+03 0.21056381451E+03 0.20456467055E+03
 0.18900683724E+03 0.16905238097E+03 0.14841153526E+03 0.12741051501E+03 0.10481518330E+03
 0.80882661219E+02 0.58279439273E+02 0.40236983888E+02 0.28113933672E+02 0.20625923262E+02
 0.15809824404E+02 0.12839539896E+02 0.11020031698E+02 0.98700002046E+01 0.91405019477E+01
 0.87292699210E+01 0.93900269761E+01 0.95069466680E+01 0.98700018092E+01 0.10516464136E+02
 0.11534088936E+02 0.13133293292E+02 0.15725277228E+02 0.19919978381E+02 0.26379210573E+02
 0.36549969026E+02 0.51895690282E+02 0.71735048060E+02 0.93529465942E+02 0.11469333651E+03
 0.13424056353E+03 0.15249185648E+03 0.16905248544E+03 0.18140771023E+03 0.18607662418E+03
 0.18140765991E+03 0.16905238084E+03 0.15249169911E+03 0.13424036978E+03 0.11469313677E+03
 0.93529292768E+02 0.71734921751E+02 0.51895612267E+02 0.36549926589E+02 0.26379187852E+02
 0.19919965093E+02 0.15725268546E+02 0.13133286983E+02 0.11534084350E+02 0.10516461155E+02
 0.98700002095E+01 0.95069460365E+01 0.10648658259E+02 0.10737947235E+02 0.11020034564E+02
 0.11534088923E+02 0.12357848049E+02 0.13662893617E+02 0.15781149742E+02 0.19217072513E+02
 0.24524117170E+02 0.32542633176E+02 0.44727687010E+02 0.61125090034E+02 0.80095645464E+02
 0.99436536501E+02 0.11767540503E+03 0.13424056375E+03 0.14841167345E+03 0.15843691243E+03
 0.16211966412E+03 0.15843684172E+03 0.14841153495E+03 0.13424036956E+03 0.11767518114E+03
 0.99436318322E+02 0.80095464873E+02 0.61124962839E+02 0.44727609606E+02 0.32542589977E+02
 0.24524092361E+02 0.19217057101E+02 0.15781139051E+02 0.13662885429E+02 0.12357841708E+02
 0.11534084361E+02 0.11020031712E+02 0.10737945897E+02 0.12658597830E+02 0.12698772836E+02
 0.12839544147E+02 0.13133293261E+02 0.13662893596E+02 0.14574921893E+02 0.16129629036E+02
 0.18721074691E+02 0.22814327315E+02 0.28841578923E+02 0.37843384735E+02 0.50450906164E+02
 0.65952363657E+02 0.82796209102E+02 0.99436536709E+02 0.11469333691E+03 0.12741066545E+03
 0.13608418074E+03 0.13919609960E+03 0.13608410053E+03 0.12741051455E+03 0.11469313635E+03
 0.99436318100E+02 0.82796007018E+02 0.65952203810E+02 0.50450796968E+02 0.37843318132E+02
 0.28841539491E+02 0.22814302624E+02 0.18721058105E+02 0.16129616646E+02 0.14574911878E+02
 0.13662885442E+02 0.13133287004E+02 0.12839539918E+02 0.12698770711E+02 0.15965806637E+02
 0.15918478390E+02 0.15809830556E+02 0.15725277183E+02 0.15781149701E+02 0.16129629011E+02
 0.16986085933E+02 0.18649003336E+02 0.21479430191E+02 0.25793971471E+02 0.31993580294E+02
 0.40870962904E+02 0.52461570879E+02 0.65952363771E+02 0.80095645760E+02 0.93529466397E+02
 0.10481531926E+03 0.11244735652E+03 0.11516082993E+03 0.11244728187E+03 0.10481518280E+03
 0.93529292279E+02 0.80095464541E+02 0.65952203673E+02 0.52461448760E+02 0.40870880436E+02
 0.31993527954E+02 0.25793937391E+02 0.21479406796E+02 0.18648985904E+02 0.16986071647E+02
 0.16129616655E+02 0.15781139070E+02 0.15725268571E+02 0.15809824429E+02 0.15918475190E+02
 0.21338696233E+02 0.21146717591E+02 0.20625933135E+02 0.19919978335E+02 0.19217072462E+02
 0.18721074647E+02 0.18649003312E+02 0.19240946754E+02 0.20761522582E+02 0.23462927181E+02
 0.27488321152E+02 0.33150889723E+02 0.40870962930E+02 0.50450906277E+02 0.61125090282E+02
 0.71735048426E+02 0.80882763522E+02 0.87133973819E+02 0.89362197256E+02 0.87133916437E+02
 0.80882660808E+02 0.71734921337E+02 0.61124962534E+02 0.50450796807E+02 0.40870880383E+02
 0.33150832187E+02 0.27488281204E+02 0.23462898342E+02 0.20761500362E+02 0.19240927866E+02
 0.18648985905E+02 0.18721058112E+02 0.19217057112E+02 0.19919965106E+02 0.20625923273E+02
 0.21146712291E+02 0.29831016548E+02 0.29370063390E+02 0.28113951417E+02 0.26379210554E+02
 0.24524117133E+02 0.22814327272E+02 0.21479430157E+02 0.20761522566E+02 0.20869416223E+02
 0.21975290840E+02 0.24185821207E+02 0.27488321145E+02 0.31993580297E+02 0.37843384782E+02
 0.44727687137E+02 0.51895690486E+02 0.58279503606E+02 0.62725133821E+02 0.64322934347E+02
 0.62725097241E+02 0.58279439016E+02 0.51895612005E+02 0.44727609409E+02 0.37843318019E+02
 0.31993527906E+02 0.27488281191E+02 0.24185790332E+02 0.21975265789E+02 0.20869393811E+02
 0.20761500359E+02 0.21479406789E+02 0.22814302610E+02 0.24524092339E+02 0.26379187822E+02
 0.28113933645E+02 0.29370053544E+02 0.43814722969E+02 0.42861348198E+02 0.40237018616E+02
 0.36549969086E+02 0.32542633194E+02 0.28841578909E+02 0.25793971446E+02 0.23462927164E+02
 0.21975290835E+02 0.21465339353E+02 0.21975290835E+02 0.23462927164E+02 0.25793971446E+02
 0.28841578909E+02 0.32542633194E+02 0.36549969086E+02 0.40237018616E+02 0.42861348198E+02
 0.43814722969E+02 0.42861328454E+02 0.40236983774E+02 0.36549926472E+02 0.32542589887E+02
 0.28841539436E+02 0.25793937364E+02 0.23462898332E+02 0.21975265787E+02 0.21465315663E+02
 0.21975265787E+02 0.23462898332E+02 0.25793937364E+02 0.28841539436E+02 0.32542589887E+02
 0.36549926472E+02 0.40236983774E+02 0.42861328454E+02 0.64322934347E+02 0.62725133821E+02
 0.58279503606E+02 0.51895690486E+02 0.44727687137E+02 0.37843384782E+02 0.31993580297E+02
 0.27488321145E+02 0.24185821207E+02 0.21975290840E+02 0.20869416223E+02 0.20761522566E+02
 0.21479430157E+02 0.22814327272E+02 0.24524117133E+02 0.26379210554E+02 0.28113951417E+02
 0.29370063390E+02 0.29831016548E+02 0.29370053544E+02 0.28113933645E+02 0.26379187822E+02
 0.24524092339E+02 0.22814302610E+02 0.21479406789E+02 0.20761500359E+02 0.20869393811E+02
 0.21975265789E+02 0.24185790332E+02 0.27488281191E+02 0.31993527906E+02 0.37843318019E+02
 0.44727609409E+02 0.51895612005E+02 0.58279439016E+02 0.62725097241E+02 0.89362197256E+02
 0.87133973819E+02 0.80882763522E+02 0.71735048426E+02 0.61125090282E+02 0.50450906277E+02
 0.40870962930E+02 0.33150889723E+02 0.27488321152E+02 0.23462927181E+02 0.20761522582E+02
 0.19240946754E+02 0.18649003312E+02 0.18721074647E+02 0.19217072462E+02 0.19919978335E+02
 0.20625933135E+02 0.21146717591E+02 0.21338696233E+02 0.21146712291E+02 0.20625923273E+02
 0.19919965106E+02 0.19217057112E+02 0.18721058112E+02 0.18648985905E+02 0.19240927866E+02
 0.20761500362E+02 0.23462898342E+02 0.27488281204E+02 0.33150832187E+02 0.40870880383E+02
 0.50450796807E+02 0.61124962534E+02 0.71734921337E+02 0.80882660808E+02 0.87133916437E+02
 0.11516082993E+03 0.11244735652E+03 0.10481531926E+03 0.93529466397E+02 0.80095645760E+02
 0.65952363771E+02 0.52461570879E+02 0.40870962904E+02 0.31993580294E+02 0.25793971471E+02
 0.21479430191E+02 0.18649003336E+02 0.16986085933E+02 0.16129629011E+02 0.15781149701E+02
 0.15725277183E+02 0.15809830556E+02 0.15918478390E+02 0.15965806637E+02 0.15918475190E+02
 0.15809824429E+02 0.15725268571E+02 0.15781139070E+02 0.16129616655E+02 0.16986071647E+02
 0.18648985904E+02 0.21479406796E+02 0.25793937391E+02 0.31993527954E+02 0.40870880436E+02
 0.52461448760E+02 0.65952203673E+02 0.80095464541E+02 0.93529292279E+02 0.10481518280E+03
 0.11244728187E+03 0.13919609960E+03 0.13608418074E+03 0.12741066545E+03 0.11469333691E+03
 0.99436536709E+02 0.82796209102E+02 0.65952363657E+02 0.50450906164E+02 0.37843384735E+02
 0.28841578923E+02 0.22814327315E+02 0.18721074691E+02 0.16129629036E+02 0.14574921893E+02
 0.13662893596E+02 0.13133293261E+02 0.12839544147E+02 0.12698772836E+02 0.12658597830E+02
 0.12698770711E+02 0.12839539918E+02 0.13133287004E+02 0.13662885442E+02 0.14574911878E+02
 0.16129616646E+02 0.18721058105E+02 0.22814302624E+02 0.28841539491E+02 0.37843318132E+02
 0.50450796968E+02 0.65952203810E+02 0.82796007018E+02 0.99436318100E+02 0.11469313635E+03
 0.12741051455E+03 0.13608410053E+03 0.16211966412E+03 0.15843691243E+03 0.14841167345E+03
 0.13424056375E+03 0.11767540503E+03 0.99436536501E+02 0.80095645464E+02 0.61125090034E+02
 0.44727687010E+02 0.32542633176E+02 0.24524117170E+02 0.19217072513E+02 0.15781149742E+02
 0.13662893617E+02 0.12357848049E+02 0.11534088923E+02 0.11020034564E+02 0.10737947235E+02
 0.10648658259E+02 0.10737945897E+02 0.11020031712E+02 0.11534084361E+02 0.12357841708E+02
 0.13662885429E+02 0.15781139051E+02 0.19217057101E+02 0.24524092361E+02 0.32542589977E+02
 0.44727609606E+02 0.61124962839E+02 0.80095464873E+02 0.99436318322E+02 0.11767518114E+03
 0.13424036956E+03 0.14841153495E+03 0.15843684172E+03 0.18607662418E+03 0.18140771023E+03
 0.16905248544E+03 0.15249185648E+03 0.13424056353E+03 0.11469333651E+03 0.93529465942E+02
 0.71735048060E+02 0.51895690282E+02 0.36549969026E+02 0.26379210573E+02 0.19919978381E+02
 0.15725277228E+02 0.13133293292E+02 0.11534088936E+02 0.10516464136E+02 0.98700018092E+01
 0.95069466680E+01 0.93900269761E+01 0.95069460365E+01 0.98700002095E+01 0.10516461155E+02
 0.11534084350E+02 0.13133286983E+02 0.15725268546E+02 0.19919965093E+02 0.26379187852E+02
 0.36549926589E+02 0.51895612267E+02 0.71734921751E+02 0.93529292768E+02 0.11469313677E+03
 0.13424036978E+03 0.15249169911E+03 0.16905238084E+03 0.18140765991E+03 0.21056381451E+03
 0.20456469860E+03 0.18900690079E+03 0.16905248531E+03 0.14841167314E+03 0.12741066500E+03
 0.10481531879E+03 0.80882763140E+02 0.58279503383E+02 0.40237018534E+02 0.28113951417E+02
 0.20625933165E+02 0.15809830591E+02 0.12839544174E+02 0.11020034579E+02 0.98700018145E+01
 0.91405025731E+01 0.87292700436E+01 0.85962636496E+01 0.87292699210E+01 0.91405019477E+01
 0.98700002046E+01 0.11020031698E+02 0.12839539896E+02 0.15809824404E+02 0.20625923262E+02
 0.28113933672E+02 0.40236983888E+02 0.58279439273E+02 0.80882661219E+02 0.10481518330E+03
 0.12741051501E+03 0.14841153526E+03 0.16905238097E+03 0.18900683724E+03 0.20456467055E+03
 0.23026651483E+03 0.22306244294E+03 0.20456469857E+03 0.18140771011E+03 0.15843691221E+03
 0.13608418044E+03 0.11244735621E+03 0.87133973571E+02 0.62725133672E+02 0.42861348137E+02
 0.29370063382E+02 0.21146717604E+02 0.15918478408E+02 0.12698772852E+02 0.10737947245E+02
 0.95069466722E+01 0.87292700446E+01 0.82910937997E+01 0.81492344511E+01 0.82910938643E+01
 0.87292699200E+01 0.95069460325E+01 0.10737945888E+02 0.12698770697E+02 0.15918475175E+02
 0.21146712284E+02 0.29370053560E+02 0.42861328524E+02 0.62725097400E+02 0.87133916694E+02
 0.11244728219E+03 0.13608410083E+03 0.15843684195E+03 0.18140766003E+03 0.20456467059E+03
 0.22306243179E+03 0.23026651483E+03 0.22306243179E+03 0.20456467055E+03 0.18140765991E+03
 0.15843684172E+03 0.13608410053E+03 0.11244728187E+03 0.87133916437E+02 0.62725097241E+02
 0.42861328454E+02 0.29370053544E+02 0.21146712291E+02 0.15918475190E+02 0.12698770711E+02
 0.10737945897E+02 0.95069460365E+01 0.87292699210E+01 0.82910938643E+01 0.81492344511E+01
 0.82910937997E+01 0.87292700436E+01 0.95069466680E+01 0.10737947235E+02 0.12698772836E+02
 0.15918478390E+02 0.21146717591E+02 0.29370063390E+02 0.42861348198E+02 0.62725133821E+02
 0.87133973819E+02 0.11244735652E+03 0.13608418074E+03 0.15843691243E+03 0.18140771023E+03
 0.20456469860E+03 0.22306244294E+03 0.22306243179E+03 0.21630654465E+03 0.19890710282E+03
 0.17695818255E+03 0.15488018451E+03 0.13304988739E+03 0.10979603998E+03 0.84962834224E+02
 0.61174654889E+02 0.41938967183E+02 0.28923058646E+02 0.20957269151E+02 0.15870712592E+02
 0.12736786140E+02 0.10824355579E+02 0.96208162072E+01 0.88592746248E+01 0.84300319524E+01
 0.82910937997E+01 0.84300317902E+01 0.88592747953E+01 0.96208173483E+01 0.10824358089E+02
 0.12736790183E+02 0.15870718687E+02 0.20957279155E+02 0.28923076896E+02 0.41939003001E+02
 0.61174720023E+02 0.84962934340E+02 0.10979616662E+03 0.13305001767E+03 0.15488029128E+03
 0.17695824914E+03 0.19890713154E+03 0.21630655168E+03 0.20456467059E+03 0.19890710282E+03
 0.18418206387E+03 0.16513571436E+03 0.14516456150E+03 0.12457702908E+03 0.10233483046E+03
 0.78872244331E+02 0.56861823472E+02 0.39400407514E+02 0.27704359710E+02 0.20443516543E+02
 0.15760462996E+02 0.12870980132E+02 0.11097767833E+02 0.99746604574E+01 0.92613825466E+01
 0.88592748195E+01 0.87292700446E+01 0.88592747953E+01 0.92613831013E+01 0.99746623667E+01
 0.11097771579E+02 0.12870985915E+02 0.15760471481E+02 0.20443530086E+02 0.27704383553E+02
 0.39400452643E+02 0.56861903968E+02 0.78872366531E+02 0.10233498266E+03 0.12457718148E+03
 0.14516467988E+03 0.16513577976E+03 0.18418208336E+03 0.19890710165E+03 0.18140766003E+03
 0.17695818255E+03 0.16513571431E+03 0.14915503054E+03 0.13134568546E+03 0.11211839937E+03
 0.91294945649E+02 0.69962484954E+02 0.50672085158E+02 0.35834728604E+02 0.26018859347E+02
 0.19747421326E+02 0.15672206726E+02 0.13153233501E+02 0.11596870898E+02 0.10605054721E+02
 0.99746609015E+01 0.96208168820E+01 0.95069466722E+01 0.96208173483E+01 0.99746623644E+01
 0.10605057853E+02 0.11596876100E+02 0.13153240941E+02 0.15672217106E+02 0.19747437105E+02
 0.26018885717E+02 0.35834775811E+02 0.50672167288E+02 0.69962609005E+02 0.91295100281E+02
 0.11211855412E+03 0.13134580478E+03 0.14915509466E+03 0.16513573106E+03 0.17695817917E+03
 0.15843684195E+03 0.15488018451E+03 0.14516456136E+03 0.13134568533E+03 0.11508908844E+03
 0.97142013195E+02 0.78157147265E+02 0.59638563854E+02 0.43728596580E+02 0.31959685853E+02
 0.24210193914E+02 0.19054381502E+02 0.15720306089E+02 0.13664667471E+02 0.12397237509E+02
 0.11596871375E+02 0.11097768798E+02 0.10824356865E+02 0.10737947245E+02 0.10824358089E+02
 0.11097771572E+02 0.11596876092E+02 0.12397244363E+02 0.13664676542E+02 0.15720317992E+02
 0.19054398427E+02 0.24210220393E+02 0.31959729765E+02 0.43728669992E+02 0.59638674414E+02
 0.78157287314E+02 0.97142157374E+02 0.11508920489E+03 0.13134575427E+03 0.14516458658E+03
 0.15488018744E+03 0.13608410083E+03 0.13304988739E+03 0.12457702888E+03 0.11211839913E+03
 0.97142013055E+02 0.80817469880E+02 0.64350163334E+02 0.49271348047E+02 0.37068317815E+02
 0.28377893875E+02 0.22535098914E+02 0.18563811396E+02 0.16052937221E+02 0.14547324343E+02
 0.13664667789E+02 0.13153234325E+02 0.12870981536E+02 0.12736788028E+02 0.12698772852E+02
 0.12736790183E+02 0.12870985901E+02 0.13153240922E+02 0.13664676529E+02 0.14547335144E+02
 0.16052950496E+02 0.18563828808E+02 0.22535123978E+02 0.28377931971E+02 0.37068377460E+02
 0.49271436713E+02 0.64350278249E+02 0.80817593975E+02 0.97142121598E+02 0.11211847354E+03
 0.12457706688E+03 0.13304990044E+03 0.11244728219E+03 0.10979603998E+03 0.10233483023E+03
 0.91294945361E+02 0.78157147051E+02 0.64350163242E+02 0.51223395057E+02 0.39990522757E+02
 0.31414070928E+02 0.25417340139E+02 0.21227951114E+02 0.18486313549E+02 0.16878581753E+02
 0.16052937264E+02 0.15720306457E+02 0.15672207687E+02 0.15760464755E+02 0.15870715177E+02
 0.15918478408E+02 0.15870718687E+02 0.15760471463E+02 0.15672217078E+02 0.15720317963E+02
 0.16052950478E+02 0.16878596764E+02 0.18486331415E+02 0.21227974258E+02 0.25417372242E+02
 0.31414116816E+02 0.39990588219E+02 0.51223480949E+02 0.64350260702E+02 0.78157239695E+02
 0.91295017677E+02 0.10233487537E+03 0.10979606023E+03 0.87133916694E+02 0.84962834224E+02
 0.78872244144E+02 0.69962484708E+02 0.59638563657E+02 0.49271347942E+02 0.39990522726E+02
 0.32528700747E+02 0.27053221095E+02 0.23142403905E+02 0.20523582594E+02 0.19054024193E+02
 0.18486313156E+02 0.18563810949E+02 0.19054381385E+02 0.19747422062E+02 0.20443518668E+02
 0.20957272954E+02 0.21146717604E+02 0.20957279155E+02 0.20443530070E+02 0.19747437075E+02
 0.19054398391E+02 0.18563828777E+02 0.18486331398E+02 0.19054043415E+02 0.20523604436E+02
 0.23142430949E+02 0.27053256257E+02 0.32528747101E+02 0.39990582161E+02 0.49271417248E+02
 0.59638633837E+02 0.69962544779E+02 0.78872286162E+02 0.84962855246E+02 0.62725097400E+02
 0.61174654889E+02 0.56861823353E+02 0.50672085002E+02 0.43728596455E+02 0.37068317748E+02
 0.31414070906E+02 0.27053221093E+02 0.23839972057E+02 0.21693158670E+02 0.20623047636E+02
 0.20523581608E+02 0.21227949368E+02 0.22535096728E+02 0.24210192019E+02 0.26018858914E+02
 0.27704362100E+02 0.28923064829E+02 0.29370063382E+02 0.28923076896E+02 0.27704383551E+02
 0.26018885702E+02 0.24210220366E+02 0.22535123947E+02 0.21227974234E+02 0.20523604425E+02
 0.20623069875E+02 0.21693182505E+02 0.23839999811E+02 0.27053254490E+02 0.31414110801E+02
 0.37068363273E+02 0.43728643565E+02 0.50672127363E+02 0.56861854834E+02 0.61174671478E+02
 0.42861328524E+02 0.41938967183E+02 0.39400407460E+02 0.35834728534E+02 0.31959685801E+02