   4   4   0   0
  0.1572262E+02  0.3976750E-09  0.3976750E-09  0.3976750E-09  0.5000000E-15
  1.000000000000000E-004
  CAR 
 Pt                                      
     42.67654702     -1.27704740  301     10.54463106      1.00000000
     -1.277  0.0000E+00  0.0000E+00
     -1.131  0.0000E+00  0.0000E+00
     -0.984  0.0000E+00  0.0000E+00
     -0.838  0.0000E+00  0.0000E+00
     -0.691  0.0000E+00  0.0000E+00
     -0.544  0.0000E+00  0.0000E+00
     -0.398  0.0000E+00  0.0000E+00
     -0.251  0.0000E+00  0.0000E+00
     -0.105  0.0000E+00  0.0000E+00
      0.042  0.0000E+00  0.0000E+00
      0.188  0.0000E+00  0.0000E+00
      0.335  0.0000E+00  0.0000E+00
      0.481  0.3201E-13  0.4690E-14
      0.628  0.2713E-04  0.3976E-05
      0.774  0.1376E-01  0.2021E-02
      0.921  0.1101E+00  0.1816E-01
      1.067  0.1072E+00  0.3386E-01
      1.214  0.2374E+00  0.6865E-01
      1.360  0.1767E+00  0.9454E-01
      1.507  0.2355E+00  0.1290E+00
      1.653  0.3471E+00  0.1799E+00
      1.800  0.2330E+00  0.2140E+00
      1.946  0.4950E+00  0.2866E+00
      2.093  0.1512E+00  0.3087E+00
      2.239  0.5636E+00  0.3913E+00
      2.386  0.4247E+00  0.4535E+00
      2.532  0.5542E+00  0.5347E+00
      2.679  0.2428E+00  0.5703E+00
      2.825  0.8557E+00  0.6956E+00
      2.972  0.5892E+00  0.7820E+00
      3.118  0.7199E+00  0.8874E+00
      3.265  0.7790E+00  0.1002E+01
      3.411  0.1190E+01  0.1176E+01
      3.558  0.1235E+01  0.1357E+01
      3.704  0.2430E+01  0.1713E+01
      3.851  0.2138E+01  0.2026E+01
      3.997  0.3529E+01  0.2543E+01
      4.144  0.3719E+01  0.3088E+01
      4.290  0.4519E+01  0.3750E+01
      4.437  0.5963E+01  0.4624E+01
      4.583  0.6146E+01  0.5524E+01
      4.730  0.5763E+01  0.6369E+01
      4.876  0.6417E+01  0.7309E+01
      5.023  0.4650E+01  0.7990E+01
      5.169  0.6550E+01  0.8950E+01
      5.316  0.4147E+01  0.9557E+01
      5.463  0.3900E+01  0.1013E+02
      5.609  0.4643E+01  0.1081E+02
      5.756  0.5957E+01  0.1168E+02
      5.902  0.6483E+01  0.1263E+02
      6.049  0.6553E+01  0.1359E+02
      6.195  0.5769E+01  0.1444E+02
      6.342  0.8484E+01  0.1568E+02
      6.488  0.6976E+01  0.1670E+02
      6.635  0.6424E+01  0.1764E+02
      6.781  0.1084E+02  0.1923E+02
      6.928  0.7089E+01  0.2027E+02
      7.074  0.5126E+01  0.2102E+02
      7.221  0.3458E+01  0.2153E+02
      7.367  0.4869E+01  0.2224E+02
      7.514  0.4687E+01  0.2293E+02
      7.660  0.2265E+01  0.2326E+02
      7.807  0.4801E+01  0.2396E+02
      7.953  0.6392E+01  0.2490E+02
      8.100  0.6739E+01  0.2589E+02
      8.246  0.6160E+01  0.2679E+02
      8.393  0.4422E+01  0.2744E+02
      8.539  0.5665E+01  0.2827E+02
      8.686  0.6385E+01  0.2920E+02
      8.832  0.7462E+01  0.3030E+02
      8.979  0.5966E+01  0.3117E+02
      9.125  0.5507E+01  0.3198E+02
      9.272  0.5076E+01  0.3272E+02
      9.418  0.3885E+01  0.3329E+02
      9.565  0.5975E+01  0.3416E+02
      9.711  0.4544E+01  0.3483E+02
      9.858  0.4753E+01  0.3553E+02
     10.004  0.5145E+01  0.3628E+02
     10.151  0.5531E+01  0.3709E+02
     10.297  0.7110E+01  0.3813E+02
     10.444  0.6887E+01  0.3914E+02
     10.590  0.8497E+01  0.4039E+02
     10.737  0.5631E+01  0.4121E+02
     10.883  0.3438E+01  0.4172E+02
     11.030  0.2443E+01  0.4207E+02
     11.176  0.3413E+01  0.4257E+02
     11.323  0.1270E+01  0.4276E+02
     11.469  0.6077E+00  0.4285E+02
     11.616  0.3989E+00  0.4291E+02
     11.763  0.2329E+01  0.4325E+02
     11.909  0.1662E+01  0.4349E+02
     12.056  0.9939E+00  0.4364E+02
     12.202  0.6449E+00  0.4373E+02
     12.349  0.1353E+01  0.4393E+02
     12.495  0.1354E+01  0.4413E+02
     12.642  0.9674E+00  0.4427E+02
     12.788  0.1112E+01  0.4443E+02
     12.935  0.1625E+01  0.4467E+02
     13.081  0.1031E+01  0.4482E+02
     13.228  0.1384E+01  0.4502E+02
     13.374  0.6239E+00  0.4512E+02
     13.521  0.1249E+01  0.4530E+02
     13.667  0.1152E+01  0.4547E+02
     13.814  0.1659E+01  0.4571E+02
     13.960  0.3906E+00  0.4577E+02
     14.107  0.8441E+00  0.4589E+02
     14.253  0.1485E+01  0.4611E+02
     14.400  0.9870E+00  0.4625E+02
     14.546  0.1398E+01  0.4646E+02
     14.693  0.4880E+00  0.4653E+02
     14.839  0.1051E+01  0.4668E+02
     14.986  0.9960E+00  0.4683E+02
     15.132  0.9315E+00  0.4697E+02
     15.279  0.4167E+00  0.4703E+02
     15.425  0.1004E+01  0.4718E+02
     15.572  0.1314E+01  0.4737E+02
     15.718  0.9531E+00  0.4751E+02
     15.865  0.7666E+00  0.4762E+02
     16.011  0.1892E+01  0.4790E+02
     16.158  0.2262E+01  0.4823E+02
     16.304  0.1953E+01  0.4851E+02
     16.451  0.5018E+00  0.4859E+02
     16.597  0.5120E+00  0.4866E+02
     16.744  0.1657E+01  0.4891E+02
     16.890  0.1993E+01  0.4920E+02
     17.037  0.8988E+00  0.4933E+02
     17.183  0.9188E+00  0.4946E+02
     17.330  0.1555E+01  0.4969E+02
     17.476  0.1925E+00  0.4972E+02
     17.623  0.2186E+01  0.5004E+02
     17.770  0.2101E+01  0.5035E+02
     17.916  0.1123E+01  0.5051E+02
     18.063  0.1585E+01  0.5074E+02
     18.209  0.1221E+01  0.5092E+02
     18.356  0.8137E+00  0.5104E+02
     18.502  0.9900E+00  0.5119E+02
     18.649  0.1909E+01  0.5147E+02
     18.795  0.1573E+01  0.5170E+02
     18.942  0.1352E+01  0.5190E+02
     19.088  0.6588E+00  0.5199E+02
     19.235  0.4776E+00  0.5206E+02
     19.381  0.1044E+01  0.5222E+02
     19.528  0.1465E+01  0.5243E+02
     19.674  0.1563E+01  0.5266E+02
     19.821  0.1702E+01  0.5291E+02
     19.967  0.1193E+01  0.5308E+02
     20.114  0.1222E+01  0.5326E+02
     20.260  0.1157E+01  0.5343E+02
     20.407  0.9408E+00  0.5357E+02
     20.553  0.1175E+01  0.5374E+02
     20.700  0.1697E+01  0.5399E+02
     20.846  0.1965E+01  0.5428E+02
     20.993  0.1903E+01  0.5456E+02
     21.139  0.2430E+01  0.5491E+02
     21.286  0.1165E+01  0.5508E+02
     21.432  0.1091E+01  0.5524E+02
     21.579  0.1288E+01  0.5543E+02
     21.725  0.1838E+01  0.5570E+02
     21.872  0.1586E+01  0.5593E+02
     22.018  0.6977E+00  0.5604E+02
     22.165  0.1035E+01  0.5619E+02
     22.311  0.2341E+01  0.5653E+02
     22.458  0.1418E+01  0.5674E+02
     22.604  0.1575E+01  0.5697E+02
     22.751  0.2583E+01  0.5735E+02
     22.897  0.2257E+01  0.5768E+02
     23.044  0.2485E+01  0.5804E+02
     23.190  0.1556E+01  0.5827E+02
     23.337  0.8950E+00  0.5840E+02
     23.483  0.1460E+01  0.5862E+02
     23.630  0.2371E+01  0.5896E+02
     23.777  0.3270E+01  0.5944E+02
     23.923  0.1861E+01  0.5971E+02
     24.070  0.1837E+01  0.5998E+02
     24.216  0.1378E+01  0.6019E+02
     24.363  0.1987E+01  0.6048E+02
     24.509  0.2291E+01  0.6081E+02
     24.656  0.2317E+01  0.6115E+02
     24.802  0.2070E+01  0.6146E+02
     24.949  0.1940E+01  0.6174E+02
     25.095  0.2916E+01  0.6217E+02
     25.242  0.1978E+01  0.6246E+02
     25.388  0.3759E+01  0.6301E+02
     25.535  0.3104E+01  0.6346E+02
     25.681  0.3376E+01  0.6396E+02
     25.828  0.2137E+01  0.6427E+02
     25.974  0.3216E+01  0.6474E+02
     26.121  0.2752E+01  0.6514E+02
     26.267  0.3950E+01  0.6572E+02
     26.414  0.1630E+01  0.6596E+02
     26.560  0.1940E+01  0.6625E+02
     26.707  0.1893E+01  0.6652E+02
     26.853  0.2384E+01  0.6687E+02
     27.000  0.3975E+01  0.6745E+02
     27.146  0.3717E+01  0.6800E+02
     27.293  0.4286E+01  0.6863E+02
     27.439  0.2176E+01  0.6895E+02
     27.586  0.1265E+01  0.6913E+02
     27.732  0.1217E+01  0.6931E+02
     27.879  0.1928E+01  0.6959E+02
     28.025  0.1142E+01  0.6976E+02
     28.172  0.2029E+01  0.7006E+02
     28.318  0.1338E+01  0.7025E+02
     28.465  0.1488E+01  0.7047E+02
     28.611  0.1272E+01  0.7066E+02
     28.758  0.1465E+01  0.7087E+02
     28.904  0.1823E+01  0.7114E+02
     29.051  0.2120E+01  0.7145E+02
     29.197  0.1791E+01  0.7171E+02
     29.344  0.2869E+01  0.7213E+02
     29.490  0.2386E+01  0.7248E+02
     29.637  0.2583E+01  0.7286E+02
     29.783  0.2950E+01  0.7329E+02
     29.930  0.3765E+01  0.7384E+02
     30.077  0.2714E+01  0.7424E+02
     30.223  0.2776E+01  0.7465E+02
     30.370  0.4159E+01  0.7526E+02
     30.516  0.2602E+01  0.7564E+02
     30.663  0.2840E+01  0.7606E+02
     30.809  0.3149E+01  0.7652E+02
     30.956  0.1914E+01  0.7680E+02
     31.102  0.2999E+01  0.7724E+02
     31.249  0.3089E+01  0.7769E+02
     31.395  0.2961E+01  0.7812E+02
     31.542  0.2307E+01  0.7846E+02
     31.688  0.9755E+00  0.7860E+02
     31.835  0.1382E+01  0.7881E+02
     31.981  0.2387E+01  0.7916E+02
     32.128  0.1278E+01  0.7934E+02
     32.274  0.1820E+01  0.7961E+02
     32.421  0.1166E+01  0.7978E+02
     32.567  0.1628E+01  0.8002E+02
     32.714  0.1129E+01  0.8018E+02
     32.860  0.1371E+01  0.8039E+02
     33.007  0.1976E+01  0.8067E+02
     33.153  0.8787E+00  0.8080E+02
     33.300  0.2444E+01  0.8116E+02
     33.446  0.1432E+01  0.8137E+02
     33.593  0.1623E+01  0.8161E+02
     33.739  0.1640E+01  0.8185E+02
     33.886  0.1220E+01  0.8203E+02
     34.032  0.2650E+01  0.8242E+02
     34.179  0.2217E+01  0.8274E+02
     34.325  0.3627E+01  0.8327E+02
     34.472  0.2071E+01  0.8358E+02
     34.618  0.9501E+00  0.8372E+02
     34.765  0.2246E+01  0.8404E+02
     34.911  0.1521E+01  0.8427E+02
     35.058  0.1767E+01  0.8453E+02
     35.204  0.2802E+01  0.8494E+02
     35.351  0.2498E+01  0.8530E+02
     35.497  0.1989E+01  0.8559E+02
     35.644  0.3364E+01  0.8609E+02
     35.790  0.2003E+01  0.8638E+02
     35.937  0.1557E+01  0.8661E+02
     36.084  0.1203E+01  0.8678E+02
     36.230  0.2128E+01  0.8710E+02
     36.377  0.3044E+01  0.8754E+02
     36.523  0.3365E+01  0.8804E+02
     36.670  0.1930E+01  0.8832E+02
     36.816  0.2281E+01  0.8865E+02
     36.963  0.2583E+01  0.8903E+02
     37.109  0.3745E+01  0.8958E+02
     37.256  0.3053E+01  0.9003E+02
     37.402  0.3921E+01  0.9060E+02
     37.549  0.2416E+01  0.9096E+02
     37.695  0.4163E+01  0.9157E+02
     37.842  0.4105E+01  0.9217E+02
     37.988  0.5881E+01  0.9303E+02
     38.135  0.3953E+01  0.9361E+02
     38.281  0.4077E+01  0.9420E+02
     38.428  0.4908E+01  0.9492E+02
     38.574  0.3611E+01  0.9545E+02
     38.721  0.7662E+00  0.9557E+02
     38.867  0.1058E+01  0.9572E+02
     39.014  0.6892E+00  0.9582E+02
     39.160  0.8178E+00  0.9594E+02
     39.307  0.1262E+00  0.9596E+02
     39.453  0.2167E+00  0.9599E+02
     39.600  0.5147E-01  0.9600E+02
     39.746  0.2434E-03  0.9600E+02
     39.893  0.5072E-12  0.9600E+02
     40.039  0.0000E+00  0.9600E+02
     40.186  0.0000E+00  0.9600E+02
     40.332  0.0000E+00  0.9600E+02
     40.479  0.1358E-09  0.9600E+02
     40.625  0.6443E-03  0.9600E+02
     40.772  0.7230E-02  0.9600E+02
     40.918  0.2525E-04  0.9600E+02
     41.065  0.2898E-13  0.9600E+02
     41.211  0.0000E+00  0.9600E+02
     41.358  0.0000E+00  0.9600E+02
     41.504  0.0000E+00  0.9600E+02
     41.651  0.0000E+00  0.9600E+02
     41.797  0.0000E+00  0.9600E+02
     41.944  0.0000E+00  0.9600E+02
     42.090  0.0000E+00  0.9600E+02
     42.237  0.0000E+00  0.9600E+02
     42.384  0.0000E+00  0.9600E+02
     42.530  0.0000E+00  0.9600E+02
     42.677  0.0000E+00  0.9600E+02
