    4    4    1    1
  0.1572262E+02  0.3976750E-09  0.3976750E-09  0.3976750E-09  0.5000000E-15
  1.000000000000000E-004
  CAR 
 Pt                                      
     40    294     96
 
  0.0000000E+00  0.0000000E+00  0.0000000E+00  0.5787037E-03
      1          0.720843   1.000000
      2          0.726025   1.000000
      3          3.797085   1.000000
      4          3.797085   1.000000
      5          3.797085   1.000000
      6          3.811555   1.000000
      7          3.811555   1.000000
      8          3.811555   1.000000
      9          4.208194   1.000000
     10          4.208194   1.000000
     11          4.208194   1.000000
     12          4.232501   1.000000
     13          4.232501   1.000000
     14          4.232501   1.000000
     15          6.466527   1.000000
     16          6.476451   1.000000
     17          6.483534   1.000000
     18          6.493818   1.000000
     19          7.459246   1.000000
     20          7.469116   1.000000
     21          9.136273   1.000000
     22          9.136496   1.000000
     23          9.157909   1.000000
     24          9.158119   1.000000
     25         10.280436   1.000000
     26         10.280436   1.000000
     27         10.280436   1.000000
     28         10.299302   1.000000
     29         10.299302   1.000000
     30         10.299302   1.000000
     31         10.569031   0.245053
     32         10.569031   0.245053
     33         10.569031   0.245053
     34         10.589405   0.102685
     35         10.589405   0.102685
     36         10.589405   0.102685
     37         11.519240   0.000000
     38         11.519240   0.000000
     39         11.519240   0.000000
     40         11.533968   0.000000
     41         11.533968   0.000000
     42         11.533968   0.000000
     43         12.159908   0.000000
     44         12.159908   0.000000
     45         12.159908   0.000000
     46         12.163710   0.000000
     47         12.163710   0.000000
     48         12.163710   0.000000
     49         18.935633   0.000000
     50         18.935633   0.000000
     51         18.935633   0.000000
     52         18.952660   0.000000
     53         18.952660   0.000000
     54         18.952660   0.000000
     55         21.085956   0.000000
     56         21.085956   0.000000
     57         21.085956   0.000000
     58         21.088714   0.000000
     59         21.088714   0.000000
     60         21.088714   0.000000
     61         22.447784   0.000000
     62         22.447784   0.000000
     63         22.447784   0.000000
     64         22.450451   0.000000
     65         22.450451   0.000000
     66         22.450451   0.000000
     67         25.231908   0.000000
     68         25.236185   0.000000
     69         29.421837   0.000000
     70         29.422020   0.000000
     71         30.129624   0.000000
     72         30.129624   0.000000
     73         30.129624   0.000000
     74         30.136339   0.000000
     75         30.136339   0.000000
     76         30.136339   0.000000
     77         30.146119   0.000000
     78         30.147258   0.000000
     79         30.147525   0.000000
     80         30.148653   0.000000
     81         33.249462   0.000000
     82         33.249462   0.000000
     83         33.249462   0.000000
     84         33.261041   0.000000
     85         33.261041   0.000000
     86         33.261041   0.000000
     87         35.152734   0.000000
     88         35.154388   0.000000
     89         38.812574   0.000000
     90         38.812574   0.000000
     91         38.812574   0.000000
     92         38.824171   0.000000
     93         38.824171   0.000000
     94         38.824171   0.000000
     95         40.671260   0.000000
     96         40.678656   0.000000
 
  0.8333333E-01 -0.1055582E-32  0.0000000E+00  0.3472222E-02
      1          0.810356   1.000000
      2          0.815536   1.000000
      3          3.829880   1.000000
      4          3.844247   1.000000
      5          3.861545   1.000000
      6          3.861545   1.000000
      7          3.876059   1.000000
      8          3.876059   1.000000
      9          4.243598   1.000000
     10          4.261920   1.000000
     11          4.261920   1.000000
     12          4.267947   1.000000
     13          4.286203   1.000000
     14          4.286203   1.000000
     15          6.450394   1.000000
     16          6.466779   1.000000
     17          6.508973   1.000000
     18          6.523800   1.000000
     19          7.472026   1.000000
     20          7.482016   1.000000
     21          9.080065   1.000000
     22          9.101357   1.000000
     23          9.155534   1.000000
     24          9.177233   1.000000
     25         10.037459   1.000000
     26         10.037461   1.000000
     27         10.054006   1.000000
     28         10.054008   1.000000
     29         10.238916   1.000000
     30         10.257055   1.000000
     31         10.341254   1.000000
     32         10.341257   1.000000
     33         10.352333   1.000000
     34         10.352336   1.000000
     35         10.416877   0.999849
     36         10.436263   0.998912
     37         11.255999   0.000000
     38         11.256001   0.000000
     39         11.275567   0.000000
     40         11.275568   0.000000
     41         11.416341   0.000000
     42         11.430335   0.000000
     43         11.750803   0.000000
     44         11.755202   0.000000
     45         12.846756   0.000000
     46         12.846757   0.000000
     47         12.858240   0.000000
     48         12.858241   0.000000
     49         18.755701   0.000000
     50         18.755703   0.000000
     51         18.771881   0.000000
     52         18.771882   0.000000
     53         19.451803   0.000000
     54         19.467089   0.000000
     55         21.115625   0.000000
     56         21.115626   0.000000
     57         21.118821   0.000000
     58         21.118821   0.000000
     59         21.372822   0.000000
     60         21.375168   0.000000
     61         22.420789   0.000000
     62         22.420797   0.000000
     63         22.423903   0.000000
     64         22.423911   0.000000
     65         22.660850   0.000000
     66         22.663708   0.000000
     67         25.369801   0.000000
     68         25.374263   0.000000
     69         29.313951   0.000000
     70         29.314594   0.000000
     71         29.953994   0.000000
     72         29.954911   0.000000
     73         30.024171   0.000000
     74         30.030798   0.000000
     75         30.172079   0.000000
     76         30.173492   0.000000
     77         30.447349   0.000000
     78         30.447349   0.000000
     79         30.454068   0.000000
     80         30.454068   0.000000
     81         33.114500   0.000000
     82         33.126009   0.000000
     83         33.233878   0.000000
     84         33.233878   0.000000
     85         33.245252   0.000000
     86         33.245252   0.000000
     87         35.729422   0.000000
     88         35.730787   0.000000
     89         38.696460   0.000000
     90         38.696460   0.000000
     91         38.707844   0.000000
     92         38.707844   0.000000
     93         38.945052   0.000000
     94         38.956675   0.000000
     95         39.505618   0.000000
     96         39.511794   0.000000
 
  0.1666667E+00  0.2691897E-33  0.0000000E+00  0.3472222E-02
      1          1.075305   1.000000
      2          1.080487   1.000000
      3          3.915973   1.000000
      4          3.929962   1.000000
      5          4.048291   1.000000
      6          4.048291   1.000000
      7          4.062934   1.000000
      8          4.062934   1.000000
      9          4.348416   1.000000
     10          4.372886   1.000000
     11          4.422616   1.000000
     12          4.422617   1.000000
     13          4.446823   1.000000
     14          4.446823   1.000000
     15          6.368472   1.000000
     16          6.388555   1.000000
     17          6.612712   1.000000
     18          6.627064   1.000000
     19          7.533820   1.000000
     20          7.544998   1.000000
     21          8.923419   1.000000
     22          8.943674   1.000000
     23          9.215092   1.000000
     24          9.236993   1.000000
     25          9.241902   1.000000
     26          9.241909   1.000000
     27          9.263517   1.000000
     28          9.263525   1.000000
     29          9.937440   1.000000
     30          9.951702   1.000000
     31         10.082660   1.000000
     32         10.082665   1.000000
     33         10.099865   1.000000
     34         10.099870   1.000000
     35         10.112044   1.000000
     36         10.127787   1.000000
     37         10.890138   0.000000
     38         10.894820   0.000000
     39         11.103107   0.000000
     40         11.103109   0.000000
     41         11.131127   0.000000
     42         11.131129   0.000000
     43         11.142158   0.000000
     44         11.154027   0.000000
     45         13.910946   0.000000
     46         13.910946   0.000000
     47         13.924759   0.000000
     48         13.924759   0.000000
     49         18.355974   0.000000
     50         18.355978   0.000000
     51         18.370919   0.000000
     52         18.370923   0.000000
     53         20.638728   0.000000
     54         20.649302   0.000000
     55         21.078782   0.000000
     56         21.078792   0.000000
     57         21.082944   0.000000
     58         21.082955   0.000000
     59         22.255523   0.000000
     60         22.257890   0.000000
     61         22.361430   0.000000
     62         22.361443   0.000000
     63         22.366386   0.000000
     64         22.366399   0.000000
     65         23.268555   0.000000
     66         23.271880   0.000000
     67         25.772631   0.000000
     68         25.777614   0.000000
     69         28.919126   0.000000
     70         28.920727   0.000000
     71         29.679144   0.000000
     72         29.680669   0.000000
     73         29.742311   0.000000
     74         29.748720   0.000000
     75         30.215483   0.000000
     76         30.217090   0.000000
     77         31.351125   0.000000
     78         31.351126   0.000000
     79         31.357931   0.000000
     80         31.357932   0.000000
     81         32.716332   0.000000
     82         32.727616   0.000000
     83         33.222409   0.000000
     84         33.222410   0.000000
     85         33.233198   0.000000
     86         33.233199   0.000000
     87         37.080159   0.000000
     88         37.081423   0.000000
     89         38.077049   0.000000
     90         38.081915   0.000000
     91         38.291283   0.000000
     92         38.291284   0.000000
     93         38.301855   0.000000
     94         38.301856   0.000000
     95         39.338702   0.000000
     96         39.430452   0.000000
 
  0.2500000E+00  0.5458613E-32  0.0000000E+00  0.3472222E-02
      1          1.503700   1.000000
      2          1.508906   1.000000
      3          4.015401   1.000000
      4          4.028528   1.000000
      5          4.334378   1.000000
      6          4.334379   1.000000
      7          4.349207   1.000000
      8          4.349207   1.000000
      9          4.518639   1.000000
     10          4.543301   1.000000
     11          4.687704   1.000000
     12          4.687707   1.000000
     13          4.711760   1.000000
     14          4.711762   1.000000
     15          6.199246   1.000000
     16          6.222541   1.000000
     17          6.771069   1.000000
     18          6.784237   1.000000
     19          7.684754   1.000000
     20          7.697759   1.000000
     21          8.371365   1.000000
     22          8.371374   1.000000
     23          8.393614   1.000000
     24          8.393623   1.000000
     25          8.705786   1.000000
     26          8.723888   1.000000
     27          9.097847   1.000000
     28          9.104391   1.000000
     29          9.317068   1.000000
     30          9.339113   1.000000
     31          9.712390   1.000000
     32          9.712396   1.000000
     33          9.732255   1.000000
     34          9.732261   1.000000
     35          9.887552   1.000000
     36          9.899098   1.000000
     37         10.123233   1.000000
     38         10.132970   1.000000
     39         10.781313   0.000000
     40         10.791262   0.000000
     41         11.024643   0.000000
     42         11.024644   0.000000
     43         11.057000   0.000000
     44         11.057002   0.000000
     45         15.035749   0.000000
     46         15.035751   0.000000
     47         15.049738   0.000000
     48         15.049739   0.000000
     49         17.942993   0.000000
     50         17.943000   0.000000
     51         17.957258   0.000000
     52         17.957265   0.000000
     53         20.814435   0.000000
     54         20.814460   0.000000
     55         20.820512   0.000000
     56         20.820536   0.000000
     57         21.982964   0.000000
     58         21.988043   0.000000
     59         22.310406   0.000000
     60         22.310414   0.000000
     61         22.317860   0.000000
     62         22.317868   0.000000
     63         23.744869   0.000000
     64         23.751084   0.000000
     65         24.194689   0.000000
     66         24.198541   0.000000
     67         26.409907   0.000000
     68         26.415666   0.000000
     69         28.435936   0.000000
     70         28.437925   0.000000
     71         29.324097   0.000000
     72         29.326409   0.000000
     73         29.374887   0.000000
     74         29.381057   0.000000
     75         30.166107   0.000000
     76         30.168150   0.000000
     77         32.080246   0.000000
     78         32.091134   0.000000
     79         32.710420   0.000000
     80         32.710422   0.000000
     81         32.717385   0.000000
     82         32.717388   0.000000
     83         33.298631   0.000000
     84         33.298636   0.000000
     85         33.308469   0.000000
     86         33.308475   0.000000
     87         36.572312   0.000000
     88         36.576761   0.000000
     89         37.534534   0.000000
     90         37.534536   0.000000
     91         37.543806   0.000000
     92         37.543809   0.000000
     93         38.063627   0.000000
     94         38.070206   0.000000
     95         38.663880   0.000000
     96         38.669682   0.000000
 
  0.3333333E+00  0.1064804E-31  0.0000000E+00  0.3472222E-02
      1          2.070523   1.000000
      2          2.075833   1.000000
      3          4.037995   1.000000
      4          4.049401   1.000000
      5          4.671856   1.000000
      6          4.671858   1.000000
      7          4.686836   1.000000
      8          4.686839   1.000000
      9          4.746678   1.000000
     10          4.771591   1.000000
     11          5.055872   1.000000
     12          5.055878   1.000000
     13          5.079608   1.000000
     14          5.079613   1.000000
     15          5.948834   1.000000
     16          5.973758   1.000000
     17          6.948925   1.000000
     18          6.959786   1.000000
     19          7.547580   1.000000
     20          7.547590   1.000000
     21          7.569975   1.000000
     22          7.569985   1.000000
     23          7.938907   1.000000
     24          7.952976   1.000000
     25          8.173229   1.000000
     26          8.180964   1.000000
     27          8.506505   1.000000
     28          8.520507   1.000000
     29          9.267783   1.000000
     30          9.267789   1.000000
     31          9.288176   1.000000
     32          9.288181   1.000000
     33          9.461246   1.000000
     34          9.483216   1.000000
     35          9.522559   1.000000
     36          9.533149   1.000000
     37          9.557781   1.000000
     38          9.565431   1.000000
     39         10.424456   0.999662
     40         10.437305   0.998800
     41         10.983764   0.000000
     42         10.983765   0.000000
     43         11.017964   0.000000
     44         11.017965   0.000000
     45         16.149226   0.000000
     46         16.149231   0.000000
     47         16.162203   0.000000
     48         16.162208   0.000000
     49         17.629625   0.000000
     50         17.629638   0.000000
     51         17.643405   0.000000
     52         17.643417   0.000000
     53         20.300112   0.000000
     54         20.300147   0.000000
     55         20.308221   0.000000
     56         20.308257   0.000000
     57         22.279111   0.000000
     58         22.279115   0.000000
     59         22.288244   0.000000
     60         22.288247   0.000000
     61         23.347780   0.000000
     62         23.351175   0.000000
     63         25.347134   0.000000
     64         25.351395   0.000000
     65         25.630727   0.000000
     66         25.639036   0.000000
     67         27.236016   0.000000
     68         27.242700   0.000000
     69         28.083915   0.000000
     70         28.086211   0.000000
     71         28.631137   0.000000
     72         28.634253   0.000000
     73         29.061348   0.000000
     74         29.067624   0.000000
     75         29.832156   0.000000
     76         29.834971   0.000000
     77         31.245875   0.000000
     78         31.256182   0.000000
     79         33.525141   0.000000
     80         33.525145   0.000000
     81         33.534091   0.000000
     82         33.534095   0.000000
     83         34.380970   0.000000
     84         34.380977   0.000000
     85         34.388327   0.000000
     86         34.388335   0.000000
     87         35.292484   0.000000
     88         35.301128   0.000000
     89         36.557762   0.000000
     90         36.557764   0.000000
     91         36.565955   0.000000
     92         36.565957   0.000000
     93         37.006459   0.000000
     94         37.009589   0.000000
     95         37.165739   0.000000
     96         37.171600   0.000000
 
  0.4166667E+00 -0.1492482E-31  0.0000000E+00  0.3472222E-02
      1          2.725984   1.000000
      2          2.731651   1.000000
      3          3.847163   1.000000
      4          3.856016   1.000000
      5          4.968977   1.000000
      6          4.968980   1.000000
      7          4.983963   1.000000
      8          4.983966   1.000000
      9          5.022796   1.000000
     10          5.047982   1.000000
     11          5.520922   1.000000
     12          5.520931   1.000000
     13          5.543872   1.000000
     14          5.543881   1.000000
     15          5.647932   1.000000
     16          5.673365   1.000000
     17          6.802967   1.000000
     18          6.802977   1.000000
     19          6.825183   1.000000
     20          6.825193   1.000000
     21          7.087227   1.000000
     22          7.096495   1.000000
     23          7.508014   1.000000
     24          7.518499   1.000000
     25          8.282464   1.000000
     26          8.296640   1.000000
     27          8.452601   1.000000
     28          8.461478   1.000000
     29          8.881805   1.000000
     30          8.881809   1.000000
     31          8.901963   1.000000
     32          8.901967   1.000000
     33          9.020533   1.000000
     34          9.032312   1.000000
     35          9.136665   1.000000
     36          9.147982   1.000000
     37          9.644441   1.000000
     38          9.665936   1.000000
     39         10.120527   1.000000
     40         10.138043   1.000000
     41         10.964502   0.000000
     42         10.964503   0.000000
     43         10.999379   0.000000
     44         10.999380   0.000000
     45         17.111973   0.000000
     46         17.111988   0.000000
     47         17.119633   0.000000
     48         17.119648   0.000000
     49         17.511800   0.000000
     50         17.511812   0.000000
     51         17.520912   0.000000
     52         17.520923   0.000000
     53         19.620615   0.000000
     54         19.620666   0.000000
     55         19.629712   0.000000
     56         19.629762   0.000000
     57         22.260364   0.000000
     58         22.260365   0.000000
     59         22.270277   0.000000
     60         22.270278   0.000000
     61         24.762214   0.000000
     62         24.766051   0.000000
     63         26.628840   0.000000
     64         26.633273   0.000000
     65         27.354061   0.000000
     66         27.360514   0.000000
     67         27.528296   0.000000
     68         27.532279   0.000000
     69         27.923501   0.000000
     70         27.926546   0.000000
     71         28.189699   0.000000
     72         28.197265   0.000000
     73         29.069356   0.000000
     74         29.072979   0.000000
     75         29.230768   0.000000
     76         29.239525   0.000000
     77         30.276891   0.000000
     78         30.286433   0.000000
     79         33.180830   0.000000
     80         33.192679   0.000000
     81         33.985592   0.000000
     82         33.985594   0.000000
     83         33.993809   0.000000
     84         33.993811   0.000000
     85         35.559417   0.000000
     86         35.559417   0.000000
     87         35.567095   0.000000
     88         35.567095   0.000000
     89         36.077465   0.000000
     90         36.077467   0.000000
     91         36.085168   0.000000
     92         36.085170   0.000000
     93         36.698862   0.000000
     94         36.703270   0.000000
     95         36.967220   0.000000
     96         36.972194   0.000000
 
  0.5000000E+00  0.1091723E-31  0.0000000E+00  0.1736111E-02
      1          3.371870   1.000000
      2          3.371870   1.000000
      3          3.378563   1.000000
      4          3.378563   1.000000
      5          5.092783   1.000000
      6          5.092783   1.000000
      7          5.107737   1.000000
      8          5.107737   1.000000
      9          5.330065   1.000000
     10          5.330065   1.000000
     11          5.355476   1.000000
     12          5.355476   1.000000
     13          5.962212   1.000000
     14          5.962212   1.000000
     15          5.975522   1.000000
     16          5.975522   1.000000
     17          6.276283   1.000000
     18          6.276283   1.000000
     19          6.289077   1.000000
     20          6.289077   1.000000
     21          7.204298   1.000000
     22          7.204298   1.000000
     23          7.215231   1.000000
     24          7.215231   1.000000
     25          8.636600   1.000000
     26          8.636600   1.000000
     27          8.645608   1.000000
     28          8.645608   1.000000
     29          8.695718   1.000000
     30          8.695718   1.000000
     31          8.708533   1.000000
     32          8.708533   1.000000
     33          8.722502   1.000000
     34          8.722502   1.000000
     35          8.742492   1.000000
     36          8.742492   1.000000
     37          9.863771   1.000000
     38          9.863771   1.000000
     39          9.884022   1.000000
     40          9.884022   1.000000
     41         10.958455   0.000000
     42         10.958455   0.000000
     43         10.993502   0.000000
     44         10.993502   0.000000
     45         17.287177   0.000000
     46         17.287177   0.000000
     47         17.301430   0.000000
     48         17.301430   0.000000
     49         17.861485   0.000000
     50         17.861485   0.000000
     51         17.868880   0.000000
     52         17.868880   0.000000
     53         19.146785   0.000000
     54         19.146785   0.000000
     55         19.152981   0.000000
     56         19.152981   0.000000
     57         22.253520   0.000000
     58         22.253520   0.000000
     59         22.263653   0.000000
     60         22.263653   0.000000
     61         26.191467   0.000000
     62         26.191467   0.000000
     63         26.195614   0.000000
     64         26.195614   0.000000
     65         27.850034   0.000000
     66         27.850034   0.000000
     67         27.853721   0.000000
     68         27.853721   0.000000
     69         27.915960   0.000000
     70         27.915960   0.000000
     71         27.920175   0.000000
     72         27.920175   0.000000
     73         29.244285   0.000000
     74         29.244285   0.000000
     75         29.252864   0.000000
     76         29.252864   0.000000
     77         30.889504   0.000000
     78         30.889504   0.000000
     79         30.901048   0.000000
     80         30.901048   0.000000
     81         34.603323   0.000000
     82         34.603323   0.000000
     83         34.607715   0.000000
     84         34.607715   0.000000
     85         34.747768   0.000000
     86         34.747768   0.000000
     87         34.752288   0.000000
     88         34.752288   0.000000
     89         37.025674   0.000000
     90         37.025674   0.000000
     91         37.033381   0.000000
     92         37.033381   0.000000
     93         37.260845   0.000000
     94         37.260853   0.000000
     95         37.265185   0.000000
     96         37.265268   0.000000
 
  0.8333333E-01  0.8333333E-01  0.0000000E+00  0.3472222E-02
      1          0.898803   1.000000
      2          0.903989   1.000000
      3          3.894883   1.000000
      4          3.894883   1.000000
      5          3.909293   1.000000
      6          3.909294   1.000000
      7          3.918601   1.000000
      8          3.933391   1.000000
      9          4.296632   1.000000
     10          4.296632   1.000000
     11          4.320311   1.000000
     12          4.320952   1.000000
     13          4.320952   1.000000
     14          4.344333   1.000000
     15          6.448278   1.000000
     16          6.463981   1.000000
     17          6.520093   1.000000
     18          6.540721   1.000000
     19          7.486512   1.000000
     20          7.499075   1.000000
     21          9.055685   1.000000
     22          9.074750   1.000000
     23          9.149156   1.000000
     24          9.168839   1.000000
     25          9.781217   1.000000
     26          9.803751   1.000000
     27          9.872036   1.000000
     28          9.872040   1.000000
     29          9.890401   1.000000
     30          9.890406   1.000000
     31         10.224033   1.000000
     32         10.229738   1.000000
     33         10.291007   1.000000
     34         10.291007   1.000000
     35         10.312572   1.000000
     36         10.312573   1.000000
     37         11.124795   0.000000
     38         11.124800   0.000000
     39         11.138243   0.000000
     40         11.143512   0.000000
     41         11.143516   0.000000
     42         11.156813   0.000000
     43         12.475382   0.000000
     44         12.475384   0.000000
     45         12.489611   0.000000
     46         12.489613   0.000000
     47         13.298503   0.000000
     48         13.311716   0.000000
     49         18.548219   0.000000
     50         18.563443   0.000000
     51         19.257153   0.000000
     52         19.257154   0.000000
     53         19.271669   0.000000
     54         19.271670   0.000000
     55         21.087808   0.000000
     56         21.093276   0.000000
     57         21.398517   0.000000
     58         21.398529   0.000000
     59         21.401715   0.000000
     60         21.401727   0.000000
     61         22.521111   0.000000
     62         22.524772   0.000000
     63         22.642300   0.000000
     64         22.642307   0.000000
     65         22.645259   0.000000
     66         22.645266   0.000000
     67         25.501518   0.000000
     68         25.506168   0.000000
     69         28.949866   0.000000
     70         28.951879   0.000000
     71         29.901213   0.000000
     72         29.903510   0.000000
     73         30.349008   0.000000
     74         30.349008   0.000000
     75         30.355646   0.000000
     76         30.355646   0.000000
     77         30.421361   0.000000
     78         30.423897   0.000000
     79         30.641522   0.000000
     80         30.648480   0.000000
     81         33.104291   0.000000
     82         33.104291   0.000000
     83         33.115581   0.000000
     84         33.115582   0.000000
     85         33.291439   0.000000
     86         33.302453   0.000000
     87         36.123431   0.000000
     88         36.124508   0.000000
     89         38.610343   0.000000
     90         38.621611   0.000000
     91         38.807390   0.000000
     92         38.807391   0.000000
     93         38.818749   0.000000
     94         38.818749   0.000000
     95         38.850723   0.000000
     96         38.854026   0.000000
 
 -0.8333333E-01  0.8333333E-01  0.0000000E+00  0.3472222E-02
      1          0.898805   1.000000
      2          0.903987   1.000000
      3          3.894881   1.000000
      4          3.894881   1.000000
      5          3.909296   1.000000
      6          3.909296   1.000000
      7          3.918653   1.000000
      8          3.933338   1.000000
      9          4.296629   1.000000
     10          4.296630   1.000000
     11          4.320260   1.000000
     12          4.320954   1.000000
     13          4.320954   1.000000
     14          4.344385   1.000000
     15          6.446324   1.000000
     16          6.465300   1.000000
     17          6.528447   1.000000
     18          6.532952   1.000000
     19          7.489047   1.000000
     20          7.496587   1.000000
     21          9.055932   1.000000
     22          9.074329   1.000000