Unloading intel-oneapi-compilers/2021.4.0
  Unloading dependent: vasp/6.4.3 intel-mpi/2019-intel
  Unloading useless requirement: wannier90/3.1.0-intel21-impi
intel-mpi: using intel wrappers for mpicc, mpif77, etc

Loading vasp/6.4.3
  Loading requirement: wannier90/3.1.0-intel21-impi
    intel-oneapi-compilers/2021.4.0 intel-mpi/2019-intel intel-mkl/2020
 running   48 mpi-ranks, with    1 threads/rank, on    4 nodes
 distrk:  each k-point on   48 cores,    1 groups
 distr:  one band on    1 cores,   48 groups
 vasp.6.4.3 19Mar24 (build Jun 27 2024 09:34:32) complex                        
  
 POSCAR found type information on POSCAR Pt
 POSCAR found :  1 types and       4 ions
 -----------------------------------------------------------------------------
|                                                                             |
|           W    W    AA    RRRRR   N    N  II  N    N   GGGG   !!!           |
|           W    W   A  A   R    R  NN   N  II  NN   N  G    G  !!!           |
|           W    W  A    A  R    R  N N  N  II  N N  N  G       !!!           |
|           W WW W  AAAAAA  RRRRR   N  N N  II  N  N N  G  GGG   !            |
|           WW  WW  A    A  R   R   N   NN  II  N   NN  G    G                |
|           W    W  A    A  R    R  N    N  II  N    N   GGGG   !!!           |
|                                                                             |
|     You use a magnetic or noncollinear calculation, but did not specify     |
|     the initial magnetic moment with the MAGMOM tag. Note that a            |
|     default of 1 will be used for all atoms. This ferromagnetic setup       |
|     may break the symmetry of the crystal, in particular it may rule        |
|     out finding an antiferromagnetic solution. Thence, we recommend         |
|     setting the initial magnetic moment manually or verifying carefully     |
|     that this magnetic setup is desired.                                    |
|                                                                             |
 -----------------------------------------------------------------------------

 scaLAPACK will be used
 LDA part: xc-table for (Slater+PW92), standard interpolation
 POSCAR, INCAR and KPOINTS ok, starting setup
 FFT: planning ... GRIDC
 FFT: planning ... GRID_SOFT
 FFT: planning ... GRID
 WAVECAR not read
 entering main loop
       N       E                     dE             d eps       ncg     rms          rms(c)
DAV:   1     0.109307886198E+03    0.10931E+03   -0.13923E+04 58560   0.507E+02
DAV:   2    -0.249744226203E+02   -0.13428E+03   -0.12883E+03 79488   0.138E+02
DAV:   3    -0.265008773360E+02   -0.15265E+01   -0.15255E+01 73632   0.142E+01
DAV:   4    -0.265088365305E+02   -0.79592E-02   -0.79591E-02 81744   0.117E+00
DAV:   5    -0.265089182378E+02   -0.81707E-04   -0.81708E-04 70080   0.113E-01    0.273E+01
DAV:   6    -0.260873933607E+02    0.42152E+00   -0.32022E+00 81792   0.679E+00    0.151E+01
DAV:   7    -0.259959708450E+02    0.91423E-01   -0.47045E-01 77424   0.264E+00    0.804E+00
DAV:   8    -0.259876829520E+02    0.82879E-02   -0.23838E-02 76032   0.511E-01    0.277E+00
DAV:   9    -0.259822754368E+02    0.54075E-02   -0.19890E-02 73920   0.546E-01    0.398E-01
DAV:  10    -0.259826962657E+02   -0.42083E-03   -0.12717E-03 75072   0.134E-01    0.931E-02
DAV:  11    -0.259824861106E+02    0.21016E-03   -0.10673E-04 72240   0.396E-02    0.638E-02
DAV:  12    -0.259825186428E+02   -0.32532E-04   -0.31600E-05 59424   0.197E-02
   1 F= -.25982519E+02 E0= -.25976862E+02  d E =-.113129E-01  mag=     0.0851     0.0851     0.0851
 Start KPOINTS_OPT (optional k-point list driver)
k-point batch [1-147\147]
       N       E                     dE             ncg
DAV:   1     0.635308660885E+05   -0.37239E+05    28560
DAV:   2     0.434716325663E+05   -0.20059E+05    40704
DAV:   3     0.432389917099E+05   -0.23264E+03    37728
DAV:   4     0.432374963947E+05   -0.14953E+01    39072
DAV:   5     0.432374777688E+05   -0.18626E-01    36816
DAV:   6     0.432374775392E+05   -0.22964E-03    31152
DAV:   7     0.432374775123E+05   -0.26838E-04    29280
 writing wavefunctions
