Zn                                      
   1.00000000000000     
     2.661690    0.000000    0.000000
     1.330845    2.305091    0.000000
     0.000000    0.000000    5.003970
   Zn
     2
Direct
  0.000000  0.000000  0.000000
  0.333333  0.333333  0.500000
 
   24   24   48
  600.48      568.03      479.88      359.74      236.23      133.14      63.215      26.749      14.041      10.747    
  8.7693      7.6918      7.3579      7.6918      8.7693      10.747      14.041      26.749      63.215      133.14    
  236.23      359.74      479.88      568.03      568.03      507.76      404.07      283.52      172.48      89.009    
  39.171      17.708      11.961      9.5806      8.1112      7.4449      7.4453      8.1118      9.5803      11.960    
  17.709      39.173      89.012      172.48      283.52      404.06      507.76      568.02      479.88      404.07    
  301.03      195.76      108.94      51.338      22.515      13.140      10.356      8.5568      7.5913      7.2939    
  7.5914      8.5567      10.356      13.139      22.516      51.340      108.94      195.76      301.03      404.06    
  479.88      507.83      359.74      283.52      195.76      116.44      58.880      26.691      14.380      10.993    
  8.9634      7.7599      7.2238      7.2236      7.7596      8.9635      10.993      14.379      26.690      58.879    
  116.44      195.77      283.52      359.74      404.22      404.22      236.23      172.48      108.94      58.880    
  28.348      15.237      11.409      9.2718      7.9092      7.2028      6.9881      7.2029      7.9095      9.2724    
  11.410      15.235      28.345      58.877      108.94      172.49      236.24      283.73      301.33      283.73    
  133.14      89.009      51.338      26.691      15.237      11.554      9.4377      8.0096      7.2024      6.8495    
  6.8495      7.2025      8.0101      9.4388      11.555      15.236      26.689      51.335      89.008      133.14    
  172.68      196.10      196.10      172.68      63.215      39.171      22.515      14.380      11.409      9.4377    
  8.0446      7.2053      6.7785      6.6490      6.7781      7.2048      8.0446      9.4389      11.412      14.382    
  22.516      39.169      63.212      89.133      109.20      116.76      109.20      89.137      26.749      17.708    
  13.140      10.993      9.2718      8.0096      7.2053      6.7566      6.5599      6.5599      6.7561      7.2041    
  8.0083      9.2720      10.995      13.143      17.711      26.748      39.218      51.468      59.074      59.076    
  51.473      39.222      14.041      11.961      10.356      8.9634      7.9092      7.2024      6.7785      6.5599    
  6.4934      6.5603      6.7785      7.2011      7.9069      8.9613      10.356      11.963      14.044      17.702    
  22.531      26.740      28.412      26.740      22.531      17.700      10.747      9.5806      8.5568      7.7599    
  7.2028      6.8495      6.6490      6.5599      6.5603      6.6503      6.8509      7.2028      7.7576      8.5530    
  9.5778      10.748      11.917      13.078      14.316      15.176      15.175      14.313      13.074      11.913    
  8.7693      8.1112      7.5913      7.2238      6.9881      6.8495      6.7781      6.7561      6.7785      6.8509    
  6.9903      7.2258      7.5914      8.1088      8.7657      9.5049      10.233      10.843      11.247      11.387    
  11.244      10.841      10.232      9.5074      7.6918      7.4449      7.2939      7.2236      7.2029      7.2025    
  7.2048      7.2041      7.2011      7.2028      7.2258      7.2977      7.4477      7.6917      8.0186      8.3887    
  8.7432      9.0204      9.1716      9.1714      9.0207      8.7454      8.3924      8.0216      7.3579      7.4453    
  7.5914      7.7596      7.9095      8.0101      8.0446      8.0083      7.9069      7.7576      7.5914      7.4477    
  7.3614      7.3493      7.4034      7.4962      7.5922      7.6619      7.6877      7.6637      7.5949      7.4982    
  7.4034      7.3468      7.6918      8.1118      8.5567      8.9635      9.2724      9.4388      9.4389      9.2720    
  8.9613      8.5530      8.1088      7.6917      7.3493      7.1020      6.9434      6.8510      6.8016      6.7804    
  6.7811      6.8029      6.8512      6.9412      7.0983      7.3464      8.7693      9.5803      10.356      10.993    
  11.410      11.555      11.412      10.995      10.356      9.5778      8.7657      8.0186      7.4034      6.9434    
  6.6264      6.4251      6.3145      6.2791      6.3141      6.4238      6.6242      6.9414      7.4033      8.0210    
  10.747      11.960      13.139      14.379      15.235      15.236      14.382      13.143      11.963      10.748    
  9.5049      8.3887      7.4962      6.8510      6.4251      6.1729      6.0566      6.0561      6.1716      6.4238    
  6.8511      7.4985      8.3925      9.5077      14.041      17.709      22.516      26.690      28.345      26.689    
  22.516      17.711      14.044      11.917      10.233      8.7432      7.5922      6.8016      6.3145      6.0566    
  5.9762      6.0562      6.3145      6.8028      7.5945      8.7453      10.233      11.914      26.749      39.173    
  51.340      58.879      58.877      51.335      39.169      26.748      17.702      13.078      10.843      9.0204    
  7.6619      6.7804      6.2791      6.0561      6.0562      6.2797      6.7816      7.6632      9.0202      10.841    
  13.074      17.700      63.215      89.012      108.94      116.44      108.94      89.008      63.212      39.218    
  22.531      14.316      11.247      9.1716      7.6877      6.7811      6.3141      6.1716      6.3145      6.7816    
  7.6876      9.1704      11.244      14.314      22.531      39.220      133.14      172.48      195.76      195.77    
  172.49      133.14      89.133      51.468      26.740      15.176      11.387      9.1714      7.6637      6.8029    
  6.4238      6.4238      6.8028      7.6632      9.1704      11.386      15.176      26.742      51.471      89.135    
  236.23      283.52      301.03      283.52      236.24      172.68      109.20      59.074      28.412      15.175    
  11.244      9.0207      7.5949      6.8512      6.6242      6.8511      7.5945      9.0202      11.244      15.176    
  28.415      59.077      109.20      172.68      359.74      404.06      404.06      359.74      283.73      196.10    
  116.76      59.076      26.740      14.313      10.841      8.7454      7.4982      6.9412      6.9414      7.4985    
  8.7453      10.841      14.314      26.742      59.077      116.76      196.10      283.73      479.88      507.76    
  479.88      404.22      301.33      196.10      109.20      51.473      22.531      13.074      10.232      8.3924    
  7.4034      7.0983      7.4033      8.3925      10.233      13.074      22.531      51.471      109.20      196.10    
  301.33      404.23      568.03      568.02      507.83      404.22      283.73      172.68      89.137      39.222    
  17.700      11.913      9.5074      8.0216      7.3468      7.3464      8.0210      9.5077      11.914      17.700    
  39.220      89.135      172.68      283.73      404.23      507.83      572.02      540.95      456.61      341.71    
  223.77      125.64      59.475      25.362      13.705      10.578      8.6473      7.6009      7.2763      7.5994    
  8.6472      10.579      13.705      25.361      59.474      125.64      223.77      341.71      456.61      540.96    
  540.95      483.28      384.09      268.90      163.04      83.816      36.920      17.046      11.771      9.4394    
  8.0101      7.3633      7.3627      8.0096      9.4401      11.772      17.045      36.921      83.820      163.04    
  268.90      384.08      483.28      540.95      456.61      384.09      285.62      185.21      102.68      48.314    
  21.456      12.886      10.199      8.4444      7.5071      7.2180      7.5059      8.4443      10.200      12.886    
  21.455      48.316      102.69      185.21      285.61      384.08      456.60      483.35      341.71      268.90    
  185.21      109.80      55.399      25.313      14.018      10.825      8.8412      7.6714      7.1511      7.1501    
  7.6703      8.8420      10.825      14.016      25.311      55.399      109.80      185.21      268.90      341.71    
  384.23      384.23      223.77      163.04      102.68      55.399      26.847      14.797      11.236      9.1428    
  7.8164      7.1308      6.9219      7.1300      7.8167      9.1441      11.235      14.794      26.845      55.397    
  102.68      163.04      223.78      269.10      285.90      269.09      125.64      83.816      48.314      25.313    
  14.797      11.378      9.3053      7.9139      7.1297      6.7870      6.7865      7.1293      7.9149      9.3068    
  11.379      14.796      25.311      48.311      83.815      125.64      163.22      185.52      185.52      163.22    
  59.475      36.920      21.456      14.018      11.236      9.3053      7.9478      7.1319      6.7172      6.5911    
  6.7163      7.1315      7.9485      9.3068      11.237      14.020      21.456      36.918      59.471      83.929    
  102.92      110.09      102.92      83.932      25.362      17.046      12.886      10.825      9.1428      7.9139    
  7.1319      6.6957      6.5041      6.5037      6.6949      7.1310      7.9132      9.1433      10.827      12.890    
  17.048      25.361      36.959      48.427      55.571      55.573      48.431      36.964      13.705      11.771    
  10.199      8.8412      7.8164      7.1297      6.7172      6.5041      6.4389      6.5042      6.7170      7.1284    
  7.8142      8.8394      10.199      11.774      13.708      17.034      21.460      25.345      26.894      25.346    
  21.461      17.032      10.578      9.4394      8.4444      7.6714      7.1308      6.7870      6.5911      6.5037    
  6.5042      6.5923      6.7880      7.1302      7.6687      8.4407      9.4373      10.579      11.724      12.816    
  13.943      14.722      14.721      13.940      12.813      11.721      8.6473      8.0101      7.5071      7.1511    
  6.9219      6.7865      6.7163      6.6949      6.7170      6.7880      6.9240      7.1526      7.5066      8.0072    
  8.6437      9.3615      10.070      10.667      11.062      11.199      11.060      10.664      10.069      9.3634    
  7.6009      7.3633      7.2180      7.1501      7.1300      7.1293      7.1315      7.1310      7.1284      7.1302    
  7.1526      7.2217      7.3658      7.6001      7.9147      8.2718      8.6146      8.8829      9.0295      9.0292    
  8.8827      8.6160      8.2753      7.9182      7.2763      7.3627      7.5059      7.6703      7.8167      7.9149    
  7.9485      7.9132      7.8142      7.6687      7.5066      7.3658      7.2797      7.2650      7.3145      7.4014    
  7.4921      7.5579      7.5822      7.5595      7.4946      7.4037      7.3151      7.2633      7.5994      8.0096    
  8.4443      8.8420      9.1441      9.3068      9.3068      9.1433      8.8394      8.4407      8.0072      7.6001    
  7.2650      7.0220      6.8648      6.7718      6.7211      6.6990      6.6999      6.7228      6.7724      6.8630    
  7.0184      7.2618      8.6472      9.4401      10.200      10.825      11.235      11.379      11.237      10.827    
  10.199      9.4373      8.6437      7.9147      7.3145      6.8648      6.5537      6.3552      6.2455      6.2106    
  6.2454      6.3542      6.5516      6.8624      7.3137      7.9165      10.579      11.772      12.886      14.016    
  14.794      14.796      14.020      12.890      11.774      10.579      9.3615      8.2718      7.4014      6.7718    
  6.3552      6.1077      5.9933      5.9928      6.1064      6.3537      6.7714      7.4032      8.2754      9.3648    
  13.705      17.045      21.455      25.311      26.845      25.311      21.456      17.048      13.708      11.724    
  10.070      8.6146      7.4921      6.7211      6.2455      5.9933      5.9144      5.9925      6.2452      6.7222    
  7.4943      8.6167      10.071      11.723      25.361      36.921      48.316      55.399      55.397      48.311    
  36.918      25.361      17.034      12.816      10.667      8.8829      7.5579      6.6990      6.2106      5.9928    
  5.9925      6.2107      6.7005      7.5597      8.8830      10.665      12.813      17.031      59.474      83.820    
  102.69      109.80      102.68      83.815      59.471      36.959      21.460      13.943      11.062      9.0295    
  7.5822      6.6999      6.2454      6.1064      6.2452      6.7005      7.5831      9.0287      11.059      13.940    
  21.460      36.960      125.64      163.04      185.21      185.21      163.04      125.64      83.929      48.427    
  25.345      14.722      11.199      9.0292      7.5595      6.7228      6.3542      6.3537      6.7222      7.5597    
  9.0287      11.198      14.721      25.347      48.430      83.930      223.77      268.90      285.61      268.90    
  223.78      163.22      102.92      55.571      26.894      14.721      11.060      8.8827      7.4946      6.7724    
  6.5516      6.7714      7.4943      8.8830      11.059      14.721      26.897      55.575      102.92      163.22    
  341.71      384.08      384.08      341.71      269.10      185.52      110.09      55.573      25.346      13.940    
  10.664      8.6160      7.4037      6.8630      6.8624      7.4032      8.6167      10.665      13.940      25.347    
  55.575      110.09      185.52      269.09      456.61      483.28      456.60      384.23      285.90      185.52    
  102.92      48.431      21.461      12.813      10.069      8.2753      7.3151      7.0184      7.3137      8.2754    
  10.071      12.813      21.460      48.430      102.92      185.52      285.90      384.24      540.96      540.95    
  483.35      384.23      269.09      163.22      83.932      36.964      17.032      11.721      9.3634      7.9182    
  7.2633      7.2618      7.9165      9.3648      11.723      17.031      36.960      83.930      163.22      269.09    
  384.24      483.35      493.71      466.48      392.63      292.25      189.76      105.34      49.525      21.788    
  12.848      10.090      8.2972      7.3382      7.0411      7.3352      8.2971      10.093      12.848      21.785    
  49.524      105.34      189.76      292.25      392.63      466.49      466.48      415.98      329.24      228.89    
  137.37      69.884      31.025      15.372      11.223      9.0349      7.7185      7.1272      7.1256      7.7170    
  9.0366      11.225      15.370      31.025      69.888      137.37      228.89      329.23      415.97      466.48    
  392.63      329.24      243.42      156.45      85.827      40.319      18.750      12.218      9.7470      8.1214    
  7.2628      6.9982      7.2604      8.1214      9.7492      12.218      18.748      40.321      85.832      156.45    
  243.42      329.23      392.62      416.03      292.25      228.89      156.45      91.863      46.160      21.761    
  13.100      10.339      8.4903      7.4152      6.9394      6.9377      7.4135      8.4919      10.340      13.098    
  21.759      46.163      91.867      156.45      228.89      292.25      329.36      329.36      189.76      137.37    
  85.827      46.160      22.972      13.688      10.731      8.7721      7.5489      6.9208      6.7293      6.9192    
  7.5492      8.7740      10.730      13.684      22.969      46.160      85.828      137.37      189.76      229.05    
  243.65      229.04      105.34      69.884      40.319      21.761      13.688      10.867      8.9245      7.6386    
  6.9185      6.6042      6.6032      6.9177      7.6400      8.9262      10.867      13.686      21.759      40.317    
  69.882      105.34      137.52      156.70      156.70      137.51      49.525      31.025      18.750      13.100    
  10.731      8.9245      7.6698      6.9195      6.5382      6.4218      6.5369      6.9191      7.6712      8.9260    
  10.732      13.101      18.750      31.023      49.521      69.966      86.006      92.085      86.006      69.968    
  21.788      15.372      12.218      10.339      8.7721      7.6386      6.9195      6.5174      6.3402      6.3397    
  6.5165      6.9189      7.6385      8.7728      10.342      12.222      15.374      21.786      31.042      40.388    
  46.273      46.274      40.392      31.047      12.848      11.223      9.7470      8.4903      7.5489      6.9185    
  6.5382      6.3402      6.2793      6.3402      6.5378      6.9173      7.5469      8.4891      9.7482      11.227    
  12.851      15.346      18.724      21.751      22.970      21.752      18.726      15.345      10.090      9.0349    
  8.1214      7.4152      6.9208      6.6042      6.4218      6.3397      6.3402      6.4229      6.6048      6.9198    
  7.4123      8.1180      9.0334      10.092      11.167      12.128      12.994      13.577      13.577      12.993    
  12.125      11.164      8.2972      7.7185      7.2628      6.9394      6.7293      6.6032      6.5369      6.5165    
  6.5378      6.6048      6.7310      6.9403      7.2618      7.7155      8.2939      8.9503      9.6036      10.158    
  10.528      10.657      10.526      10.155      9.6020      8.9516      7.3382      7.1272      6.9982      6.9377    
  6.9192      6.9177      6.9191      6.9189      6.9173      6.9198      6.9403      7.0017      7.1290      7.3366    
  7.6168      7.9368      8.2458      8.4890      8.6224      8.6218      8.4883      8.2465      7.9398      7.6206    
  7.0411      7.1256      7.2604      7.4135      7.5492      7.6400      7.6712      7.6385      7.5469      7.4123    
  7.2618      7.1290      7.0443      7.0227      7.0589      7.1296      7.2051      7.2604      7.2809      7.2618    
  7.2074      7.1320      7.0602      7.0218      7.3352      7.7170      8.1214      8.4919      8.7740      8.9262    
  8.9260      8.7728      8.4891      8.1180      7.7155      7.3366      7.0227      6.7918      6.6384      6.5440    
  6.4900      6.4655      6.4664      6.4919      6.5450      6.6372      6.7886      7.0194      8.2971      9.0366    
  9.7492      10.340      10.730      10.867      10.732      10.342      9.7482      9.0334      8.2939      7.6168    
  7.0589      6.6384      6.3441      6.1534      6.0466      6.0123      6.0468      6.1528      6.3421      6.6358    
  7.0576      7.6180      10.093      11.225      12.218      13.098      13.684      13.686      13.101      12.222    
  11.227      10.092      8.9503      7.9368      7.1296      6.5440      6.1534      5.9191      5.8099      5.8094    
  5.9179      6.1519      6.5431      7.1306      7.9399      8.9539      12.848      15.370      18.748      21.759    
  22.969      21.759      18.750      15.374      12.851      11.167      9.6036      8.2458      7.2051      6.4900    
  6.0466      5.8099      5.7354      5.8089      6.0461      6.4909      7.2071      8.2479      9.6050      11.166    
  21.785      31.025      40.321      46.163      46.160      40.317      31.023      21.786      15.346      12.128    
  10.158      8.4890      7.2604      6.4655      6.0123      5.8094      5.8089      6.0120      6.4670      7.2626    
  8.4894      10.156      12.126      15.343      49.524      69.888      85.832      91.867      85.828      69.882    
  49.521      31.042      18.724      12.994      10.528      8.6224      7.2809      6.4664      6.0468      5.9179    
  6.0461      6.4670      7.2825      8.6219      10.525      12.992      18.724      31.043      105.34      137.37    
  156.45      156.45      137.37      105.34      69.966      40.388      21.751      13.577      10.657      8.6218    
  7.2618      6.4919      6.1528      6.1519      6.4909      7.2626      8.6219      10.655      13.575      21.753    
  40.391      69.967      189.76      228.89      243.42      228.89      189.76      137.52      86.006      46.273    
  22.970      13.577      10.526      8.4883      7.2074      6.5450      6.3421      6.5431      7.2071      8.4894    
  10.525      13.575      22.973      46.278      86.007      137.51      292.25      329.23      329.23      292.25    
  229.05      156.70      92.085      46.274      21.752      12.993      10.155      8.2465      7.1320      6.6372    
  6.6358      7.1306      8.2479      10.156      12.992      21.753      46.278      92.086      156.70      229.05    
  392.63      415.97      392.62      329.36      243.65      156.70      86.006      40.392      18.726      12.125    
  9.6020      7.9398      7.0602      6.7886      7.0576      7.9399      9.6050      12.126      18.724      40.391    
  86.007      156.70      243.64      329.36      466.49      466.48      416.03      329.36      229.04      137.51    
  69.968      31.047      15.345      11.164      8.9516      7.6206      7.0218      7.0194      7.6180      8.9539    
  11.166      15.343      31.043      69.967      137.51      229.05      329.36      416.03      384.08      362.29    
  303.32      223.58      143.02      78.013      36.634      17.460      11.758      9.3432      7.7650      6.9359    
  6.6798      6.9318      7.7648      9.3471      11.758      17.456      36.633      78.016      143.02      223.58    
  303.32      362.30      362.29      321.94      252.90      173.65      102.47      51.479      23.642      13.407    
  10.373      8.4190      7.2734      6.7640      6.7616      7.2711      8.4215      10.376      13.404      23.641    
  51.483      102.48      173.64      252.89      321.94      362.29      303.32      252.90      185.07      117.18    
  63.336      30.102      15.528      11.282      9.0560      7.6293      6.8873      6.6591      6.8840      7.6294    
  9.0592      11.282      15.525      30.104      63.342      117.18      185.06      252.89      303.32      321.98    
  223.58      173.65      117.18      67.865      34.245      17.465      11.962      9.5914      7.9560      7.0224    
  6.6119      6.6097      7.0203      7.9582      9.5933      11.960      17.462      34.249      67.869      117.18    
  173.64      223.58      252.98      252.98      143.02      102.47      63.336      34.245      18.255      12.359    
  9.9490      8.2069      7.1398      6.5961      6.4301      6.5939      7.1400      8.2093      9.9485      12.355    
  18.253      34.247      63.337      102.47      143.03      173.75      185.22      173.75      78.013      51.479    
  30.102      17.465      12.359      10.075      8.3434      7.2184      6.5927      6.3196      6.3184      6.5915    
  7.2200      8.3452      10.074      12.356      17.463      30.101      51.478      78.016      102.56      117.34    
  117.34      102.56      36.634      23.642      15.528      11.962      9.9490      8.3434      7.2457      6.5922    
  6.2595      6.1575      6.2580      6.5920      7.2474      8.3448      9.9496      11.963      15.528      23.640    
  36.631      51.520      63.436      67.990      63.435      51.521      17.460      13.407      11.282      9.5914    
  8.2069      7.2184      6.5922      6.2402      6.0840      6.0834      6.2393      6.5919      7.2187      8.2078    
  9.5937      11.285      13.408      17.458      23.631      30.112      34.278      34.279      30.116      23.636    
  11.758      10.373      9.0560      7.9560      7.1398      6.5927      6.2595      6.0840      6.0295      6.0838    
  6.2591      6.5916      7.1382      7.9553      9.0576      10.377      11.761      13.362      15.463      17.397    
  18.190      17.399      15.465      13.362      9.3432      8.4190      7.6293      7.0224      6.5961      6.3196    
  6.1575      6.0834      6.0838      6.1584      6.3198      6.5948      7.0196      7.6265      8.4183      9.3452    
  10.304      11.164      11.815      12.199      12.199      11.814      11.161      10.300      7.7650      7.2734    
  6.8873      6.6119      6.4301      6.3184      6.2580      6.2393      6.2591      6.3198      6.4314      6.6122    
  6.8859      7.2703      7.7621      8.3249      8.8913      9.3778      9.7059      9.8210      9.7038      9.3747    
  8.8892      8.3254      6.9359      6.7640      6.6591      6.6097      6.5939      6.5915      6.5920      6.5919    
  6.5916      6.5948      6.6122      6.6621      6.7651      6.9337      7.1633      7.4280      7.6860      7.8909    
  8.0039      8.0033      7.8898      7.6861      7.4304      7.1670      6.6798      6.7616      6.8840      7.0203    
  7.1400      7.2200      7.2474      7.2187      7.1382      7.0196      6.8859      6.7651      6.6824      6.6512    
  6.6682      6.7151      6.7685      6.8086      6.8235      6.8096      6.7704      6.7174      6.6699      6.6511    
  6.9318      7.2711      7.6294      7.9582      8.2093      8.3452      8.3448      8.2078      7.9553      7.6265    
  7.2703      6.9337      6.6512      6.4381      6.2905      6.1943      6.1359      6.1082      6.1091      6.1378    
  6.1956      6.2899      6.4355      6.6480      7.7648      8.4215      9.0592      9.5933      9.9485      10.074    
  9.9496      9.5937      9.0576      8.4183      7.7621      7.1633      6.6682      6.2905      6.0209      5.8419    
  5.7394      5.7063      5.7399      5.8418      6.0193      6.2879      6.6664      7.1638      9.3471      10.376    
  11.282      11.960      12.355      12.356      11.963      11.285      10.377      9.3452      8.3249      7.4280    
  6.7151      6.1943      5.8419      5.6268      5.5252      5.5249      5.6259      5.8405      6.1931      6.7154    
  7.4305      8.3284      11.758      13.404      15.525      17.462      18.253      17.463      15.528      13.408    
  11.761      10.304      8.8913      7.6860      6.7685      6.1359      5.7394      5.5252      5.4572      5.5241    
  5.7388      6.1366      6.7702      7.6880      8.8931      10.304      17.456      23.641      30.104      34.249    
  34.247      30.101      23.640      17.458      13.362      11.164      9.3778      7.8909      6.8086      6.1082    
  5.7063      5.5249      5.5241      5.7056      6.1097      6.8109      7.8916      9.3765      11.162      13.360    
  36.633      51.483      63.342      67.869      63.337      51.478      36.631      23.631      15.463      11.815    
  9.7059      8.0039      6.8235      6.1091      5.7399      5.6259      5.7388      6.1097      6.8256      8.0038    
  9.7030      11.813      15.462      23.632      78.016      102.48      117.18      117.18      102.47      78.016    
  51.520      30.112      17.397      12.199      9.8210      8.0033      6.8096      6.1378      5.8418      5.8405    
  6.1366      6.8109      8.0038      9.8182      12.196      17.399      30.116      51.521      143.02      173.64    
  185.06      173.64      143.03      102.56      63.436      34.278      18.190      12.199      9.7038      7.8898    
  6.7704      6.1956      6.0193      6.1931      6.7702      7.8916      9.7030      12.196      18.192      34.284    
  63.437      102.56      223.58      252.89      252.89      223.58      173.75      117.34      67.990      34.279    
  17.399      11.814      9.3747      7.6861      6.7174      6.2899      6.2879      6.7154      7.6880      9.3765    
  11.813      17.399      34.284      67.992      117.34      173.75      303.32      321.94      303.32      252.98    
  185.22      117.34      63.435      30.116      15.465      11.161      8.8892      7.4304      6.6699      6.4355    
  6.6664      7.4305      8.8931      11.162      15.462      30.116      63.437      117.34      185.21      252.98    
  362.30      362.29      321.98      252.98      173.75      102.56      51.521      23.636      13.362      10.300    
  8.3254      7.1670      6.6511      6.6480      7.1638      8.3284      10.304      13.360      23.632      51.521    
  102.56      173.75      252.98      321.99      266.56      250.76      208.17      151.18      94.734      50.811    
  24.644      13.835      10.514      8.4287      7.1174      6.4409      6.2323      6.4361      7.1172      8.4333    
  10.514      13.830      24.642      50.814      94.734      151.18      208.18      250.77      250.76      221.59    
  172.05      116.02      67.088      33.762      17.159      11.710      9.3185      7.6701      6.7293      6.3148    
  6.3119      6.7263      7.6730      9.3212      11.707      17.157      33.766      67.091      116.02      172.04    
  221.60      250.76      208.17      172.05      124.02      77.047      41.298      20.823      12.864      10.119    
  8.2123      7.0305      6.4250      6.2388      6.4211      7.0306      8.2162      10.119      12.861      20.825    
  41.304      77.047      124.02      172.04      208.17      221.61      151.18      116.02      77.047      44.220    
  23.250      13.872      10.722      8.6730      7.3071      6.5412      6.2060      6.2036      6.5389      7.3096    
  8.6752      10.719      13.870      23.254      44.224      77.045      116.02      151.18      172.09      172.09    
  94.734      67.088      41.298      23.250      14.286      11.045      8.9837      7.5206      6.6408      6.1949    
  6.0583      6.1923      6.6409      7.5232      8.9832      11.041      14.285      23.252      41.299      67.088    
  94.737      116.08      124.10      116.07      50.811      33.762      20.823      13.872      11.045      9.0935    
  7.6373      6.7072      6.1916      5.9658      5.9644      6.1902      6.7087      7.6390      9.0920      11.042    
  13.871      20.822      33.762      50.814      67.127      77.118      77.114      67.121      24.644      17.159    