Zn                                      
   1.00000000000000     
     2.661690    0.000000    0.000000
     1.330845    2.305091    0.000000
     0.000000    0.000000    5.003970
   Zn
     2
Direct
  0.000000  0.000000  0.000000
  0.333333  0.333333  0.500000
 
   24   24   48
 0.60047930522E+03 0.56802502351E+03 0.47988318514E+03 0.35973815228E+03 0.23623391195E+03
 0.13314233311E+03 0.63215441632E+02 0.26748798017E+02 0.14040620429E+02 0.10747281823E+02
 0.87693123246E+01 0.76917731129E+01 0.73578832074E+01 0.76917752100E+01 0.87693132974E+01
 0.10747280610E+02 0.14040620053E+02 0.26748800400E+02 0.63215443167E+02 0.13314232868E+03
 0.23623390254E+03 0.35973814502E+03 0.47988318466E+03 0.56802502637E+03 0.56802502351E+03
 0.50776460381E+03 0.40406648055E+03 0.28352007304E+03 0.17248324307E+03 0.89009107489E+02
 0.39170942973E+02 0.17708452096E+02 0.11960598693E+02 0.95805735886E+01 0.81111825942E+01
 0.74448545216E+01 0.74452868896E+01 0.81117636779E+01 0.95802564597E+01 0.11959752913E+02
 0.17708720449E+02 0.39173166231E+02 0.89011883233E+02 0.17248397434E+03 0.28351738353E+03
 0.40406146058E+03 0.50775992957E+03 0.56802314924E+03 0.47988318514E+03 0.40406648055E+03
 0.30102737861E+03 0.19576313544E+03 0.10894000146E+03 0.51338206891E+02 0.22515145219E+02
 0.13139809270E+02 0.10355997355E+02 0.85567593108E+01 0.75913318607E+01 0.72939255702E+01
 0.75913983129E+01 0.85566730144E+01 0.10355583030E+02 0.13139362179E+02 0.22515509829E+02
 0.51339991537E+02 0.10894243392E+03 0.19576404900E+03 0.30102503218E+03 0.40406168711E+03
 0.47987925165E+03 0.50782993785E+03 0.35973815228E+03 0.28352007304E+03 0.19576313544E+03
 0.11644110775E+03 0.58879545416E+02 0.26691095965E+02 0.14379808566E+02 0.10992841258E+02
 0.89633954873E+01 0.77599000436E+01 0.72238262825E+01 0.72236156033E+01 0.77596294568E+01
 0.89634755357E+01 0.10992838315E+02 0.14378941590E+02 0.26689601087E+02 0.58878853330E+02
 0.11644229852E+03 0.19576562277E+03 0.28352227310E+03 0.35973919892E+03 0.40422190033E+03
 0.40422167848E+03 0.23623391195E+03 0.17248324307E+03 0.10894000146E+03 0.58879545416E+02
 0.28347542001E+02 0.15236614547E+02 0.11409460841E+02 0.92718482446E+01 0.79091842128E+01
 0.72028363249E+01 0.69880747772E+01 0.72029296538E+01 0.79095262123E+01 0.92723658658E+01
 0.11409517386E+02 0.15235314611E+02 0.28344766315E+02 0.58876806929E+02 0.10893984553E+03
 0.17248711042E+03 0.23624026831E+03 0.28373240638E+03 0.30132605468E+03 0.28372752477E+03
 0.13314233311E+03 0.89009107489E+02 0.51338206891E+02 0.26691095965E+02 0.15236614547E+02
 0.11553942442E+02 0.94377265977E+01 0.80095890862E+01 0.72023503137E+01 0.68495350900E+01
 0.68495360382E+01 0.72024628088E+01 0.80100966801E+01 0.94387682308E+01 0.11554966511E+02
 0.15236415256E+02 0.26688987266E+02 0.51335288974E+02 0.89007780034E+02 0.13314395393E+03
 0.17267957143E+03 0.19610242706E+03 0.19610085322E+03 0.17267643631E+03 0.63215441632E+02
 0.39170942973E+02 0.22515145219E+02 0.14379808566E+02 0.11409460841E+02 0.94377265977E+01
 0.80445547782E+01 0.72053096696E+01 0.67784719527E+01 0.66490143703E+01 0.67780623743E+01
 0.72048006140E+01 0.80445869751E+01 0.94389274286E+01 0.11411747130E+02 0.14382041377E+02
 0.22515735765E+02 0.39169032800E+02 0.63211607268E+02 0.89133295175E+02 0.10920103131E+03
 0.11676212488E+03 0.10920361171E+03 0.89137390307E+02 0.26748798017E+02 0.17708452096E+02
 0.13139809270E+02 0.10992841258E+02 0.92718482446E+01 0.80095890862E+01 0.72053096696E+01
 0.67566293266E+01 0.65599488130E+01 0.65598545589E+01 0.67560871364E+01 0.72040860127E+01
 0.80083494279E+01 0.92720215536E+01 0.10995264451E+02 0.13143479544E+02 0.17710863382E+02
 0.26747849342E+02 0.39218230012E+02 0.51468035627E+02 0.59074105098E+02 0.59076146345E+02
 0.51472727990E+02 0.39222356760E+02 0.14040620429E+02 0.11960598693E+02 0.10355997355E+02
 0.89633954873E+01 0.79091842128E+01 0.72023503137E+01 0.67784719527E+01 0.65599488130E+01
 0.64933559216E+01 0.65603482242E+01 0.67784852608E+01 0.72011452557E+01 0.79068648265E+01
 0.89613303649E+01 0.10355887211E+02 0.11962892866E+02 0.14043885320E+02 0.17702099132E+02
 0.22531387371E+02 0.26739867746E+02 0.28412022539E+02 0.26740480919E+02 0.22531161665E+02
 0.17699957478E+02 0.10747281823E+02 0.95805735886E+01 0.85567593108E+01 0.77599000436E+01
 0.72028363249E+01 0.68495350900E+01 0.66490143703E+01 0.65598545589E+01 0.65603482242E+01
 0.66503159232E+01 0.68508635478E+01 0.72028005176E+01 0.77575742588E+01 0.85530039184E+01
 0.95778124041E+01 0.10747528638E+02 0.11916611368E+02 0.13077702606E+02 0.14315941409E+02
 0.15175759010E+02 0.15174663532E+02 0.14312852048E+02 0.13073592132E+02 0.11913472764E+02
 0.87693123246E+01 0.81111825942E+01 0.75913318607E+01 0.72238262825E+01 0.69880747772E+01
 0.68495360382E+01 0.67780623743E+01 0.67560871364E+01 0.67784852608E+01 0.68508635478E+01
 0.69903117739E+01 0.72258254584E+01 0.75914389259E+01 0.81087747111E+01 0.87656875130E+01
 0.95049126746E+01 0.10232573183E+02 0.10843114535E+02 0.11246684532E+02 0.11386522777E+02
 0.11244462224E+02 0.10840694932E+02 0.10232268642E+02 0.95073527035E+01 0.76917731129E+01
 0.74448545216E+01 0.72939255702E+01 0.72236156033E+01 0.72029296538E+01 0.72024628088E+01
 0.72048006140E+01 0.72040860127E+01 0.72011452557E+01 0.72028005176E+01 0.72258254584E+01
 0.72976894413E+01 0.74477487660E+01 0.76916790038E+01 0.80185843698E+01 0.83887432634E+01
 0.87432291356E+01 0.90203677587E+01 0.91716026460E+01 0.91714419343E+01 0.90207081122E+01
 0.87453694256E+01 0.83924082285E+01 0.80215706320E+01 0.73578832074E+01 0.74452868896E+01
 0.75913983129E+01 0.77596294568E+01 0.79095262123E+01 0.80100966801E+01 0.80445869751E+01
 0.80083494279E+01 0.79068648265E+01 0.77575742588E+01 0.75914389259E+01 0.74477487660E+01
 0.73614182999E+01 0.73492516094E+01 0.74034399497E+01 0.74961538231E+01 0.75921980567E+01
 0.76619189872E+01 0.76876605031E+01 0.76636604840E+01 0.75948525346E+01 0.74982058722E+01
 0.74034007907E+01 0.73467923396E+01 0.76917752100E+01 0.81117636779E+01 0.85566730144E+01
 0.89634755357E+01 0.92723658658E+01 0.94387682308E+01 0.94389274286E+01 0.92720215536E+01
 0.89613303649E+01 0.85530039184E+01 0.81087747111E+01 0.76916790038E+01 0.73492516094E+01
 0.71020117659E+01 0.69434063321E+01 0.68510244333E+01 0.68016169210E+01 0.67803683231E+01
 0.67810827450E+01 0.68029347004E+01 0.68511554664E+01 0.69412000656E+01 0.70982517505E+01
 0.73463602107E+01 0.87693132974E+01 0.95802564597E+01 0.10355583030E+02 0.10992838315E+02
 0.11409517386E+02 0.11554966511E+02 0.11411747130E+02 0.10995264451E+02 0.10355887211E+02
 0.95778124041E+01 0.87656875130E+01 0.80185843698E+01 0.74034399497E+01 0.69434063321E+01
 0.66264114310E+01 0.64251364622E+01 0.63144752559E+01 0.62791489022E+01 0.63140525308E+01
 0.64238120758E+01 0.66241804148E+01 0.69414112634E+01 0.74033318802E+01 0.80209894831E+01
 0.10747280610E+02 0.11959752913E+02 0.13139362179E+02 0.14378941590E+02 0.15235314611E+02
 0.15236415256E+02 0.14382041377E+02 0.13143479544E+02 0.11962892866E+02 0.10747528638E+02
 0.95049126746E+01 0.83887432634E+01 0.74961538231E+01 0.68510244333E+01 0.64251364622E+01
 0.61729391996E+01 0.60565809978E+01 0.60560855905E+01 0.61716350927E+01 0.64238083521E+01
 0.68510620721E+01 0.74984781502E+01 0.83924931108E+01 0.95076689473E+01 0.14040620053E+02
 0.17708720449E+02 0.22515509829E+02 0.26689601087E+02 0.28344766315E+02 0.26688987266E+02
 0.22515735765E+02 0.17710863382E+02 0.14043885320E+02 0.11916611368E+02 0.10232573183E+02
 0.87432291356E+01 0.75921980567E+01 0.68016169210E+01 0.63144752559E+01 0.60565809978E+01
 0.59762114594E+01 0.60561835382E+01 0.63144617890E+01 0.68028173339E+01 0.75945111659E+01
 0.87452909991E+01 0.10232683981E+02 0.11914318605E+02 0.26748800400E+02 0.39173166231E+02
 0.51339991537E+02 0.58878853330E+02 0.58876806929E+02 0.51335288974E+02 0.39169032800E+02
 0.26747849342E+02 0.17702099132E+02 0.13077702606E+02 0.10843114535E+02 0.90203677587E+01
 0.76619189872E+01 0.67803683231E+01 0.62791489022E+01 0.60560855905E+01 0.60561835382E+01
 0.62796967947E+01 0.67815913121E+01 0.76631522850E+01 0.90201912070E+01 0.10840695961E+02
 0.13074039803E+02 0.17699691886E+02 0.63215443167E+02 0.89011883233E+02 0.10894243392E+03
 0.11644229852E+03 0.10893984553E+03 0.89007780034E+02 0.63211607268E+02 0.39218230012E+02
 0.22531387371E+02 0.14315941409E+02 0.11246684532E+02 0.91716026460E+01 0.76876605031E+01
 0.67810827450E+01 0.63140525308E+01 0.61716350927E+01 0.63144617890E+01 0.67815913121E+01
 0.76876291625E+01 0.91704058625E+01 0.11244404374E+02 0.14313712342E+02 0.22530795329E+02
 0.39220136853E+02 0.13314232868E+03 0.17248397434E+03 0.19576404900E+03 0.19576562277E+03
 0.17248711042E+03 0.13314395393E+03 0.89133295175E+02 0.51468035627E+02 0.26739867746E+02
 0.15175759010E+02 0.11386522777E+02 0.91714419343E+01 0.76636604840E+01 0.68029347004E+01
 0.64238120758E+01 0.64238083521E+01 0.68028173339E+01 0.76631522850E+01 0.91704058625E+01
 0.11385505506E+02 0.15175959540E+02 0.26741969944E+02 0.51470943074E+02 0.89134613773E+02
 0.23623390254E+03 0.28351738353E+03 0.30102503218E+03 0.28352227310E+03 0.23624026831E+03
 0.17267957143E+03 0.10920103131E+03 0.59074105098E+02 0.28412022539E+02 0.15174663532E+02
 0.11244462224E+02 0.90207081122E+01 0.75948525346E+01 0.68511554664E+01 0.66241804148E+01
 0.68510620721E+01 0.75945111659E+01 0.90201912070E+01 0.11244404374E+02 0.15175959540E+02
 0.28414794147E+02 0.59076841722E+02 0.10920118586E+03 0.17267569897E+03 0.35973814502E+03
 0.40406146058E+03 0.40406168711E+03 0.35973919892E+03 0.28373240638E+03 0.19610242706E+03
 0.11676212488E+03 0.59076146345E+02 0.26740480919E+02 0.14312852048E+02 0.10840694932E+02
 0.87453694256E+01 0.74982058722E+01 0.69412000656E+01 0.69414112634E+01 0.74984781502E+01
 0.87452909991E+01 0.10840695961E+02 0.14313712342E+02 0.26741969944E+02 0.59076841722E+02
 0.11676094716E+03 0.19609995235E+03 0.28373020812E+03 0.47988318466E+03 0.50775992957E+03
 0.47987925165E+03 0.40422190033E+03 0.30132605468E+03 0.19610085322E+03 0.10920361171E+03
 0.51472727990E+02 0.22531161665E+02 0.13073592132E+02 0.10232268642E+02 0.83924082285E+01
 0.74034007907E+01 0.70982517505E+01 0.74033318802E+01 0.83924931108E+01 0.10232683981E+02
 0.13074039803E+02 0.22530795329E+02 0.51470943074E+02 0.10920118586E+03 0.19609995235E+03
 0.30132841243E+03 0.40422669811E+03 0.56802502637E+03 0.56802314924E+03 0.50782993785E+03
 0.40422167848E+03 0.28372752477E+03 0.17267643631E+03 0.89137390307E+02 0.39222356760E+02
 0.17699957478E+02 0.11913472764E+02 0.95073527035E+01 0.80215706320E+01 0.73467923396E+01
 0.73463602107E+01 0.80209894831E+01 0.95076689473E+01 0.11914318605E+02 0.17699691886E+02
 0.39220136853E+02 0.89134613773E+02 0.17267569897E+03 0.28373020812E+03 0.40422669811E+03
 0.50783461672E+03 0.57201843011E+03 0.54095300629E+03 0.45660580723E+03 0.34170776054E+03
 0.22377401113E+03 0.12563872165E+03 0.59474525308E+02 0.25362322416E+02 0.13705029886E+02
 0.10577618157E+02 0.86472614825E+01 0.76009308978E+01 0.72762913660E+01 0.75993815885E+01
 0.86472265126E+01 0.10579142343E+02 0.13705029205E+02 0.25360600271E+02 0.59474004874E+02
 0.12563968725E+03 0.22377400260E+03 0.34170709014E+03 0.45660714886E+03 0.54095552918E+03
 0.54095300629E+03 0.48328382806E+03 0.38408881885E+03 0.26889944380E+03 0.16303930723E+03
 0.83816055889E+02 0.36920170355E+02 0.17045562223E+02 0.11771392413E+02 0.94394128943E+01
 0.80100708547E+01 0.73633411079E+01 0.73627179510E+01 0.80095818124E+01 0.94401359538E+01
 0.11771631758E+02 0.17044780456E+02 0.36921144150E+02 0.83819503819E+02 0.16304084964E+03
 0.26889591146E+03 0.38408334452E+03 0.48328081179E+03 0.54095243156E+03 0.45660580723E+03
 0.38408881885E+03 0.28561798399E+03 0.18520506390E+03 0.10268457485E+03 0.48313551064E+02
 0.21455840379E+02 0.12885986409E+02 0.10198786498E+02 0.84443669418E+01 0.75071065795E+01
 0.72179665040E+01 0.75058708410E+01 0.84443081552E+01 0.10199728916E+02 0.12885627254E+02
 0.21455092959E+02 0.48315643637E+02 0.10268853606E+03 0.18520582179E+03 0.28561372363E+03
 0.38408324116E+03 0.45660264417E+03 0.48334544432E+03 0.34170776054E+03 0.26889944380E+03
 0.18520506390E+03 0.10979577989E+03 0.55398553437E+02 0.25312694587E+02 0.14018003956E+02
 0.10824731665E+02 0.88411593205E+01 0.76713788546E+01 0.71510954656E+01 0.71501113150E+01
 0.76703495315E+01 0.88420185451E+01 0.10825451893E+02 0.14016389343E+02 0.25310795322E+02
 0.55399302330E+02 0.10979815685E+03 0.18520638822E+03 0.26889976503E+03 0.34170843860E+03
 0.38423396525E+03 0.38423344334E+03 0.22377401113E+03 0.16303930723E+03 0.10268457485E+03
 0.55398553437E+02 0.26847410384E+02 0.14796770607E+02 0.11235581298E+02 0.91427953565E+01
 0.78164197276E+01 0.71307780113E+01 0.69219051948E+01 0.71299652751E+01 0.78167430578E+01
 0.91441022693E+01 0.11235393780E+02 0.14794368964E+02 0.26844738678E+02 0.55397122361E+02
 0.10268480520E+03 0.16304234989E+03 0.22378016874E+03 0.26909727166E+03 0.28589566810E+03
 0.26909169742E+03 0.12563872165E+03 0.83816055889E+02 0.48313551064E+02 0.25312694587E+02
 0.14796770607E+02 0.11378347043E+02 0.93053280389E+01 0.79138588247E+01 0.71296713565E+01
 0.67869955823E+01 0.67864989517E+01 0.71293016669E+01 0.79148869125E+01 0.93067986560E+01
 0.11378586663E+02 0.14795585192E+02 0.25310641798E+02 0.48311086696E+02 0.83814768995E+02
 0.12564079752E+03 0.16322156495E+03 0.18551954407E+03 0.18551710279E+03 0.16321702804E+03
 0.59474525308E+02 0.36920170355E+02 0.21455840379E+02 0.14018003956E+02 0.11235581298E+02
 0.93053280389E+01 0.79477800095E+01 0.71319379288E+01 0.67172423269E+01 0.65911155365E+01
 0.67163425432E+01 0.71315179967E+01 0.79485290827E+01 0.93067537702E+01 0.11237309975E+02
 0.14019724012E+02 0.21456221285E+02 0.36917929371E+02 0.59470604304E+02 0.83928955215E+02
 0.10292364148E+03 0.11008976660E+03 0.10292497902E+03 0.83932131850E+02 0.25362322416E+02
 0.17045562223E+02 0.12885986409E+02 0.10824731665E+02 0.91427953565E+01 0.79138588247E+01
 0.71319379288E+01 0.66956621404E+01 0.65040857273E+01 0.65037444563E+01 0.66948569850E+01
 0.71310044479E+01 0.79131617963E+01 0.91432514582E+01 0.10827280858E+02 0.12889770163E+02
 0.17047695963E+02 0.25360598453E+02 0.36958952725E+02 0.48426696126E+02 0.55570835678E+02
 0.55572682319E+02 0.48431303505E+02 0.36963653072E+02 0.13705029886E+02 0.11771392413E+02
 0.10198786498E+02 0.88411593205E+01 0.78164197276E+01 0.71296713565E+01 0.67172423269E+01
 0.65040857273E+01 0.64388958884E+01 0.65042422756E+01 0.67170479418E+01 0.71284228216E+01
 0.78141839522E+01 0.88394223757E+01 0.10199340178E+02 0.11774286101E+02 0.13708208458E+02
 0.17033576080E+02 0.21460435148E+02 0.25345117533E+02 0.26893892522E+02 0.25346286376E+02
 0.21461171209E+02 0.17032257378E+02 0.10577618157E+02 0.94394128943E+01 0.84443669418E+01
 0.76713788546E+01 0.71307780113E+01 0.67869955823E+01 0.65911155365E+01 0.65037444563E+01
 0.65042422756E+01 0.65923418702E+01 0.67880235914E+01 0.71302493525E+01 0.76686724645E+01
 0.84407000306E+01 0.94372501718E+01 0.10578577699E+02 0.11724310781E+02 0.12816360766E+02
 0.13942664124E+02 0.14722224224E+02 0.14721386890E+02 0.13940101206E+02 0.12812521928E+02
 0.11720863937E+02 0.86472614825E+01 0.80100708547E+01 0.75071065795E+01 0.71510954656E+01
 0.69219051948E+01 0.67864989517E+01 0.67163425432E+01 0.66948569850E+01 0.67170479418E+01
 0.67880235914E+01 0.69239650912E+01 0.71525860224E+01 0.75066088920E+01 0.80072464471E+01
 0.86436813265E+01 0.93615464419E+01 0.10070280997E+02 0.10666778871E+02 0.11062129732E+02
 0.11199322752E+02 0.11059770310E+02 0.10663895389E+02 0.10069255217E+02 0.93634335354E+01
 0.76009308978E+01 0.73633411079E+01 0.72179665040E+01 0.71501113150E+01 0.71299652751E+01
 0.71293016669E+01 0.71315179967E+01 0.71310044479E+01 0.71284228216E+01 0.71302493525E+01
 0.71525860224E+01 0.72217123734E+01 0.73657533294E+01 0.76000515187E+01 0.79146940678E+01
 0.82718217530E+01 0.86145556085E+01 0.88829495524E+01 0.90295218215E+01 0.90291605124E+01
 0.88827198114E+01 0.86160328607E+01 0.82752748336E+01 0.79181725290E+01 0.72762913660E+01
 0.73627179510E+01 0.75058708410E+01 0.76703495315E+01 0.78167430578E+01 0.79148869125E+01
 0.79485290827E+01 0.79131617963E+01 0.78141839522E+01 0.76686724645E+01 0.75066088920E+01
 0.73657533294E+01 0.72797244527E+01 0.72650153349E+01 0.73144777430E+01 0.74014446885E+01
 0.74920541533E+01 0.75579157068E+01 0.75822338191E+01 0.75595418334E+01 0.74946067699E+01
 0.74037168169E+01 0.73151192030E+01 0.72632669670E+01 0.75993815885E+01 0.80095818124E+01
 0.84443081552E+01 0.88420185451E+01 0.91441022693E+01 0.93067986560E+01 0.93067537702E+01
 0.91432514582E+01 0.88394223757E+01 0.84407000306E+01 0.80072464471E+01 0.76000515187E+01
 0.72650153349E+01 0.70220150167E+01 0.68647882979E+01 0.67718342311E+01 0.67211309319E+01
 0.66990020642E+01 0.66998649251E+01 0.67228182927E+01 0.67724302171E+01 0.68630277439E+01
 0.70184499412E+01 0.72617948846E+01 0.86472265126E+01 0.94401359538E+01 0.10199728916E+02
 0.10825451893E+02 0.11235393780E+02 0.11378586663E+02 0.11237309975E+02 0.10827280858E+02
 0.10199340178E+02 0.94372501718E+01 0.86436813265E+01 0.79146940678E+01 0.73144777430E+01
 0.68647882979E+01 0.65537282573E+01 0.63551917697E+01 0.62455403458E+01 0.62105597242E+01
 0.62454290960E+01 0.63542262743E+01 0.65515661453E+01 0.68624137166E+01 0.73137040412E+01
 0.79165469272E+01 0.10579142343E+02 0.11771631758E+02 0.12885627254E+02 0.14016389343E+02
 0.14794368964E+02 0.14795585192E+02 0.14019724012E+02 0.12889770163E+02 0.11774286101E+02
 0.10578577699E+02 0.93615464419E+01 0.82718217530E+01 0.74014446885E+01 0.67718342311E+01
 0.63551917697E+01 0.61077457414E+01 0.59932987993E+01 0.59927974448E+01 0.61064185289E+01
 0.63537077906E+01 0.67714082489E+01 0.74031556512E+01 0.82753580077E+01 0.93647983917E+01
 0.13705029205E+02 0.17044780456E+02 0.21455092959E+02 0.25310795322E+02 0.26844738678E+02
 0.25310641798E+02 0.21456221285E+02 0.17047695963E+02 0.13708208458E+02 0.11724310781E+02
 0.10070280997E+02 0.86145556085E+01 0.74920541533E+01 0.67211309319E+01 0.62455403458E+01
 0.59932987993E+01 0.59144074538E+01 0.59925434109E+01 0.62452485311E+01 0.67222470192E+01
 0.74942843242E+01 0.86167237132E+01 0.10071034144E+02 0.11722814886E+02 0.25360600271E+02
 0.36921144150E+02 0.48315643637E+02 0.55399302330E+02 0.55397122361E+02 0.48311086696E+02
 0.36917929371E+02 0.25360598453E+02 0.17033576080E+02 0.12816360766E+02 0.10666778871E+02
 0.88829495524E+01 0.75579157068E+01 0.66990020642E+01 0.62105597242E+01 0.59927974448E+01
 0.59925434109E+01 0.62106740287E+01 0.67004569511E+01 0.75596923434E+01 0.88830499152E+01
 0.10664599574E+02 0.12813080761E+02 0.17031049658E+02 0.59474004874E+02 0.83819503819E+02
 0.10268853606E+03 0.10979815685E+03 0.10268480520E+03 0.83814768995E+02 0.59470604304E+02
 0.36958952725E+02 0.21460435148E+02 0.13942664124E+02 0.11062129732E+02 0.90295218215E+01
 0.75822338191E+01 0.66998649251E+01 0.62454290960E+01 0.61064185289E+01 0.62452485311E+01
 0.67004569511E+01 0.75830512462E+01 0.90286816208E+01 0.11059398634E+02 0.13940085872E+02
 0.21459755037E+02 0.36960394884E+02 0.12563968725E+03 0.16304084964E+03 0.18520582179E+03
 0.18520638822E+03 0.16304234989E+03 0.12564079752E+03 0.83928955215E+02 0.48426696126E+02
 0.25345117533E+02 0.14722224224E+02 0.11199322752E+02 0.90291605124E+01 0.75595418334E+01
 0.67228182927E+01 0.63542262743E+01 0.63537077906E+01 0.67222470192E+01 0.75596923434E+01
 0.90286816208E+01 0.11197519816E+02 0.14721367880E+02 0.25347213796E+02 0.48429965324E+02
 0.83930216094E+02 0.22377400260E+03 0.26889591146E+03 0.28561372363E+03 0.26889976503E+03
 0.22378016874E+03 0.16322156495E+03 0.10292364148E+03 0.55570835678E+02 0.26893892522E+02
 0.14721386890E+02 0.11059770310E+02 0.88827198114E+01 0.74946067699E+01 0.67724302171E+01
 0.65515661453E+01 0.67714082489E+01 0.74942843242E+01 0.88830499152E+01 0.11059398634E+02
 0.14721367880E+02 0.26896560330E+02 0.55574788827E+02 0.10292422987E+03 0.16321709543E+03
 0.34170709014E+03 0.38408334452E+03 0.38408324116E+03 0.34170843860E+03 0.26909727166E+03
 0.18551954407E+03 0.11008976660E+03 0.55572682319E+02 0.25346286376E+02 0.13940101206E+02
 0.10663895389E+02 0.86160328607E+01 0.74037168169E+01 0.68630277439E+01 0.68624137166E+01
 0.74031556512E+01 0.86167237132E+01 0.10664599574E+02 0.13940085872E+02 0.25347213796E+02
 0.55574788827E+02 0.11008988738E+03 0.18551605071E+03 0.26909330326E+03 0.45660714886E+03
 0.48328081179E+03 0.45660264417E+03 0.38423396525E+03 0.28589566810E+03 0.18551710279E+03
 0.10292497902E+03 0.48431303505E+02 0.21461171209E+02 0.12812521928E+02 0.10069255217E+02
 0.82752748336E+01 0.73151192030E+01 0.70184499412E+01 0.73137040412E+01 0.82753580077E+01
 0.10071034144E+02 0.12813080761E+02 0.21459755037E+02 0.48429965324E+02 0.10292422987E+03
 0.18551605071E+03 0.28589591251E+03 0.38423769036E+03 0.54095552918E+03 0.54095243156E+03
 0.48334544432E+03 0.38423344334E+03 0.26909169742E+03 0.16321702804E+03 0.83932131850E+02
 0.36963653072E+02 0.17032257378E+02 0.11720863937E+02 0.93634335354E+01 0.79181725290E+01
 0.72632669670E+01 0.72617948846E+01 0.79165469272E+01 0.93647983917E+01 0.11722814886E+02
 0.17031049658E+02 0.36960394884E+02 0.83930216094E+02 0.16321709543E+03 0.26909330326E+03
 0.38423769036E+03 0.48335154835E+03 0.49370700658E+03 0.46648133576E+03 0.39262621437E+03
 0.29225369102E+03 0.18975582272E+03 0.10533785465E+03 0.49524828887E+02 0.21788184347E+02
 0.12848095921E+02 0.10090009234E+02 0.82971974573E+01 0.73381974131E+01 0.70411209444E+01
 0.73352398513E+01 0.82971196969E+01 0.10092901892E+02 0.12848094476E+02 0.21784922880E+02
 0.49523870971E+02 0.10533972330E+03 0.18975581667E+03 0.29225240863E+03 0.39262876308E+03
 0.46648613940E+03 0.46648133576E+03 0.41597571398E+03 0.32924048581E+03 0.22889162865E+03
 0.13737228083E+03 0.69883640957E+02 0.31025019046E+02 0.15371948694E+02 0.11223443170E+02
 0.90348987092E+01 0.77185096395E+01 0.71272242056E+01 0.71256145904E+01 0.77170086602E+01
 0.90365794402E+01 0.11224711665E+02 0.15370180161E+02 0.31024694496E+02 0.69887510089E+02
 0.13737452439E+03 0.22888751541E+03 0.32923489440E+03 0.41597444428E+03 0.46648202943E+03
 0.39262621437E+03 0.32924048581E+03 0.24342337351E+03 0.15645275751E+03 0.85827342987E+02
 0.40319078852E+02 0.18749543138E+02 0.12218111638E+02 0.97470032782E+01 0.81213752405E+01
 0.72628017447E+01 0.69981990289E+01 0.72603953955E+01 0.81213613713E+01 0.97492103899E+01
 0.12217859226E+02 0.18747738744E+02 0.40321287250E+02 0.85832499509E+02 0.15645332601E+03
 0.24341755538E+03 0.32923450047E+03 0.39262397655E+03 0.41602642822E+03 0.29225369102E+03
 0.22889162865E+03 0.15645275751E+03 0.91863468300E+02 0.46160497318E+02 0.21761322388E+02
 0.13099955987E+02 0.10339018405E+02 0.84903334817E+01 0.74151929990E+01 0.69393804328E+01
 0.69377259798E+01 0.74135195844E+01 0.84919027863E+01 0.10340405455E+02 0.13097744064E+02
 0.21759154487E+02 0.46162560831E+02 0.91866823193E+02 0.15645290365E+03 0.22889015968E+03
 0.29225398969E+03 0.32935819887E+03 0.32935741927E+03 0.18975582272E+03 0.13737228083E+03
 0.85827342987E+02 0.46160497318E+02 0.22971632257E+02 0.13687585958E+02 0.10730566679E+02
 0.87720748402E+01 0.75489312820E+01 0.69207922900E+01 0.67292646346E+01 0.69191700900E+01
 0.75492030645E+01 0.87740347891E+01 0.10730173176E+02 0.13684327266E+02 0.22969256328E+02
 0.46160408999E+02 0.85827938948E+02 0.13737436572E+03 0.18976140474E+03 0.22905055202E+03
 0.24364587692E+03 0.22904468308E+03 0.10533785465E+03 0.69883640957E+02 0.40319078852E+02
 0.21761322388E+02 0.13687585958E+02 0.10867245405E+02 0.89244999194E+01 0.76386153522E+01
 0.69185206509E+01 0.66041605093E+01 0.66032282547E+01 0.69177037431E+01 0.76400211170E+01
 0.89262453838E+01 0.10866742465E+02 0.13685574961E+02 0.21759453735E+02 0.40317184574E+02
 0.69882474877E+02 0.10534023083E+03 0.13751547395E+03 0.15670032513E+03 0.15669723309E+03
 0.13750991828E+03 0.49524828887E+02 0.31025019046E+02 0.18749543138E+02 0.13099955987E+02
 0.10730566679E+02 0.89244999194E+01 0.76698267632E+01 0.69194514866E+01 0.65381624926E+01
 0.64218165665E+01 0.65368954127E+01 0.69191426396E+01 0.76711575523E+01 0.89260240288E+01
 0.10731676817E+02 0.13101076969E+02 0.18749651999E+02 0.31022571988E+02 0.49521080961E+02
 0.69965530236E+02 0.86006207608E+02 0.92084616571E+02 0.86006295051E+02 0.69967629336E+02
 0.21788184347E+02 0.15371948694E+02 0.12218111638E+02 0.10339018405E+02 0.87720748402E+01
 0.76386153522E+01 0.69194514866E+01 0.65174301827E+01 0.63402253100E+01 0.63397163714E+01
 0.65164952617E+01 0.69188609720E+01 0.76384566838E+01 0.87727815444E+01 0.10341539455E+02
 0.12221732820E+02 0.15373649468E+02 0.21785850078E+02 0.31042278543E+02 0.40387710526E+02
 0.46272647269E+02 0.46274202651E+02 0.40391944528E+02 0.31047191234E+02 0.12848095921E+02
 0.11223443170E+02 0.97470032782E+01 0.84903334817E+01 0.75489312820E+01 0.69185206509E+01
 0.65381624926E+01 0.63402253100E+01 0.62793144572E+01 0.63401821918E+01 0.65378062290E+01
 0.69173079385E+01 0.75469349633E+01 0.84890515680E+01 0.97481531056E+01 0.11226707238E+02
 0.12851018168E+02 0.15345955462E+02 0.18724303379E+02 0.21750836156E+02 0.22970188928E+02
 0.21752491343E+02 0.18725899128E+02 0.15345448954E+02 0.10090009234E+02 0.90348987092E+01
 0.81213752405E+01 0.74151929990E+01 0.69207922900E+01 0.66041605093E+01 0.64218165665E+01
 0.63397163714E+01 0.63401821918E+01 0.64228716703E+01 0.66048053072E+01 0.69198242207E+01
 0.74123253533E+01 0.81180391141E+01 0.90334251866E+01 0.10091587041E+02 0.11167147195E+02
 0.12128243100E+02 0.12994457572E+02 0.13577056038E+02 0.13576548140E+02 0.12992598068E+02
 0.12124891317E+02 0.11163587752E+02 0.82971974573E+01 0.77185096395E+01 0.72628017447E+01
 0.69393804328E+01 0.67292646346E+01 0.66032282547E+01 0.65368954127E+01 0.65164952617E+01
 0.65378062290E+01 0.66048053072E+01 0.67309898501E+01 0.69402848821E+01 0.72617649848E+01
 0.77154544596E+01 0.82938648203E+01 0.89503317045E+01 0.96036374115E+01 0.10158084558E+02
 0.10528216281E+02 0.10657222738E+02 0.10525915729E+02 0.10154969540E+02 0.96019871258E+01
 0.89515749030E+01 0.73381974131E+01 0.71272242056E+01 0.69981990289E+01 0.69377259798E+01
 0.69191700900E+01 0.69177037431E+01 0.69191426396E+01 0.69188609720E+01 0.69173079385E+01
 0.69198242207E+01 0.69402848821E+01 0.70016885708E+01 0.71290254664E+01 0.73366171200E+01
 0.76168187532E+01 0.79368052147E+01 0.82457772592E+01 0.84890390696E+01 0.86223518666E+01
 0.86218296302E+01 0.84882928522E+01 0.82465352605E+01 0.79398439022E+01 0.76205581049E+01
 0.70411209444E+01 0.71256145904E+01 0.72603953955E+01 0.74135195844E+01 0.75492030645E+01
 0.76400211170E+01 0.76711575523E+01 0.76384566838E+01 0.75469349633E+01 0.74123253533E+01
 0.72617649848E+01 0.71290254664E+01 0.70442547242E+01 0.70227483023E+01 0.70589235797E+01
 0.71296213637E+01 0.72050913659E+01 0.72604210486E+01 0.72809180054E+01 0.72618060308E+01
 0.72073545862E+01 0.71319507595E+01 0.70601832647E+01 0.70217921305E+01 0.73352398513E+01
 0.77170086602E+01 0.81213613713E+01 0.84919027863E+01 0.87740347891E+01 0.89262453838E+01
 0.89260240288E+01 0.87727815444E+01 0.84890515680E+01 0.81180391141E+01 0.77154544596E+01
 0.73366171200E+01 0.70227483023E+01 0.67917709073E+01 0.66383896683E+01 0.65439882558E+01
 0.64899785775E+01 0.64654873845E+01 0.64664169736E+01 0.64918701292E+01 0.65449641727E+01
 0.66371700782E+01 0.67886303231E+01 0.70194127217E+01 0.82971196969E+01 0.90365794402E+01
 0.97492103899E+01 0.10340405455E+02 0.10730173176E+02 0.10866742465E+02 0.10731676817E+02
 0.10341539455E+02 0.97481531056E+01 0.90334251866E+01 0.82938648203E+01 0.76168187532E+01
 0.70589235797E+01 0.66383896683E+01 0.63441007212E+01 0.61533902500E+01 0.60465792829E+01
 0.60123334392E+01 0.60467856548E+01 0.61528390591E+01 0.63421436890E+01 0.66358054241E+01
 0.70575671620E+01 0.76180295009E+01 0.10092901892E+02 0.11224711665E+02 0.12217859226E+02
 0.13097744064E+02 0.13684327266E+02 0.13685574961E+02 0.13101076969E+02 0.12221732820E+02
 0.11226707238E+02 0.10091587041E+02 0.89503317045E+01 0.79368052147E+01 0.71296213637E+01
 0.65439882558E+01 0.61533902500E+01 0.59191070506E+01 0.58098819242E+01 0.58094413392E+01
 0.59179021937E+01 0.61518730046E+01 0.65431321505E+01 0.71306305010E+01 0.79399215458E+01
 0.89538578057E+01 0.12848094476E+02 0.15370180161E+02 0.18747738744E+02 0.21759154487E+02
 0.22969256328E+02 0.21759453735E+02 0.18749651999E+02 0.15373649468E+02 0.12851018168E+02
 0.11167147195E+02 0.96036374115E+01 0.82457772592E+01 0.72050913659E+01 0.64899785775E+01
 0.60465792829E+01 0.58098819242E+01 0.57353935843E+01 0.58088727465E+01 0.60460546799E+01
 0.64909156392E+01 0.72070840131E+01 0.82479238783E+01 0.96049586408E+01 0.11166476057E+02
 0.21784922880E+02 0.31024694496E+02 0.40321287250E+02 0.46162560831E+02 0.46160408999E+02
 0.40317184574E+02 0.31022571988E+02 0.21785850078E+02 0.15345955462E+02 0.12128243100E+02
 0.10158084558E+02 0.84890390696E+01 0.72604210486E+01 0.64654873845E+01 0.60123334392E+01
 0.58094413392E+01 0.58088727465E+01 0.60120160877E+01 0.64670278836E+01 0.72625754359E+01
 0.84894202196E+01 0.10156298746E+02 0.12125514119E+02 0.15343429452E+02 0.49523870971E+02
 0.69887510089E+02 0.85832499509E+02 0.91866823193E+02 0.85827938948E+02 0.69882474877E+02
 0.49521080961E+02 0.31042278543E+02 0.18724303379E+02 0.12994457572E+02 0.10528216281E+02
 0.86223518666E+01 0.72809180054E+01 0.64664169736E+01 0.60467856548E+01 0.59179021937E+01
 0.60460546799E+01 0.64670278836E+01 0.72824653754E+01 0.86219186164E+01 0.10525269980E+02
 0.12991722815E+02 0.18723564294E+02 0.31043185275E+02 0.10533972330E+03 0.13737452439E+03
 0.15645332601E+03 0.15645290365E+03 0.13737436572E+03 0.10534023083E+03 0.69965530236E+02
 0.40387710526E+02 0.21750836156E+02 0.13577056038E+02 0.10657222738E+02 0.86218296302E+01
 0.72618060308E+01 0.64918701292E+01 0.61528390591E+01 0.61518730046E+01 0.64909156392E+01
 0.72625754359E+01 0.86219186164E+01 0.10654808098E+02 0.13575260095E+02 0.21752787714E+02