   2   2   0   0
  0.1535077E+02  0.2661690E-09  0.2661690E-09  0.5003970E-09  0.5000000E-15
  1.000000000000000E-004
  CAR 
 Zn                                      
     74.46342916    -11.17813719  301      2.84707323      1.00000000
    -11.178  0.0000E+00  0.0000E+00
    -10.893  0.0000E+00  0.0000E+00
    -10.607  0.0000E+00  0.0000E+00
    -10.322  0.0000E+00  0.0000E+00
    -10.036  0.0000E+00  0.0000E+00
     -9.751  0.0000E+00  0.0000E+00
     -9.465  0.0000E+00  0.0000E+00
     -9.180  0.0000E+00  0.0000E+00
     -8.894  0.0000E+00  0.0000E+00
     -8.609  0.0000E+00  0.0000E+00
     -8.323  0.0000E+00  0.0000E+00
     -8.038  0.0000E+00  0.0000E+00
     -7.752  0.0000E+00  0.0000E+00
     -7.467  0.1897E-08  0.5417E-09
     -7.182  0.3102E-01  0.8856E-02
     -6.896  0.3392E-01  0.1854E-01
     -6.611  0.2499E+00  0.8987E-01
     -6.325  0.1915E+00  0.1445E+00
     -6.040  0.1718E+00  0.1936E+00
     -5.754  0.2809E+00  0.2738E+00
     -5.469  0.7748E+00  0.4950E+00
     -5.183  0.3905E+01  0.1610E+01
     -4.898  0.1136E+02  0.4853E+01
     -4.612  0.1320E+02  0.8620E+01
     -4.327  0.1536E+02  0.1300E+02
     -4.041  0.1813E+02  0.1818E+02
     -3.756  0.8363E+01  0.2057E+02
     -3.470  0.1754E+00  0.2062E+02
     -3.185  0.6500E+00  0.2080E+02
     -2.899  0.5657E+00  0.2096E+02
     -2.614  0.2786E+00  0.2104E+02
     -2.329  0.7781E+00  0.2127E+02
     -2.043  0.1771E+00  0.2132E+02
     -1.758  0.5344E+00  0.2147E+02
     -1.472  0.1487E+00  0.2151E+02
     -1.187  0.3670E+00  0.2162E+02
     -0.901  0.6986E+00  0.2182E+02
     -0.616  0.5272E+00  0.2197E+02
     -0.330  0.6410E+00  0.2215E+02
     -0.045  0.5914E+00  0.2232E+02
      0.241  0.7380E+00  0.2253E+02
      0.526  0.2843E+00  0.2261E+02
      0.812  0.6448E+00  0.2279E+02
      1.097  0.3223E+00  0.2289E+02
      1.383  0.8372E+00  0.2313E+02
      1.668  0.3151E+00  0.2322E+02
      1.954  0.3621E+00  0.2332E+02
      2.239  0.7274E+00  0.2353E+02
      2.525  0.7779E+00  0.2375E+02
      2.810  0.6227E+00  0.2393E+02
      3.095  0.5961E+00  0.2410E+02
      3.381  0.5316E+00  0.2425E+02
      3.666  0.4261E+00  0.2437E+02
      3.952  0.3294E+00  0.2446E+02
      4.237  0.8142E+00  0.2470E+02
      4.523  0.7320E+00  0.2491E+02
      4.808  0.7551E+00  0.2512E+02
      5.094  0.5649E+00  0.2528E+02
      5.379  0.1867E+00  0.2534E+02
      5.665  0.1216E+01  0.2568E+02
      5.950  0.4859E+00  0.2582E+02
      6.236  0.6153E+00  0.2600E+02
      6.521  0.1272E+01  0.2636E+02
      6.807  0.1222E+01  0.2671E+02
      7.092  0.6514E+00  0.2689E+02
      7.378  0.5176E+00  0.2704E+02
      7.663  0.2300E+00  0.2711E+02
      7.948  0.7721E+00  0.2733E+02
      8.234  0.1342E+01  0.2771E+02
      8.519  0.7262E+00  0.2792E+02
      8.805  0.6762E+00  0.2811E+02
      9.090  0.6436E+00  0.2830E+02
      9.376  0.4962E+00  0.2844E+02
      9.661  0.5357E+00  0.2859E+02
      9.947  0.4095E+00  0.2871E+02
     10.232  0.1447E+01  0.2912E+02
     10.518  0.7350E+00  0.2933E+02
     10.803  0.8866E+00  0.2958E+02
     11.089  0.1558E+01  0.3003E+02
     11.374  0.1073E+01  0.3033E+02
     11.660  0.1086E+01  0.3064E+02
     11.945  0.6033E+00  0.3082E+02
     12.231  0.3759E+00  0.3092E+02
     12.516  0.8989E+00  0.3118E+02
     12.802  0.1400E+01  0.3158E+02
     13.087  0.1079E+01  0.3189E+02
     13.372  0.9022E+00  0.3215E+02
     13.658  0.1023E+01  0.3244E+02
     13.943  0.1464E+01  0.3286E+02
     14.229  0.4811E+00  0.3299E+02
     14.514  0.1182E+01  0.3333E+02
     14.800  0.1214E+01  0.3368E+02
     15.085  0.7242E+00  0.3388E+02
     15.371  0.4191E+00  0.3400E+02
     15.656  0.7938E+00  0.3423E+02
     15.942  0.9535E+00  0.3450E+02
     16.227  0.7052E+00  0.3470E+02
     16.513  0.7368E+00  0.3491E+02
     16.798  0.4516E+00  0.3504E+02
     17.084  0.6950E+00  0.3524E+02
     17.369  0.1014E+01  0.3553E+02
     17.655  0.9660E+00  0.3581E+02
     17.940  0.9722E+00  0.3608E+02
     18.225  0.1687E+01  0.3657E+02
     18.511  0.9420E+00  0.3683E+02
     18.796  0.6444E+00  0.3702E+02
     19.082  0.1047E+01  0.3732E+02
     19.367  0.5599E+00  0.3748E+02
     19.653  0.1824E+01  0.3800E+02
     19.938  0.1212E+01  0.3834E+02
     20.224  0.6954E+00  0.3854E+02
     20.509  0.7720E+00  0.3876E+02
     20.795  0.1108E+01  0.3908E+02
     21.080  0.9870E+00  0.3936E+02
     21.366  0.1143E+01  0.3969E+02
     21.651  0.1427E+01  0.4009E+02
     21.937  0.9997E+00  0.4038E+02
     22.222  0.1770E+01  0.4089E+02
     22.508  0.1461E+01  0.4130E+02
     22.793  0.1381E+01  0.4170E+02
     23.078  0.7688E+00  0.4192E+02
     23.364  0.6680E+00  0.4211E+02
     23.649  0.8390E+00  0.4235E+02
     23.935  0.1076E+01  0.4265E+02
     24.220  0.7373E+00  0.4286E+02
     24.506  0.1121E+01  0.4318E+02
     24.791  0.1511E+01  0.4362E+02
     25.077  0.4969E+00  0.4376E+02
     25.362  0.1652E+01  0.4423E+02
     25.648  0.9570E+00  0.4450E+02
     25.933  0.8159E+00  0.4473E+02
     26.219  0.1390E+01  0.4513E+02
     26.504  0.6192E+00  0.4531E+02
     26.790  0.1340E+01  0.4569E+02
     27.075  0.1304E+01  0.4606E+02
     27.361  0.1039E+01  0.4636E+02
     27.646  0.1405E+01  0.4676E+02
     27.932  0.1175E+01  0.4710E+02
     28.217  0.7664E+00  0.4731E+02
     28.502  0.1898E+01  0.4786E+02
     28.788  0.1038E+01  0.4815E+02
     29.073  0.1844E+01  0.4868E+02
     29.359  0.9518E+00  0.4895E+02
     29.644  0.8472E+00  0.4919E+02
     29.930  0.1482E+01  0.4962E+02
     30.215  0.1456E+01  0.5003E+02
     30.501  0.1172E+01  0.5037E+02
     30.786  0.8499E+00  0.5061E+02
     31.072  0.1457E+01  0.5102E+02
     31.357  0.1847E+01  0.5155E+02
     31.643  0.9663E+00  0.5183E+02
     31.928  0.1679E+01  0.5231E+02
     32.214  0.1217E+01  0.5265E+02
     32.499  0.1557E+01  0.5310E+02
     32.785  0.8749E+00  0.5335E+02
     33.070  0.9970E+00  0.5363E+02
     33.355  0.1007E+01  0.5392E+02
     33.641  0.8344E+00  0.5416E+02
     33.926  0.1041E+01  0.5446E+02
     34.212  0.2117E+01  0.5506E+02
     34.497  0.1991E+01  0.5563E+02
     34.783  0.1044E+01  0.5593E+02
     35.068  0.1452E+01  0.5634E+02
     35.354  0.1344E+01  0.5673E+02
     35.639  0.1510E+01  0.5716E+02
     35.925  0.1554E+01  0.5760E+02
     36.210  0.2540E+01  0.5832E+02
     36.496  0.9616E+00  0.5860E+02
     36.781  0.1345E+01  0.5898E+02
     37.067  0.1821E+01  0.5950E+02
     37.352  0.1112E+01  0.5982E+02
     37.638  0.1205E+01  0.6016E+02
     37.923  0.1294E+01  0.6053E+02
     38.208  0.1614E+01  0.6099E+02
     38.494  0.2211E+01  0.6163E+02
     38.779  0.1222E+01  0.6197E+02
     39.065  0.2938E+00  0.6206E+02
     39.350  0.6887E+00  0.6226E+02
     39.636  0.1189E+01  0.6259E+02
     39.921  0.1541E+01  0.6303E+02
     40.207  0.2412E+01  0.6372E+02
     40.492  0.8284E+00  0.6396E+02
     40.778  0.1210E+01  0.6430E+02
     41.063  0.1352E+01  0.6469E+02
     41.349  0.1729E+01  0.6518E+02
     41.634  0.1523E+01  0.6562E+02
     41.920  0.2144E+01  0.6623E+02
     42.205  0.1392E+01  0.6663E+02
     42.491  0.1428E+01  0.6704E+02
     42.776  0.1211E+01  0.6738E+02
     43.062  0.1466E+01  0.6780E+02
     43.347  0.1561E+01  0.6825E+02
     43.632  0.1772E+01  0.6875E+02
     43.918  0.1605E+01  0.6921E+02
     44.203  0.1102E+01  0.6952E+02
     44.489  0.1227E+01  0.6987E+02
     44.774  0.2008E+01  0.7045E+02
     45.060  0.1251E+01  0.7080E+02
     45.345  0.1650E+01  0.7128E+02
     45.631  0.8381E+00  0.7152E+02
     45.916  0.1813E+01  0.7203E+02
     46.202  0.1286E+01  0.7240E+02
     46.487  0.9896E+00  0.7268E+02
     46.773  0.1432E+01  0.7309E+02
     47.058  0.1430E+01  0.7350E+02
     47.344  0.2202E+01  0.7413E+02
     47.629  0.1975E+01  0.7469E+02
     47.915  0.1645E+01  0.7516E+02
     48.200  0.1262E+01  0.7552E+02
     48.485  0.9266E+00  0.7579E+02
     48.771  0.1891E+01  0.7633E+02
     49.056  0.2275E+01  0.7698E+02
     49.342  0.1402E+01  0.7738E+02
     49.627  0.1719E+01  0.7787E+02
     49.913  0.1060E+01  0.7817E+02
     50.198  0.1219E+01  0.7852E+02
     50.484  0.1207E+01  0.7886E+02
     50.769  0.2283E+01  0.7951E+02
     51.055  0.1585E+01  0.7997E+02
     51.340  0.9605E+00  0.8024E+02
     51.626  0.1182E+01  0.8058E+02
     51.911  0.1536E+01  0.8102E+02
     52.197  0.2529E+01  0.8174E+02
     52.482  0.1242E+01  0.8209E+02
     52.768  0.1292E+01  0.8246E+02
     53.053  0.1178E+01  0.8280E+02
     53.339  0.2491E+01  0.8351E+02
     53.624  0.3002E+01  0.8437E+02
     53.909  0.2129E+01  0.8497E+02
     54.195  0.9122E+00  0.8523E+02
     54.480  0.1295E+01  0.8560E+02
     54.766  0.1677E+01  0.8608E+02
     55.051  0.2449E+01  0.8678E+02
     55.337  0.1563E+01  0.8723E+02
     55.622  0.1082E+01  0.8754E+02
     55.908  0.2123E+01  0.8814E+02
     56.193  0.8450E+00  0.8838E+02
     56.479  0.1254E+01  0.8874E+02
     56.764  0.1844E+01  0.8927E+02
     57.050  0.2537E+01  0.8999E+02
     57.335  0.1762E+01  0.9050E+02
     57.621  0.2098E+01  0.9109E+02
     57.906  0.9310E+00  0.9136E+02
     58.192  0.1271E+01  0.9172E+02
     58.477  0.6091E+00  0.9190E+02
     58.762  0.1852E+01  0.9243E+02
     59.048  0.1998E+01  0.9300E+02
     59.333  0.1239E+01  0.9335E+02
     59.619  0.1866E+01  0.9388E+02
     59.904  0.1047E+01  0.9418E+02
     60.190  0.4999E+00  0.9432E+02
     60.475  0.1738E+01  0.9482E+02
     60.761  0.9209E+00  0.9508E+02
     61.046  0.6512E+00  0.9527E+02
     61.332  0.8976E+00  0.9553E+02
     61.617  0.4435E+00  0.9565E+02
     61.903  0.1965E+00  0.9571E+02
     62.188  0.1618E+00  0.9575E+02
     62.474  0.1817E+00  0.9581E+02
     62.759  0.2014E+00  0.9586E+02
     63.045  0.1642E+00  0.9591E+02
     63.330  0.0000E+00  0.9591E+02
     63.615  0.0000E+00  0.9591E+02
     63.901  0.0000E+00  0.9591E+02
     64.186  0.2907E-12  0.9591E+02
     64.472  0.1426E+00  0.9595E+02
     64.757  0.2157E-01  0.9596E+02
     65.043  0.0000E+00  0.9596E+02
     65.328  0.0000E+00  0.9596E+02
     65.614  0.1519E-17  0.9596E+02
     65.899  0.1056E-01  0.9596E+02
     66.185  0.9890E-01  0.9599E+02
     66.470  0.0000E+00  0.9599E+02
     66.756  0.0000E+00  0.9599E+02
     67.041  0.0000E+00  0.9599E+02
     67.327  0.0000E+00  0.9599E+02
     67.612  0.0000E+00  0.9599E+02
     67.898  0.0000E+00  0.9599E+02
     68.183  0.0000E+00  0.9599E+02
     68.469  0.0000E+00  0.9599E+02
     68.754  0.4936E-12  0.9599E+02
     69.039  0.2537E-01  0.9600E+02
     69.325  0.1993E-02  0.9600E+02
     69.610  0.0000E+00  0.9600E+02
     69.896  0.0000E+00  0.9600E+02
     70.181  0.0000E+00  0.9600E+02
     70.467  0.2274E-04  0.9600E+02
     70.752  0.1366E-01  0.9600E+02
     71.038  0.0000E+00  0.9600E+02
     71.323  0.0000E+00  0.9600E+02
     71.609  0.0000E+00  0.9600E+02
     71.894  0.0000E+00  0.9600E+02
     72.180  0.0000E+00  0.9600E+02
     72.465  0.0000E+00  0.9600E+02
     72.751  0.0000E+00  0.9600E+02
     73.036  0.0000E+00  0.9600E+02
     73.322  0.0000E+00  0.9600E+02
     73.607  0.0000E+00  0.9600E+02
     73.892  0.0000E+00  0.9600E+02
     74.178  0.0000E+00  0.9600E+02
     74.463  0.0000E+00  0.9600E+02
