    2    2    1    1
  0.1535077E+02  0.2661690E-09  0.2661690E-09  0.5003970E-09  0.5000000E-15
  1.000000000000000E-004
  CAR 
 Zn                                      
     24     50     48
 
  0.0000000E+00  0.0000000E+00  0.0000000E+00  0.1953125E-02
      1         -7.285339   1.000000
      2         -5.538054   1.000000
      3         -4.852869   1.000000
      4         -4.601889   1.000000
      5         -4.601804   1.000000
      6         -4.555808   1.000000
      7         -4.555720   1.000000
      8         -4.224202   1.000000
      9         -4.224178   1.000000
     10         -4.031261   1.000000
     11         -4.031235   1.000000
     12         -0.600271   1.000000
     13         -0.140820   1.000000
     14         16.157677   0.000000
     15         19.866618   0.000000
     16         20.610212   0.000000
     17         20.610345   0.000000
     18         22.232914   0.000000
     19         22.232943   0.000000
     20         22.367040   0.000000
     21         23.607073   0.000000
     22         26.930269   0.000000
     23         26.930382   0.000000
     24         27.154619   0.000000
     25         28.273437   0.000000
     26         28.273899   0.000000
     27         28.409395   0.000000
     28         28.409475   0.000000
     29         28.880677   0.000000
     30         28.880685   0.000000
     31         28.958844   0.000000
     32         30.285090   0.000000
     33         36.032401   0.000000
     34         44.724656   0.000000
     35         44.724814   0.000000
     36         44.931895   0.000000
     37         45.056340   0.000000
     38         45.056350   0.000000
     39         45.994124   0.000000
     40         45.994441   0.000000
     41         46.207880   0.000000
     42         46.781124   0.000000
     43         46.781226   0.000000
     44         47.239963   0.000000
     45         48.040402   0.000000
     46         50.039024   0.000000
     47         58.345497   0.000000
     48         70.570631   0.000000
 
  0.1250000E+00 -0.1391299E-16  0.0000000E+00  0.1171875E-01
      1         -6.825682   1.000000
      2         -5.350553   1.000000
      3         -4.811297   1.000000
      4         -4.641686   1.000000
      5         -4.590435   1.000000
      6         -4.496040   1.000000
      7         -4.455076   1.000000
      8         -4.345862   1.000000
      9         -4.262574   1.000000
     10         -4.223799   1.000000
     11         -4.028793   1.000000
     12          0.094948   1.000000
     13          0.112865   1.000000
     14         15.558610   0.000000
     15         16.640241   0.000000
     16         18.055370   0.000000
     17         19.588189   0.000000
     18         20.304234   0.000000
     19         21.655655   0.000000
     20         22.099080   0.000000
     21         23.132482   0.000000
     22         24.663543   0.000000
     23         25.027332   0.000000
     24         25.960295   0.000000
     25         26.467846   0.000000
     26         29.069894   0.000000
     27         30.147485   0.000000
     28         31.845566   0.000000
     29         32.194525   0.000000
     30         32.359539   0.000000
     31         34.245127   0.000000
     32         35.570615   0.000000
     33         37.733766   0.000000
     34         39.561663   0.000000
     35         40.923008   0.000000
     36         42.096781   0.000000
     37         42.521788   0.000000
     38         43.126895   0.000000
     39         45.709766   0.000000
     40         46.842067   0.000000
     41         49.194983   0.000000
     42         49.547927   0.000000
     43         49.794020   0.000000
     44         50.547689   0.000000
     45         53.509663   0.000000
     46         53.845100   0.000000
     47         59.416179   0.000000
     48         66.054551   0.000000
 
  0.2500000E+00 -0.2782597E-16  0.0000000E+00  0.1171875E-01
      1         -5.659347   1.000000
      2         -5.130856   1.000000
      3         -4.723657   1.000000
      4         -4.720690   1.000000
      5         -4.631630   1.000000
      6         -4.411065   1.000000
      7         -4.349840   1.000000
      8         -4.345650   1.000000
      9         -4.231347   1.000000
     10         -4.203597   1.000000
     11         -4.033042   1.000000
     12          1.029579   1.000000
     13          1.832342   1.000000
     14          9.907268   0.000000
     15         15.329230   0.000000
     16         15.526883   0.000000
     17         16.085419   0.000000
     18         18.544408   0.000000
     19         18.766641   0.000000
     20         20.748486   0.000000
     21         21.445627   0.000000
     22         22.723037   0.000000
     23         24.108430   0.000000
     24         25.116823   0.000000
     25         30.916962   0.000000
     26         32.072823   0.000000
     27         33.703534   0.000000
     28         34.878109   0.000000
     29         36.571760   0.000000
     30         36.713520   0.000000
     31         36.838815   0.000000
     32         37.180085   0.000000
     33         39.465644   0.000000
     34         39.678164   0.000000
     35         40.041595   0.000000
     36         41.578318   0.000000
     37         43.870804   0.000000
     38         43.896363   0.000000
     39         46.487199   0.000000
     40         48.431440   0.000000
     41         51.853105   0.000000
     42         53.138127   0.000000
     43         54.695573   0.000000
     44         55.720692   0.000000
     45         58.177674   0.000000
     46         58.581913   0.000000
     47         59.850314   0.000000
     48         61.076181   0.000000
 
  0.3750000E+00  0.1836359E-16  0.0000000E+00  0.1171875E-01
      1         -5.284951   1.000000
      2         -5.207683   1.000000
      3         -4.997858   1.000000
      4         -4.566811   1.000000
      5         -4.537555   1.000000
      6         -4.421099   1.000000
      7         -4.274787   1.000000
      8         -4.044279   1.000000
      9         -3.953128   1.000000
     10         -3.937025   1.000000
     11         -2.598548   1.000000
     12          2.791714   0.941303
     13          4.273903   0.000000
     14          5.110930   0.000000
     15         10.442896   0.000000
     16         11.716793   0.000000
     17         13.879785   0.000000
     18         17.694777   0.000000
     19         19.024719   0.000000
     20         20.669196   0.000000
     21         21.663874   0.000000
     22         22.534400   0.000000
     23         23.024204   0.000000
     24         25.085293   0.000000
     25         28.866483   0.000000
     26         30.316338   0.000000
     27         36.277671   0.000000
     28         37.655327   0.000000
     29         38.152695   0.000000
     30         38.388673   0.000000
     31         40.063716   0.000000
     32         41.035116   0.000000
     33         42.358366   0.000000
     34         42.477459   0.000000
     35         42.933926   0.000000
     36         44.592596   0.000000
     37         47.782946   0.000000
     38         50.478654   0.000000
     39         50.579798   0.000000
     40         51.418291   0.000000
     41         53.130865   0.000000
     42         53.838697   0.000000
     43         54.902106   0.000000
     44         55.170410   0.000000
     45         55.979258   0.000000
     46         56.545192   0.000000
     47         57.796947   0.000000
     48         59.031936   0.000000
 
  0.5000000E+00 -0.5565194E-16  0.0000000E+00  0.5859375E-02
      1         -5.335725   1.000000
      2         -5.250188   1.000000
      3         -5.088927   1.000000
      4         -4.630718   1.000000
      5         -4.453851   1.000000
      6         -4.451178   1.000000
      7         -4.147732   1.000000
      8         -4.050136   1.000000
      9         -3.836648   1.000000
     10         -3.818875   1.000000
     11          0.280115   1.000000
     12          0.949219   1.000000
     13          5.569708   0.000000
     14          6.578383   0.000000
     15          7.012114   0.000000
     16          8.710752   0.000000
     17         13.303691   0.000000
     18         17.413410   0.000000
     19         18.417429   0.000000
     20         20.658319   0.000000
     21         22.667047   0.000000
     22         23.240928   0.000000
     23         23.867618   0.000000
     24         25.314980   0.000000
     25         25.404869   0.000000
     26         28.414393   0.000000
     27         37.378023   0.000000
     28         37.878119   0.000000
     29         39.986930   0.000000
     30         41.055014   0.000000
     31         41.921835   0.000000
     32         43.289048   0.000000
     33         43.583461   0.000000
     34         44.569132   0.000000
     35         47.870161   0.000000
     36         48.386018   0.000000
     37         48.854825   0.000000
     38         49.137050   0.000000
     39         49.763186   0.000000
     40         50.225796   0.000000
     41         50.412760   0.000000
     42         51.905943   0.000000
     43         53.933075   0.000000
     44         54.424355   0.000000
     45         54.593389   0.000000
     46         57.125506   0.000000
     47         57.292534   0.000000
     48         60.505451   0.000000
 
  0.2500000E+00  0.1250000E+00  0.0000000E+00  0.1171875E-01
      1         -5.970038   1.000000
      2         -5.086609   1.000000
      3         -4.819420   1.000000
      4         -4.671470   1.000000
      5         -4.621839   1.000000
      6         -4.599652   1.000000
      7         -4.428455   1.000000
      8         -4.281383   1.000000
      9         -4.264337   1.000000
     10         -4.191882   1.000000
     11         -4.049560   1.000000
     12          0.706557   1.000000
     13          1.291006   1.000000
     14         12.807452   0.000000
     15         13.055072   0.000000
     16         17.249984   0.000000
     17         18.090275   0.000000
     18         18.378373   0.000000
     19         19.749657   0.000000
     20         19.875015   0.000000
     21         21.584944   0.000000
     22         23.069783   0.000000
     23         24.223471   0.000000
     24         29.196061   0.000000
     25         29.410176   0.000000
     26         30.110349   0.000000
     27         31.301283   0.000000
     28         34.569444   0.000000
     29         34.697317   0.000000
     30         36.450905   0.000000
     31         36.784571   0.000000
     32         36.986168   0.000000
     33         37.549128   0.000000
     34         39.949055   0.000000
     35         40.118649   0.000000
     36         40.405291   0.000000
     37         43.050856   0.000000
     38         46.070000   0.000000
     39         47.758827   0.000000
     40         48.013665   0.000000
     41         48.391483   0.000000
     42         48.848099   0.000000
     43         53.126150   0.000000
     44         56.897092   0.000000
     45         58.024240   0.000000
     46         58.156228   0.000000
     47         59.139334   0.000000
     48         61.355606   0.000000
 
  0.3750000E+00  0.1250000E+00  0.0000000E+00  0.2343750E-01
      1         -5.098170   1.000000
      2         -5.040930   1.000000
      3         -4.883473   1.000000
      4         -4.636466   1.000000
      5         -4.584500   1.000000
      6         -4.554774   1.000000
      7         -4.374527   1.000000
      8         -4.361039   1.000000
      9         -4.079696   1.000000
     10         -4.010327   1.000000
     11         -3.247626   1.000000
     12          2.147551   1.000000
     13          3.354984   0.000000
     14          7.658171   0.000000
     15         11.078795   0.000000
     16         13.106385   0.000000
     17         14.147503   0.000000
     18         16.477714   0.000000
     19         17.720623   0.000000
     20         20.326814   0.000000
     21         21.913189   0.000000
     22         23.026737   0.000000
     23         27.537724   0.000000
     24         28.091817   0.000000
     25         29.672535   0.000000
     26         31.527118   0.000000
     27         32.922217   0.000000
     28         34.656840   0.000000
     29         34.676795   0.000000
     30         35.156781   0.000000
     31         36.804650   0.000000
     32         39.647182   0.000000
     33         42.680847   0.000000
     34         44.678850   0.000000
     35         44.975193   0.000000
     36         45.439659   0.000000
     37         47.405389   0.000000
     38         48.305019   0.000000
     39         48.598207   0.000000
     40         50.123173   0.000000
     41         51.466425   0.000000
     42         52.323269   0.000000
     43         53.150186   0.000000
     44         55.420543   0.000000
     45         55.602443   0.000000
     46         56.746200   0.000000
     47         59.554381   0.000000
     48         61.409940   0.000000
 
  0.5000000E+00  0.1250000E+00  0.0000000E+00  0.2343750E-01
      1         -5.195018   1.000000
      2         -5.097352   1.000000
      3         -5.032567   1.000000
      4         -4.613275   1.000000
      5         -4.483727   1.000000
      6         -4.469375   1.000000
      7         -4.286182   1.000000
      8         -4.099429   1.000000
      9         -4.017615   1.000000
     10         -3.904933   1.000000
     11         -0.705223   1.000000
     12          2.867965   0.277295
     13          4.916169   0.000000
     14          6.024032   0.000000
     15          8.654445   0.000000
     16         10.094192   0.000000
     17         10.097755   0.000000
     18         15.510236   0.000000
     19         16.929657   0.000000
     20         21.375289   0.000000
     21         23.066635   0.000000
     22         24.692493   0.000000
     23         26.894061   0.000000
     24         27.068742   0.000000
     25         27.300909   0.000000
     26         29.678667   0.000000
     27         34.083511   0.000000
     28         34.157640   0.000000
     29         35.911673   0.000000
     30         40.799264   0.000000
     31         41.542612   0.000000
     32         41.972577   0.000000
     33         44.568613   0.000000
     34         44.614224   0.000000
     35         45.892617   0.000000
     36         47.575987   0.000000
     37         48.979924   0.000000
     38         50.923538   0.000000
     39         50.961046   0.000000
     40         52.208642   0.000000
     41         52.860098   0.000000
     42         53.412052   0.000000
     43         55.855756   0.000000
     44         56.400640   0.000000
     45         57.283201   0.000000
     46         57.604790   0.000000
     47         57.966644   0.000000
     48         58.062311   0.000000
 
  0.5000000E+00  0.2500000E+00  0.0000000E+00  0.1171875E-01
      1         -4.958165   1.000000
      2         -4.923065   1.000000
      3         -4.854725   1.000000
      4         -4.639721   1.000000
      5         -4.557004   1.000000
      6         -4.517819   1.000000
      7         -4.479833   1.000000
      8         -4.321931   1.000000
      9         -4.159389   1.000000
     10         -3.933622   1.000000
     11         -1.066849   1.000000
     12          4.213794   0.000000
     13          5.682298   0.000000
     14          6.186338   0.000000
     15          6.387112   0.000000
     16         11.603687   0.000000
     17         11.822667   0.000000
     18         12.307916   0.000000
     19         13.828486   0.000000
     20         22.648231   0.000000
     21         24.388160   0.000000
     22         27.483250   0.000000
     23         27.780956   0.000000
     24         29.914828   0.000000
     25         30.292031   0.000000
     26         30.419087   0.000000
     27         31.381812   0.000000
     28         33.446247   0.000000
     29         33.791435   0.000000
     30         34.462620   0.000000
     31         35.743992   0.000000
     32         41.681329   0.000000
     33         46.748537   0.000000
     34         47.186779   0.000000
     35         48.131680   0.000000
     36         49.606357   0.000000
     37         49.767232   0.000000
     38         51.040520   0.000000
     39         51.233572   0.000000
     40         51.410115   0.000000
     41         52.735902   0.000000
     42         52.897156   0.000000
     43         53.586659   0.000000
     44         55.174003   0.000000
     45         57.495568   0.000000
     46         58.139904   0.000000
     47         59.663277   0.000000
     48         59.717305   0.000000
 
 -0.3750000E+00  0.2500000E+00  0.0000000E+00  0.1171875E-01
      1         -4.968494   1.000000
      2         -4.923117   1.000000
      3         -4.823970   1.000000
      4         -4.606430   1.000000
      5         -4.602243   1.000000
      6         -4.523900   1.000000
      7         -4.437480   1.000000
      8         -4.194614   1.000000
      9         -4.131837   1.000000
     10         -4.054796   1.000000
     11          2.030105   1.000000
     12          2.190386   1.000000
     13          5.735546   0.000000
     14          7.081936   0.000000
     15          8.113833   0.000000
     16          8.117324   0.000000
     17          9.583104   0.000000
     18         11.250080   0.000000
     19         12.970662   0.000000
     20         25.428993   0.000000
     21         26.065851   0.000000
     22         26.530041   0.000000
     23         27.431204   0.000000
     24         27.858385   0.000000
     25         29.784239   0.000000
     26         30.802976   0.000000
     27         33.195209   0.000000
     28         33.321252   0.000000
     29         34.507314   0.000000
     30         35.667792   0.000000
     31         39.967196   0.000000
     32         40.031329   0.000000
     33         40.679658   0.000000
     34         41.273504   0.000000
     35         50.090371   0.000000
     36         50.874791   0.000000
     37         53.779631   0.000000
     38         54.663588   0.000000
     39         54.840070   0.000000
     40         54.841623   0.000000
     41         55.703465   0.000000
     42         56.765718   0.000000
     43         57.297518   0.000000
     44         57.582056   0.000000
     45         57.606996   0.000000
     46         57.863613   0.000000
     47         58.711210   0.000000
     48         59.614627   0.000000
 
 -0.4943688E-34  0.5663718E-33  0.1250000E+00  0.3906250E-02
      1         -7.193673   1.000000
      2         -5.548204   1.000000
      3         -4.849931   1.000000
      4         -4.602834   1.000000
      5         -4.602750   1.000000
      6         -4.559618   1.000000
      7         -4.559530   1.000000
      8         -4.214166   1.000000
      9         -4.214143   1.000000
     10         -4.036510   1.000000
     11         -4.036485   1.000000
     12         -1.848525   1.000000
     13          1.310109   1.000000
     14         14.623949   0.000000
     15         20.701766   0.000000
     16         20.701902   0.000000
     17         21.458446   0.000000
     18         22.261536   0.000000
     19         22.261547   0.000000
     20         22.469959   0.000000
     21         23.537281   0.000000
     22         26.233921   0.000000
     23         26.234048   0.000000
     24         27.096593   0.000000
     25         27.096887   0.000000
     26         27.200431   0.000000
     27         28.543436   0.000000
     28         29.778185   0.000000
     29         29.778435   0.000000
     30         29.796705   0.000000
     31         29.796711   0.000000
     32         30.931209   0.000000
     33         36.090202   0.000000
     34         42.258285   0.000000
     35         42.548586   0.000000
     36         42.548812   0.000000
     37         43.018158   0.000000
     38         43.018190   0.000000
     39         45.025683   0.000000
     40         46.762001   0.000000
     41         48.345624   0.000000
     42         48.345873   0.000000
     43         48.968110   0.000000
     44         48.968187   0.000000
     45         50.571872   0.000000
     46         51.570864   0.000000
     47         59.367986   0.000000
     48         68.988022   0.000000
 
  0.1250000E+00  0.4960835E-17  0.1250000E+00  0.2343750E-01
      1         -6.736520   1.000000
      2         -5.352699   1.000000
      3         -4.810148   1.000000
      4         -4.647441   1.000000
      5         -4.598867   1.000000
      6         -4.498218   1.000000
      7         -4.459444   1.000000
      8         -4.336625   1.000000
      9         -4.249786   1.000000
     10         -4.226709   1.000000
     11         -4.035400   1.000000
     12         -1.344775   1.000000
     13          1.757943   1.000000
     14         15.017319   0.000000
     15         15.713920   0.000000
     16         18.158089   0.000000
     17         19.899149   0.000000
     18         20.160019   0.000000
     19         22.193019   0.000000
     20         22.559998   0.000000
     21         23.140167   0.000000
     22         24.012893   0.000000
     23         25.917895   0.000000
     24         26.283360   0.000000
     25         26.969471   0.000000
     26         29.091848   0.000000
     27         30.195476   0.000000
     28         30.673418   0.000000
     29         32.240569   0.000000
     30         33.530032   0.000000
     31         34.001297   0.000000
     32         35.812389   0.000000
     33         36.415718   0.000000
     34         39.486910   0.000000
     35         39.853187   0.000000
     36         41.199094   0.000000
     37         42.858216   0.000000
     38         43.967449   0.000000
     39         45.282113   0.000000
     40         47.037082   0.000000
     41         47.420307   0.000000
     42         49.231121   0.000000
     43         51.941153   0.000000
     44         52.362993   0.000000
     45         52.694612   0.000000
     46         55.874330   0.000000
     47         60.405094   0.000000
     48         64.432316   0.000000
 
  0.2500000E+00  0.4925637E-17  0.1250000E+00  0.2343750E-01
      1         -5.604819   1.000000
      2         -5.124018   1.000000
      3         -4.760719   1.000000
      4         -4.702106   1.000000
      5         -4.642748   1.000000
      6         -4.360276   1.000000
      7         -4.340169   1.000000
      8         -4.337904   1.000000
      9         -4.226765   1.000000
     10         -4.206224   1.000000
     11         -4.040873   1.000000
     12         -0.080417   1.000000
     13          3.129311   0.000000
     14          9.999270   0.000000
     15         14.451844   0.000000
     16         15.636385   0.000000
     17         15.873489   0.000000
     18         18.275928   0.000000
     19         18.842270   0.000000
     20         20.194214   0.000000
     21         21.871034   0.000000
     22         23.492424   0.000000
     23         24.829326   0.000000
     24         25.764970   0.000000
     25         30.830206   0.000000
     26         31.009797   0.000000
     27         32.965499   0.000000
     28         35.272969   0.000000
     29         35.938762   0.000000
     30         37.218655   0.000000
     31         37.512410   0.000000
     32         37.547187   0.000000
     33         38.210695   0.000000
     34         38.355905   0.000000
     35         40.833168   0.000000
     36         43.112429   0.000000
     37         43.698504   0.000000
     38         44.814832   0.000000
     39         45.957044   0.000000
     40         47.744604   0.000000
     41         51.127465   0.000000
     42         53.910576   0.000000
     43         54.778008   0.000000
     44         56.789514   0.000000
     45         58.166725   0.000000
     46         58.216772   0.000000
     47         59.316118   0.000000
     48         60.698957   0.000000
 
  0.3750000E+00  0.2335962E-16  0.1250000E+00  0.2343750E-01
      1         -5.284450   1.000000
      2         -5.220032   1.000000
      3         -4.983514   1.000000
      4         -4.672594   1.000000
      5         -4.478068   1.000000
      6         -4.408094   1.000000
      7         -4.205907   1.000000
      8         -4.061701   1.000000
      9         -3.951903   1.000000
     10         -3.935207   1.000000
     11         -2.523162   1.000000
     12          1.934688   1.000000
     13          5.027329   0.000000
     14          5.451964   0.000000
     15          9.644710   0.000000
     16         12.635325   0.000000
     17         13.993177   0.000000
     18         17.705080   0.000000
     19         18.533020   0.000000
     20         19.321550   0.000000
     21         20.790074   0.000000
     22         23.677062   0.000000
     23         24.265530   0.000000
     24         25.360807   0.000000
     25         27.519204   0.000000
     26         32.527609   0.000000
     27         35.912385   0.000000
     28         36.510989   0.000000
     29         36.745022   0.000000
     30         38.137489   0.000000
     31         40.953664   0.000000
     32         41.467137   0.000000
     33         41.982261   0.000000
     34         43.366742   0.000000
     35         44.161277   0.000000
     36         45.289801   0.000000
     37         47.131459   0.000000
     38         48.972393   0.000000
     39         50.545519   0.000000
     40         51.089317   0.000000
     41         52.892219   0.000000
     42         53.793375   0.000000
     43         54.517995   0.000000
     44         55.568155   0.000000
     45         55.604718   0.000000
     46         56.688000   0.000000
     47         57.511866   0.000000
     48         58.697147   0.000000
 
  0.5000000E+00  0.4855242E-17  0.1250000E+00  0.1171875E-01
      1         -5.329338   1.000000
      2         -5.279149   1.000000
      3         -5.064316   1.000000
      4         -4.703359   1.000000
      5         -4.436665   1.000000
      6         -4.415934   1.000000
      7         -4.096111   1.000000
      8         -4.066513   1.000000
      9         -3.835581   1.000000
     10         -3.819337   1.000000
     11          0.360215   1.000000
     12          0.993165   1.000000
     13          5.084391   0.000000
     14          5.441723   0.000000
     15          8.350385   0.000000
     16          9.360614   0.000000
     17         13.418541   0.000000
     18         17.459463   0.000000
     19         17.946784   0.000000
     20         20.354926   0.000000
     21         21.758039   0.000000
     22         22.648710   0.000000
     23         23.298725   0.000000
     24         24.709373   0.000000
     25         28.271679   0.000000
     26         29.734740   0.000000
     27         35.681282   0.000000
     28         36.358451   0.000000
     29         41.626191   0.000000
     30         41.998369   0.000000
     31         42.428083   0.000000
     32         43.632347   0.000000
     33         43.827717   0.000000
     34         44.478164   0.000000
     35         47.426977   0.000000
     36         47.450794   0.000000
     37         48.193382   0.000000
     38         48.986542   0.000000
     39         50.196651   0.000000
     40         50.311490   0.000000
     41         50.820931   0.000000
     42         51.328393   0.000000
     43         51.715210   0.000000
     44         53.582849   0.000000
     45         56.032553   0.000000
     46         58.651716   0.000000
     47         59.292701   0.000000
     48         60.466744   0.000000
 
  0.2500000E+00  0.1250000E+00  0.1250000E+00  0.2343750E-01
      1         -5.893631   1.000000
      2         -5.078251   1.000000
      3         -4.812747   1.000000
      4         -4.694658   1.000000
      5         -4.655745   1.000000
      6         -4.591913   1.000000
      7         -4.375209   1.000000
      8         -4.312078   1.000000
      9         -4.230877   1.000000
     10         -4.200012   1.000000
     11         -4.050681   1.000000
     12         -0.483533   1.000000
     13          2.674974   0.999999
     14         12.905420   0.000000
     15         13.131987   0.000000
     16         15.872755   0.000000
     17         17.291545   0.000000
     18         17.571861   0.000000
     19         20.769585   0.000000
     20         20.850071   0.000000
     21         22.740750   0.000000
     22         23.444413   0.000000
     23         24.231088   0.000000
     24         28.321070   0.000000
     25         28.997754   0.000000
     26         31.178801   0.000000
     27         31.824920   0.000000
     28         33.953855   0.000000
     29         34.025450   0.000000
     30         34.800537   0.000000
     31         35.450105   0.000000
     32         38.432916   0.000000
     33         38.754996   0.000000
     34         40.294607   0.000000
     35         40.341661   0.000000
     36         41.625928   0.000000
     37         43.108597   0.000000
     38         43.677947   0.000000
     39         46.238842   0.000000
     40         46.624802   0.000000
     41         50.640078   0.000000
     42         51.063897   0.000000
     43         54.910049   0.000000
     44         55.004047   0.000000
     45         56.922710   0.000000
     46         58.541487   0.000000
     47         60.393604   0.000000
     48         60.823620   0.000000
 
  0.3750000E+00  0.1250000E+00  0.1250000E+00  0.4687500E-01
      1         -5.103715   1.000000
      2         -5.036921   1.000000
      3         -4.867481   1.000000
      4         -4.711844   1.000000
      5         -4.628794   1.000000
      6         -4.398347   1.000000
      7         -4.379004   1.000000
      8         -4.355863   1.000000