<?xml version="1.0" encoding="ISO-8859-1"?>
<modeling>
 <generator>
  <i name="program" type="string">vasp </i>
  <i name="version" type="string">6.4.3  </i>
  <i name="subversion" type="string">19Mar24 (build Jun 26 2024 13:02:28) complex                          parallel </i>
  <i name="platform" type="string">LinuxIFC </i>
  <i name="date" type="string">2025 08 08 </i>
  <i name="time" type="string">18:26:50 </i>
 </generator>
 <incar>
  <i type="string" name="SYSTEM">Zn</i>
  <i type="int" name="IBRION">    -1</i>
  <i type="int" name="ISYM">     2</i>
  <i name="ENCUT">    359.73990000</i>
  <i type="int" name="ISMEAR">     0</i>
  <i name="SIGMA">      0.05000000</i>
  <i type="logical" name="LWAVE"> T  </i>
  <i type="logical" name="LCHARG"> T  </i>
 </incar>
 <primitive_cell>
  <structure name="primitive_cell" >
   <crystal>
    <varray name="basis" >
     <v>       2.66169000       0.00000000       0.00000000 </v>
     <v>       1.33084500       2.30509116       0.00000000 </v>
     <v>       0.00000000       0.00000000       5.00397000 </v>
    </varray>
    <i name="volume">     30.70154810 </i>
    <varray name="rec_basis" >
     <v>       0.37570115      -0.21691116       0.00000000 </v>
     <v>       0.00000000       0.43382232       0.00000000 </v>
     <v>      -0.00000000      -0.00000000       0.19984133 </v>
    </varray>
   </crystal>
   <varray name="positions" >
    <v>       0.00000000       0.00000000       0.00000000 </v>
    <v>       0.33333333       0.33333333       0.50000000 </v>
   </varray>
  </structure>
  <varray name="primitive_index" >
   <v type="int" >        1 </v>
   <v type="int" >        2 </v>
  </varray>
 </primitive_cell>
 <kpoints>
  <generation param="Gamma">
   <v type="int" name="divisions">       8        8        8 </v>
   <v name="usershift">      0.00000000       0.00000000       0.00000000 </v>
   <v name="genvec1">      0.12500000      -0.00000000       0.00000000 </v>
   <v name="genvec2">      0.00000000       0.12500000       0.00000000 </v>
   <v name="genvec3">      0.00000000      -0.00000000       0.12500000 </v>
   <v name="shift">      0.00000000       0.00000000       0.00000000 </v>
  </generation>
  <varray name="kpointlist" >
   <v>       0.00000000       0.00000000       0.00000000 </v>
   <v>       0.12500000      -0.00000000       0.00000000 </v>
   <v>       0.25000000      -0.00000000       0.00000000 </v>
   <v>       0.37500000       0.00000000       0.00000000 </v>
   <v>       0.50000000      -0.00000000       0.00000000 </v>
   <v>       0.25000000       0.12500000       0.00000000 </v>
   <v>       0.37500000       0.12500000       0.00000000 </v>
   <v>       0.50000000       0.12500000       0.00000000 </v>
   <v>       0.50000000       0.25000000       0.00000000 </v>
   <v>      -0.37500000       0.25000000       0.00000000 </v>
   <v>      -0.00000000       0.00000000       0.12500000 </v>
   <v>       0.12500000       0.00000000       0.12500000 </v>
   <v>       0.25000000       0.00000000       0.12500000 </v>
   <v>       0.37500000       0.00000000       0.12500000 </v>
   <v>       0.50000000       0.00000000       0.12500000 </v>
   <v>       0.25000000       0.12500000       0.12500000 </v>
   <v>       0.37500000       0.12500000       0.12500000 </v>
   <v>       0.50000000       0.12500000       0.12500000 </v>
   <v>       0.50000000       0.25000000       0.12500000 </v>
   <v>      -0.37500000       0.25000000       0.12500000 </v>
   <v>      -0.00000000       0.00000000       0.25000000 </v>
   <v>       0.12500000      -0.00000000       0.25000000 </v>
   <v>       0.25000000       0.00000000       0.25000000 </v>
   <v>       0.37500000       0.00000000       0.25000000 </v>
   <v>       0.50000000       0.00000000       0.25000000 </v>
   <v>       0.25000000       0.12500000       0.25000000 </v>
   <v>       0.37500000       0.12500000       0.25000000 </v>
   <v>       0.50000000       0.12500000       0.25000000 </v>
   <v>       0.50000000       0.25000000       0.25000000 </v>
   <v>      -0.37500000       0.25000000       0.25000000 </v>
   <v>      -0.00000000       0.00000000       0.37500000 </v>
   <v>       0.12500000      -0.00000000       0.37500000 </v>
   <v>       0.25000000       0.00000000       0.37500000 </v>
   <v>       0.37500000       0.00000000       0.37500000 </v>
   <v>       0.50000000       0.00000000       0.37500000 </v>
   <v>       0.25000000       0.12500000       0.37500000 </v>
   <v>       0.37500000       0.12500000       0.37500000 </v>
   <v>       0.50000000       0.12500000       0.37500000 </v>
   <v>       0.50000000       0.25000000       0.37500000 </v>
   <v>      -0.37500000       0.25000000       0.37500000 </v>
   <v>      -0.00000000       0.00000000       0.50000000 </v>
   <v>       0.12500000      -0.00000000       0.50000000 </v>
   <v>       0.25000000      -0.00000000       0.50000000 </v>
   <v>       0.37500000       0.00000000       0.50000000 </v>
   <v>       0.50000000       0.00000000       0.50000000 </v>
   <v>       0.25000000       0.12500000       0.50000000 </v>
   <v>       0.37500000       0.12500000       0.50000000 </v>
   <v>       0.50000000       0.12500000       0.50000000 </v>
   <v>       0.50000000       0.25000000       0.50000000 </v>
   <v>      -0.37500000       0.25000000       0.50000000 </v>
  </varray>
  <varray name="weights" >
   <v>       0.00195312 </v>
   <v>       0.01171875 </v>
   <v>       0.01171875 </v>
   <v>       0.01171875 </v>
   <v>       0.00585938 </v>
   <v>       0.01171875 </v>
   <v>       0.02343750 </v>
   <v>       0.02343750 </v>
   <v>       0.01171875 </v>
   <v>       0.01171875 </v>
   <v>       0.00390625 </v>
   <v>       0.02343750 </v>
   <v>       0.02343750 </v>
   <v>       0.02343750 </v>
   <v>       0.01171875 </v>
   <v>       0.02343750 </v>
   <v>       0.04687500 </v>
   <v>       0.04687500 </v>
   <v>       0.02343750 </v>
   <v>       0.02343750 </v>
   <v>       0.00390625 </v>
   <v>       0.02343750 </v>
   <v>       0.02343750 </v>
   <v>       0.02343750 </v>
   <v>       0.01171875 </v>
   <v>       0.02343750 </v>
   <v>       0.04687500 </v>
   <v>       0.04687500 </v>
   <v>       0.02343750 </v>
   <v>       0.02343750 </v>
   <v>       0.00390625 </v>
   <v>       0.02343750 </v>
   <v>       0.02343750 </v>
   <v>       0.02343750 </v>
   <v>       0.01171875 </v>
   <v>       0.02343750 </v>
   <v>       0.04687500 </v>
   <v>       0.04687500 </v>
   <v>       0.02343750 </v>
   <v>       0.02343750 </v>
   <v>       0.00195312 </v>
   <v>       0.01171875 </v>
   <v>       0.01171875 </v>
   <v>       0.01171875 </v>
   <v>       0.00585938 </v>
   <v>       0.01171875 </v>
   <v>       0.02343750 </v>
   <v>       0.02343750 </v>
   <v>       0.01171875 </v>
   <v>       0.01171875 </v>
  </varray>
 </kpoints>
 <parameters>
  <separator name="general" >
   <i type="string" name="SYSTEM">Zn</i>
   <i type="logical" name="LCOMPAT"> F  </i>
  </separator>
  <separator name="electronic" >
   <i type="string" name="PREC">normal</i>
   <i name="ENMAX">    359.73990000</i>
   <i name="ENAUG">    575.89200000</i>
   <i name="EDIFF">      0.00010000</i>
   <i type="int" name="IALGO">    38</i>
   <i type="int" name="IWAVPR">    10</i>
   <i type="int" name="NBANDS">    48</i>
   <i type="int" name="NBANDSLOW">    -1</i>
   <i type="int" name="NBANDSHIGH">    -1</i>
   <i name="NELECT">     24.00000000</i>
   <i type="int" name="TURBO">     0</i>
   <i type="int" name="IRESTART">     0</i>
   <i type="int" name="NREBOOT">     0</i>
   <i type="int" name="NMIN">     0</i>
   <i name="EREF">      0.00000000</i>
   <separator name="electronic smearing" >
    <i type="int" name="ISMEAR">     0</i>
    <i name="SIGMA">      0.05000000</i>
    <i name="KSPACING">      0.50000000</i>
    <i type="logical" name="KGAMMA"> T  </i>
    <i type="logical" name="KBLOWUP"> T  </i>
   </separator>
   <separator name="electronic projectors" >
    <i type="logical" name="LREAL"> F  </i>
    <v name="ROPT">      0.00000000</v>
    <i type="int" name="LMAXPAW">  -100</i>
    <i type="int" name="LMAXMIX">     2</i>
    <i type="logical" name="NLSPLINE"> F  </i>
   </separator>
   <separator name="electronic startup" >
    <i type="int" name="ISTART">     1</i>
    <i type="int" name="ICHARG">     0</i>
    <i type="int" name="INIWAV">     1</i>
   </separator>
   <separator name="electronic spin" >
    <i type="int" name="ISPIN">     1</i>
    <i type="logical" name="LNONCOLLINEAR"> F  </i>
    <v name="MAGMOM">      1.00000000      1.00000000</v>
    <i name="NUPDOWN">     -1.00000000</i>
    <i type="logical" name="LSORBIT"> F  </i>
    <v name="SAXIS">      0.00000000      0.00000000      1.00000000</v>
    <i type="logical" name="LSPIRAL"> F  </i>
    <v name="QSPIRAL">      0.00000000      0.00000000      0.00000000</v>
    <i type="logical" name="LZEROZ"> F  </i>
   </separator>
   <separator name="electronic exchange-correlation" >
    <i type="logical" name="LASPH"> F  </i>
   </separator>
   <separator name="electronic convergence" >
    <i type="int" name="NELM">    60</i>
    <i type="int" name="NELMDL">     0</i>
    <i type="int" name="NELMIN">     2</i>
    <i name="ENINI">    359.73990000</i>
    <separator name="electronic convergence detail" >
     <i type="logical" name="LDIAG"> T  </i>
     <i type="logical" name="LSUBROT"> F  </i>
     <i name="WEIMIN">      0.00000000</i>
     <i name="EBREAK">      0.00000052</i>
     <i name="DEPER">      0.30000000</i>
     <i type="int" name="NRMM">     4</i>
     <i name="TIME">      0.40000000</i>
    </separator>
   </separator>
   <separator name="electronic mixer" >
    <i name="AMIX">      0.40000000</i>
    <i name="BMIX">      1.00000000</i>
    <i name="AMIN">      0.10000000</i>
    <i name="AMIX_MAG">      1.60000000</i>
    <i name="BMIX_MAG">      1.00000000</i>
    <separator name="electronic mixer details" >
     <i type="int" name="IMIX">     4</i>
     <i type="logical" name="MIXFIRST"> F  </i>
     <i type="int" name="MAXMIX">   -45</i>
     <i name="WC">    100.00000000</i>
     <i type="int" name="INIMIX">     1</i>
     <i type="int" name="MIXPRE">     1</i>
     <i type="int" name="MREMOVE">     5</i>
    </separator>
   </separator>
   <separator name="electronic dipolcorrection" >
    <i type="logical" name="LDIPOL"> F  </i>
    <i type="logical" name="LMONO"> F  </i>
    <i type="int" name="IDIPOL">     0</i>
    <i name="EPSILON">      1.00000000</i>
    <v name="DIPOL">   -100.00000000   -100.00000000   -100.00000000</v>
    <i name="EFIELD">      0.00000000</i>
    <i type="logical" name="LVACPOTAV"> F  </i>
   </separator>
  </separator>
  <separator name="grids" >
   <i type="int" name="NGX">    12</i>
   <i type="int" name="NGY">    12</i>
   <i type="int" name="NGZ">    24</i>
   <i type="int" name="NGXF">    24</i>
   <i type="int" name="NGYF">    24</i>
   <i type="int" name="NGZF">    48</i>
   <i type="logical" name="ADDGRID"> F  </i>
  </separator>
  <separator name="ionic" >
   <i type="int" name="NSW">     0</i>
   <i type="int" name="IBRION">    -1</i>
   <i type="int" name="MDALGO">     0</i>
   <i type="int" name="ISIF">     2</i>
   <i name="PSTRESS">      0.00000000</i>
   <i name="EDIFFG">      0.00100000</i>
   <i type="int" name="NFREE">     0</i>
   <i name="POTIM">      0.50000000</i>
   <i name="SMASS">     -3.00000000</i>
   <i name="SCALEE">      1.00000000</i>
  </separator>
  <separator name="ionic md" >
   <i name="TEBEG">      0.00010000</i>
   <i name="TEEND">      0.00010000</i>
   <i type="int" name="NBLOCK">     1</i>
   <i type="int" name="KBLOCK">     1</i>
   <i type="int" name="NPACO">   256</i>
   <i name="APACO">     10.00000000</i>
  </separator>
  <separator name="symmetry" >
   <i type="int" name="ISYM">     2</i>
   <i name="SYMPREC">      0.00001000</i>
  </separator>
  <separator name="dos" >
   <i type="int" name="LORBIT">     0</i>
   <v name="RWIGS">     -1.00000000</v>
   <i type="int" name="NEDOS">   301</i>
   <i name="EMIN">     10.00000000</i>
   <i name="EMAX">    -10.00000000</i>
   <i name="EFERMI">      0.00000000</i>
  </separator>
  <separator name="writing" >
   <i type="int" name="NWRITE">     2</i>
   <i type="logical" name="LWAVE"> T  </i>
   <i type="logical" name="LDOWNSAMPLE"> F  </i>
   <i type="logical" name="LCHARG"> T  </i>
   <i type="logical" name="LPARD"> F  </i>
   <i type="logical" name="LVTOT"> F  </i>
   <i type="logical" name="LVHAR"> F  </i>
   <i type="logical" name="LELF"> F  </i>
   <i type="logical" name="LOPTICS"> F  </i>
   <v name="STM">      0.00000000      0.00000000      0.00000000      0.00000000      0.00000000      0.00000000      0.00000000</v>
  </separator>
  <separator name="performance" >
   <i type="int" name="NPAR">    48</i>
   <i type="int" name="NSIM">     4</i>
   <i type="int" name="NBLK">    -1</i>
   <i type="logical" name="LPLANE"> T  </i>
   <i type="logical" name="LSCALAPACK"> T  </i>
   <i type="logical" name="LSCAAWARE"> T  </i>
   <i type="logical" name="LSCALU"> F  </i>
   <i type="logical" name="LASYNC"> F  </i>
   <i type="logical" name="LORBITALREAL"> F  </i>
  </separator>
  <separator name="miscellaneous" >
   <i type="int" name="IDIOT">     3</i>
   <i type="int" name="PHON_NSTRUCT">    -1</i>
   <i type="logical" name="LMUSIC"> F  </i>
   <v name="POMASS">     65.39000000</v>
   <v name="DARWINR">      0.00000000</v>
   <v name="DARWINV">      1.00000000</v>
   <i type="logical" name="LCORR"> T  </i>
  </separator>
  <i type="logical" name="GGA_COMPAT"> T  </i>
  <i type="logical" name="LBERRY"> F  </i>
  <i type="int" name="ICORELEVEL">     0</i>
  <i type="logical" name="LDAU"> F  </i>
  <i type="int" name="I_CONSTRAINED_M">     0</i>
  <separator name="electronic exchange-correlation" >
   <i type="string" name="GGA    ">PE</i>
   <i type="string" name="XC_C">1</i>
   <i type="int" name="VOSKOWN">     0</i>
   <i type="logical" name="LHFCALC"> F  </i>
   <i type="string" name="PRECFOCK"></i>
   <i type="logical" name="LSYMGRAD"> F  </i>
   <i type="logical" name="LHFONE"> F  </i>
   <i type="logical" name="LRHFCALC"> F  </i>
   <i type="logical" name="LTHOMAS"> F  </i>
   <i type="logical" name="LMODELHF"> F  </i>
   <i type="logical" name="LFOCKACE"> F  </i>
   <i name="ENCUT4O">     -1.00000000</i>
   <i type="int" name="EXXOEP">     0</i>
   <i type="int" name="FOURORBIT">     0</i>
   <i name="AEXX">      0.00000000</i>
   <i name="HFALPHA">      0.00000000</i>
   <i name="MCALPHA">      0.00000000</i>
   <i name="ALDAX">      1.00000000</i>
   <i name="AGGAX">      1.00000000</i>
   <i name="AMGGAX">      1.00000000</i>
   <i name="ALDAC">      1.00000000</i>
   <i name="AGGAC">      1.00000000</i>
   <i name="AMGGAC">      1.00000000</i>
   <i type="int" name="NKREDX">     1</i>
   <i type="int" name="NKREDY">     1</i>
   <i type="int" name="NKREDZ">     1</i>
   <i type="logical" name="SHIFTRED"> F  </i>
   <i type="logical" name="ODDONLY"> F  </i>
   <i type="logical" name="EVENONLY"> F  </i>
   <i type="int" name="LMAXFOCK">     0</i>
   <i type="int" name="NMAXFOCKAE">     0</i>
   <i type="logical" name="LFOCKAEDFT"> F  </i>
   <i name="HFSCREEN">      0.00000000</i>
   <i name="HFSCREENC">      0.00000000</i>
   <i type="int" name="NBANDSGWLOW">     0</i>
  </separator>
  <separator name="vdW DFT" >
   <i type="logical" name="LUSE_VDW"> F  </i>
   <i type="int" name="IVDW_NL">    -1</i>
   <i type="logical" name="LSPIN_VDW"> F  </i>
   <i name="ZAB_VDW">     -0.84910000</i>
   <i name="GAMMA_VDW">      1.39626340</i>
   <i name="ALPHA_VDW">      0.00000000</i>
   <i name="PARAM1">      0.12340000</i>
   <i name="PARAM2">      1.00000000</i>
   <i name="BPARAM">      6.30000000</i>
   <i name="CPARAM">      0.00930000</i>
  </separator>
  <separator name="model GW" >
   <i type="int" name="MODEL_GW">     0</i>
   <i name="MODEL_EPS0">      9.21046443</i>
   <i name="MODEL_ALPHA">      1.00000000</i>
  </separator>
  <separator name="linear response parameters" >
   <i type="logical" name="LEPSILON"> F  </i>
   <i type="logical" name="LRPA"> F  </i>
   <i type="logical" name="LNABLA"> F  </i>
   <i type="logical" name="LVEL"> F  </i>
   <i name="CSHIFT">      0.10000000</i>
   <i name="OMEGAMAX">     -1.00000000</i>
   <i name="DEG_THRESHOLD">      0.00200000</i>
   <i name="RTIME">     -0.10000000</i>
   <i name="WPLASMAI">      0.00000000</i>
   <v name="DFIELD">      0.00000000      0.00000000      0.00000000</v>
   <v name="WPLASMA">      0.00000000      0.00000000      0.00000000      0.00000000      0.00000000      0.00000000      0.00000000      0.00000000      0.00000000</v>
  </separator>
  <separator name="orbital magnetization" >
   <i type="logical" name="NUCIND"> F  </i>
   <v name="MAGPOS">      0.00000000      0.00000000      0.00000000</v>
   <i type="logical" name="LNICSALL"> T  </i>
   <i type="logical" name="ORBITALMAG"> F  </i>
   <i type="logical" name="LMAGBLOCH"> F  </i>
   <i type="logical" name="LCHIMAG"> F  </i>
   <i type="logical" name="LGAUGE"> T  </i>
   <i type="int" name="MAGATOM">     0</i>
   <v name="MAGDIPOL">      0.00000000      0.00000000      0.00000000</v>
   <v name="AVECCONST">      0.00000000      0.00000000      0.00000000</v>
  </separator>
  <separator name="response functions" >
   <i type="logical" name="LALL_IN_ONE"> F  </i>
   <i type="int" name="IALL_IN_ONE">    -1</i>
   <i type="int" name="NBANDS_WAVE">    -1</i>
   <i type="logical" name="LFINITE_TEMPERATURE"> F  </i>
   <i type="logical" name="LADDER"> F  </i>
   <i type="logical" name="LRPAFORCE"> F  </i>
   <i type="logical" name="LFXC"> F  </i>
   <i type="logical" name="LHARTREE"> T  </i>
   <i type="int" name="IBSE">     0</i>
   <v type="int" name="KPOINT">    -1     0     0     0</v>
   <i type="logical" name="LTCTC"> F  </i>
   <i type="logical" name="LTCTE"> F  </i>
   <i type="logical" name="LTETE"> F  </i>
   <i type="logical" name="LTRIPLET"> F  </i>
   <i type="logical" name="LFXCEPS"> F  </i>
   <i type="logical" name="LFXHEG"> F  </i>
   <i type="int" name="NATURALO">     2</i>
   <i type="logical" name="LHOLEGF"> F  </i>
   <i type="logical" name="L2ORDER"> F  </i>
   <i type="logical" name="LDMP1"> F  </i>
   <i type="logical" name="LMP2LT"> F  </i>
   <i type="logical" name="LSMP2LT"> F  </i>
   <i type="logical" name="LGWLF"> F  </i>
   <i name="ENCUTGW">     -1.60000002</i>
   <i name="ENCUTGWSOFT">     -1.60000002</i>
   <i name="ENCUTLF">     -1.00000000</i>
   <i type="logical" name="ESF_SPLINES"> F  </i>
   <i name="ESF_CONV">      0.01000000</i>
   <i type="int" name="ESF_NINTER">    15</i>
   <i type="int" name="LMAXMP2">    -1</i>
   <i name="SCISSOR">      0.00000000</i>
   <i type="int" name="NOMEGA">     0</i>
   <i type="int" name="NOMEGAR">     0</i>
   <i type="int" name="NBANDSGW">    -1</i>
   <i type="int" name="NBANDSO">    -1</i>
   <i type="int" name="NBANDSV">    -1</i>
   <i type="int" name="NELMGW">     1</i>
   <i type="int" name="NELMHF">     1</i>
   <i type="int" name="DIM">     3</i>
   <i type="int" name="IESPILON">     4</i>
   <i type="int" name="ANTIRES">     0</i>
   <i name="OMEGAMAX">    -30.00000000</i>
   <i name="OMEGAMIN">    -30.00000000</i>
   <i name="OMEGATL">   -200.00000000</i>
   <i type="int" name="OMEGAGRID">     0</i>
   <i name="CSHIFT">     -0.10000000</i>
   <i type="logical" name="LSELFENERGY"> F  </i>
   <i type="logical" name="LSPECTRAL"> F  </i>
   <i type="logical" name="LSPECTRALGW"> F  </i>
   <i type="logical" name="LSINGLES"> F  </i>
   <i type="logical" name="LFERMIGW"> F  </i>
   <i type="logical" name="ODDONLYGW"> F  </i>
   <i type="logical" name="EVENONLYGW"> F  </i>
   <i type="int" name="NKREDLFX">     1</i>
   <i type="int" name="NKREDLFY">     1</i>
   <i type="int" name="NKREDLFZ">     1</i>
   <i type="int" name="MAXMEM">  2800</i>
   <i type="int" name="TELESCOPE">     0</i>
   <i type="int" name="NTAUPAR">    -1</i>
   <i type="int" name="NOMEGAPAR">    -1</i>
   <i name="DAMP_NEWTON">      0.80000001</i>
   <i name="LAMBDA">      1.00000000</i>
  </separator>
  <separator name="External order field" >
   <i name="OFIELD_KAPPA">      0.00000000</i>
   <v name="OFIELD_K">      0.00000000      0.00000000      0.00000000</v>
   <i name="OFIELD_Q6_NEAR">      0.00000000</i>
   <i name="OFIELD_Q6_FAR">      0.00000000</i>
   <i name="OFIELD_A">      0.00000000</i>
  </separator>
  <separator name="optional k-points parameters" >
   <i type="int" name="KPOINTS_OPT_MODE">     1</i>
   <i type="logical" name="LKPOINTS_OPT"> T  </i>
  </separator>
 </parameters>
 <atominfo>
  <atoms>       2 </atoms>
  <types>       1 </types>
  <array name="atoms" >
   <dimension dim="1">ion</dimension>
   <field type="string">element</field>
   <field type="int">atomtype</field>
   <set>
    <rc><c>Zn</c><c>   1</c></rc>
    <rc><c>Zn</c><c>   1</c></rc>
   </set>
  </array>
  <array name="atomtypes" >
   <dimension dim="1">type</dimension>
   <field type="int">atomspertype</field>
   <field type="string">element</field>
   <field>mass</field>
   <field>valence</field>
   <field type="string">pseudopotential</field>
   <set>
    <rc><c>   2</c><c>Zn</c><c>     65.39000000</c><c>     12.00000000</c><c>PAW_PBE Zn 06Sep2000                    </c></rc>
   </set>
  </array>
 </atominfo>
 <structure name="initialpos" >
  <crystal>
   <varray name="basis" >
    <v>       2.66169000       0.00000000       0.00000000 </v>
    <v>       1.33084500       2.30509116       0.00000000 </v>
    <v>       0.00000000       0.00000000       5.00397000 </v>
   </varray>
   <i name="volume">     30.70154810 </i>
   <varray name="rec_basis" >
    <v>       0.37570115      -0.21691116       0.00000000 </v>
    <v>       0.00000000       0.43382232       0.00000000 </v>
    <v>      -0.00000000      -0.00000000       0.19984133 </v>
   </varray>
  </crystal>
  <varray name="positions" >
   <v>       0.00000000       0.00000000       0.00000000 </v>
   <v>       0.33333333       0.33333333       0.50000000 </v>
  </varray>
 </structure>
 <calculation>
  <scstep>
   <time name="dav">    0.33    0.36</time>
   <time name="total">    0.34    0.37</time>
   <energy>
    <i name="alphaZ">    206.21415897 </i>
    <i name="ewald">  -2401.99486669 </i>
    <i name="hartreedc">   -967.56119435 </i>
    <i name="XCdc">    113.41055123 </i>
    <i name="pawpsdc">   3034.77558414 </i>
    <i name="pawaedc">  -3390.43761576 </i>
    <i name="eentropy">     -0.00191579 </i>
    <i name="bandstr">    -94.20276975 </i>
    <i name="atom">   3497.62693919 </i>
    <i name="e_fr_energy">     -2.17112881 </i>
    <i name="e_wo_entrp">     -2.16921302 </i>
    <i name="e_0_energy">     -2.17017092 </i>
   </energy>
  </scstep>
  <scstep>
   <time name="dav">    0.29    0.29</time>
   <time name="total">    0.30    0.30</time>
   <energy>
    <i name="alphaZ">    206.21415897 </i>
    <i name="ewald">  -2401.99486669 </i>
    <i name="hartreedc">   -967.48310323 </i>
    <i name="XCdc">    113.40678010 </i>
    <i name="pawpsdc">   3034.72789926 </i>
    <i name="pawaedc">  -3390.34368456 </i>
    <i name="eentropy">     -0.00191776 </i>
    <i name="bandstr">    -94.32332704 </i>
    <i name="atom">   3497.62693919 </i>
    <i name="e_fr_energy">     -2.17112176 </i>
    <i name="e_wo_entrp">     -2.16920400 </i>
    <i name="e_0_energy">     -2.17016288 </i>
   </energy>
  </scstep>
  <structure>
   <crystal>
    <varray name="basis" >
     <v>       2.66169000       0.00000000       0.00000000 </v>
     <v>       1.33084500       2.30509116       0.00000000 </v>
     <v>       0.00000000       0.00000000       5.00397000 </v>
    </varray>
    <i name="volume">     30.70154810 </i>
    <varray name="rec_basis" >
     <v>       0.37570115      -0.21691116       0.00000000 </v>
     <v>       0.00000000       0.43382232       0.00000000 </v>
     <v>      -0.00000000      -0.00000000       0.19984133 </v>
    </varray>
   </crystal>
   <varray name="positions" >
    <v>       0.00000000       0.00000000       0.00000000 </v>
    <v>       0.33333333       0.33333333       0.50000000 </v>
   </varray>
  </structure>
  <varray name="forces" >
   <v>      -0.00000000      -0.00000000      -0.00000000 </v>
   <v>       0.00000000       0.00000000       0.00000000 </v>
  </varray>
  <varray name="stress" >
   <v>       4.03313822       0.00000000       0.00000000 </v>
   <v>       0.00000000       4.03313822      -0.00000000 </v>
   <v>       0.00000000      -0.00000000     -28.95814393 </v>
  </varray>
  <energy>
   <i name="e_fr_energy">     -2.17112176 </i>
   <i name="e_wo_entrp">     -2.16920400 </i>
   <i name="e_0_energy">     -2.17016288 </i>
  </energy>
  <dos comment="kpoints_opt">
   <i name="efermi">      1.82816476 </i>
   <total>
    <array>
     <dimension dim="1">gridpoints</dimension>
     <dimension dim="2">spin</dimension>
     <field>energy</field>
     <field>total</field>
     <field>integrated</field>
     <set>
      <set comment="spin 1">
       <r>   -11.1781     0.0000     0.0000 </r>
       <r>   -10.8927     0.0000     0.0000 </r>
       <r>   -10.6072     0.0000     0.0000 </r>
       <r>   -10.3217     0.0000     0.0000 </r>
       <r>   -10.0362     0.0000     0.0000 </r>
       <r>    -9.7508     0.0000     0.0000 </r>
       <r>    -9.4653     0.0000     0.0000 </r>
       <r>    -9.1798     0.0000     0.0000 </r>
       <r>    -8.8944     0.0000     0.0000 </r>
       <r>    -8.6089     0.0000     0.0000 </r>
       <r>    -8.3234     0.0000     0.0000 </r>
       <r>    -8.0379     0.0000     0.0000 </r>
       <r>    -7.7525     0.0000     0.0000 </r>
       <r>    -7.4670     0.0000     0.0000 </r>
       <r>    -7.1815     0.7112     0.2030 </r>
       <r>    -6.8961     0.6491     0.3883 </r>
       <r>    -6.6106     0.4275     0.5104 </r>
       <r>    -6.3251     0.3547     0.6116 </r>
       <r>    -6.0396     0.3260     0.7047 </r>
       <r>    -5.7542     0.3226     0.7968 </r>
       <r>    -5.4687     1.2481     1.1531 </r>
       <r>    -5.1832     5.6268     2.7594 </r>
       <r>    -4.8978     6.9443     4.7418 </r>
       <r>    -4.6123    10.5507     7.7537 </r>
       <r>    -4.3268    22.4961    14.1758 </r>
       <r>    -4.0413    15.5008    18.6010 </r>
       <r>    -3.7559     8.4917    21.0252 </r>
       <r>    -3.4704     0.2933    21.1089 </r>
       <r>    -3.1849     0.7375    21.3195 </r>
       <r>    -2.8995     0.3489    21.4191 </r>
       <r>    -2.6140     0.2838    21.5001 </r>
       <r>    -2.3285     0.2470    21.5706 </r>
       <r>    -2.0430     0.1941    21.6260 </r>
       <r>    -1.7576     0.1679    21.6739 </r>
       <r>    -1.4721     0.1534    21.7177 </r>
       <r>    -1.1866     0.1479    21.7599 </r>
       <r>    -0.9011     0.1415    21.8003 </r>
       <r>    -0.6157     0.2349    21.8674 </r>
       <r>    -0.3302     0.9717    22.1448 </r>
       <r>    -0.0447     1.4599    22.5616 </r>
       <r>     0.2407     1.3426    22.9448 </r>
       <r>     0.5262     0.8725    23.1939 </r>
       <r>     0.8117     0.6262    23.3727 </r>
       <r>     1.0972     0.7301    23.5811 </r>
       <r>     1.3826     0.6383    23.7633 </r>
       <r>     1.6681     0.5453    23.9190 </r>
       <r>     1.9536     0.5356    24.0719 </r>
       <r>     2.2390     1.2283    24.4226 </r>
       <r>     2.5245     0.6318    24.6030 </r>
       <r>     2.8100     0.6087    24.7767 </r>
       <r>     3.0955     0.6078    24.9502 </r>
       <r>     3.3809     1.0941    25.2626 </r>
       <r>     3.6664     0.4514    25.3914 </r>
       <r>     3.9519     0.2405    25.4601 </r>
       <r>     4.2373     0.2106    25.5202 </r>
       <r>     4.5228     0.4461    25.6475 </r>
       <r>     4.8083     0.6034    25.8198 </r>
       <r>     5.0938     0.4267    25.9416 </r>
       <r>     5.3792     0.4454    26.0688 </r>
       <r>     5.6647     0.5756    26.2331 </r>
       <r>     5.9502     0.2686    26.3098 </r>
       <r>     6.2356     0.2602    26.3840 </r>
       <r>     6.5211     0.3293    26.4781 </r>
       <r>     6.8066     0.5082    26.6231 </r>
       <r>     7.0921     0.4810    26.7604 </r>
       <r>     7.3775     0.4289    26.8829 </r>
       <r>     7.6630     0.3614    26.9860 </r>
       <r>     7.9485     0.3602    27.0889 </r>
       <r>     8.2340     0.3681    27.1939 </r>
       <r>     8.5194     0.3342    27.2893 </r>
       <r>     8.8049     0.4666    27.4226 </r>
       <r>     9.0904     0.5550    27.5810 </r>
       <r>     9.3758     0.3962    27.6941 </r>
       <r>     9.6613     0.3969    27.8074 </r>
       <r>     9.9468     0.4444    27.9343 </r>
       <r>    10.2323     0.3586    28.0366 </r>
       <r>    10.5177     0.4313    28.1598 </r>
       <r>    10.8032     0.3513    28.2600 </r>
       <r>    11.0887     0.3558    28.3616 </r>
       <r>    11.3741     0.3334    28.4568 </r>
       <r>    11.6596     0.3384    28.5534 </r>
       <r>    11.9451     0.3512    28.6537 </r>
       <r>    12.2306     0.6280    28.8329 </r>
       <r>    12.5160     0.5601    28.9928 </r>
       <r>    12.8015     0.5692    29.1554 </r>
       <r>    13.0870     0.4940    29.2964 </r>
       <r>    13.3724     1.1409    29.6221 </r>
       <r>    13.6579     0.9693    29.8988 </r>
       <r>    13.9434     0.7474    30.1122 </r>
       <r>    14.2289     0.7697    30.3319 </r>
       <r>    14.5143     0.8962    30.5877 </r>
       <r>    14.7998     0.7737    30.8086 </r>
       <r>    15.0853     0.6180    30.9850 </r>
       <r>    15.3707     0.5716    31.1482 </r>
       <r>    15.6562     0.5316    31.3000 </r>
       <r>    15.9417     0.7019    31.5003 </r>
       <r>    16.2272     1.2705    31.8630 </r>
       <r>    16.5126     1.3619    32.2518 </r>
       <r>    16.7981     1.1358    32.5761 </r>
       <r>    17.0836     1.3537    32.9625 </r>
       <r>    17.3691     0.6205    33.1396 </r>
       <r>    17.6545     1.3068    33.5127 </r>
       <r>    17.9400     0.9330    33.7790 </r>
       <r>    18.2255     1.1984    34.1211 </r>
       <r>    18.5109     1.3852    34.5166 </r>
       <r>    18.7964     1.5729    34.9656 </r>
       <r>    19.0819     1.4405    35.3768 </r>
       <r>    19.3674     1.3347    35.7579 </r>
       <r>    19.6528     1.5489    36.2000 </r>
       <r>    19.9383     2.4274    36.8930 </r>
       <r>    20.2238     1.1355    37.2172 </r>
       <r>    20.5092     1.5675    37.6647 </r>
       <r>    20.7947     2.0256    38.2429 </r>
       <r>    21.0802     0.8051    38.4728 </r>
       <r>    21.3657     1.8979    39.0146 </r>
       <r>    21.6511     1.4528    39.4293 </r>
       <r>    21.9366     1.6614    39.9036 </r>
       <r>    22.2221     1.5195    40.3374 </r>
       <r>    22.5075     1.6180    40.7993 </r>
       <r>    22.7930     2.0569    41.3865 </r>
       <r>    23.0785     2.0819    41.9809 </r>
       <r>    23.3640     1.9853    42.5476 </r>
       <r>    23.6494     1.9974    43.1178 </r>
       <r>    23.9349     2.3405    43.7860 </r>
       <r>    24.2204     1.0014    44.0719 </r>
       <r>    24.5058     0.9018    44.3293 </r>
       <r>    24.7913     0.9648    44.6047 </r>
       <r>    25.0768     1.8244    45.1255 </r>
       <r>    25.3623     2.8755    45.9464 </r>
       <r>    25.6477     1.0368    46.2424 </r>
       <r>    25.9332     1.0795    46.5506 </r>
       <r>    26.2187     1.1911    46.8906 </r>
       <r>    26.5042     1.0656    47.1948 </r>
       <r>    26.7896     1.5076    47.6252 </r>
       <r>    27.0751     1.4130    48.0286 </r>
       <r>    27.3606     1.0098    48.3168 </r>
       <r>    27.6460     0.8608    48.5626 </r>
       <r>    27.9315     0.5919    48.7316 </r>
       <r>    28.2170     0.7178    48.9365 </r>
       <r>    28.5025     1.7097    49.4246 </r>
       <r>    28.7879     1.0865    49.7347 </r>
       <r>    29.0734     1.5529    50.1781 </r>
       <r>    29.3589     1.2013    50.5210 </r>
       <r>    29.6443     1.0979    50.8344 </r>
       <r>    29.9298     1.3795    51.2282 </r>
       <r>    30.2153     1.2964    51.5983 </r>
       <r>    30.5008     1.5187    52.0319 </r>
       <r>    30.7862     1.3216    52.4092 </r>
       <r>    31.0717     1.3117    52.7836 </r>
       <r>    31.3572     1.1986    53.1258 </r>
       <r>    31.6426     1.3975    53.5248 </r>
       <r>    31.9281     1.1559    53.8548 </r>
       <r>    32.2136     1.2902    54.2231 </r>
       <r>    32.4991     1.5701    54.6713 </r>
       <r>    32.7845     1.0455    54.9698 </r>
       <r>    33.0700     1.2810    55.3355 </r>
       <r>    33.3555     0.8770    55.5858 </r>
       <r>    33.6409     0.9192    55.8482 </r>
       <r>    33.9264     0.9359    56.1154 </r>
       <r>    34.2119     1.1278    56.4373 </r>
       <r>    34.4974     1.3219    56.8147 </r>
       <r>    34.7828     1.3519    57.2007 </r>
       <r>    35.0683     1.4029    57.6012 </r>
       <r>    35.3538     1.0714    57.9070 </r>
       <r>    35.6393     1.0547    58.2081 </r>
       <r>    35.9247     0.9302    58.4737 </r>
       <r>    36.2102     1.7006    58.9592 </r>
       <r>    36.4957     1.4654    59.3775 </r>
       <r>    36.7811     1.4903    59.8030 </r>
       <r>    37.0666     1.2679    60.1649 </r>
       <r>    37.3521     1.2928    60.5340 </r>
       <r>    37.6376     1.5843    60.9863 </r>
       <r>    37.9230     1.5627    61.4324 </r>
       <r>    38.2085     1.1746    61.7677 </r>
       <r>    38.4940     1.4791    62.1899 </r>
       <r>    38.7794     1.1220    62.5102 </r>
       <r>    39.0649     1.2560    62.8688 </r>
       <r>    39.3504     0.8658    63.1160 </r>
       <r>    39.6359     1.3572    63.5034 </r>
       <r>    39.9213     1.3704    63.8946 </r>
       <r>    40.2068     2.0564    64.4817 </r>
       <r>    40.4923     0.9493    64.7527 </r>
       <r>    40.7777     1.3642    65.1421 </r>
       <r>    41.0632     1.6344    65.6087 </r>
       <r>    41.3487     1.8891    66.1480 </r>
       <r>    41.6342     2.0573    66.7353 </r>
       <r>    41.9196     1.8084    67.2515 </r>
       <r>    42.2051     1.4403    67.6627 </r>
       <r>    42.4906     1.9360    68.2154 </r>
       <r>    42.7760     1.5711    68.6639 </r>
       <r>    43.0615     1.7094    69.1519 </r>
       <r>    43.3470     1.6111    69.6119 </r>
       <r>    43.6325     1.2887    69.9798 </r>
       <r>    43.9179     1.5966    70.4355 </r>
       <r>    44.2034     1.4077    70.8374 </r>
       <r>    44.4889     1.5452    71.2785 </r>
       <r>    44.7744     2.1471    71.8915 </r>
       <r>    45.0598     1.5901    72.3454 </r>
       <r>    45.3453     0.8862    72.5984 </r>
       <r>    45.6308     1.4816    73.0213 </r>
       <r>    45.9162     1.6712    73.4985 </r>
       <r>    46.2017     1.6685    73.9748 </r>
       <r>    46.4872     1.4891    74.3999 </r>
       <r>    46.7727     1.9075    74.9444 </r>
       <r>    47.0581     1.6877    75.4262 </r>
       <r>    47.3436     1.5609    75.8718 </r>
       <r>    47.6291     1.7356    76.3673 </r>
       <r>    47.9145     2.1287    76.9750 </r>
       <r>    48.2000     1.9500    77.5316 </r>
       <r>    48.4855     2.0042    78.1038 </r>
       <r>    48.7710     1.5087    78.5345 </r>
       <r>    49.0564     1.6718    79.0118 </r>
       <r>    49.3419     1.6548    79.4842 </r>
       <r>    49.6274     1.5227    79.9188 </r>
       <r>    49.9128     1.6143    80.3797 </r>
       <r>    50.1983     2.3020    81.0368 </r>
       <r>    50.4838     2.1155    81.6408 </r>
       <r>    50.7693     1.6103    82.1005 </r>
       <r>    51.0547     1.4402    82.5116 </r>
       <r>    51.3402     1.4669    82.9304 </r>
       <r>    51.6257     1.4714    83.3504 </r>
       <r>    51.9112     1.5085    83.7810 </r>
       <r>    52.1966     1.5212    84.2153 </r>
       <r>    52.4821     1.5555    84.6593 </r>
       <r>    52.7676     1.2395    85.0132 </r>
       <r>    53.0530     1.3200    85.3900 </r>
       <r>    53.3385     1.9623    85.9502 </r>
       <r>    53.6240     1.4164    86.3545 </r>
       <r>    53.9095     1.5742    86.8039 </r>
       <r>    54.1949     1.4130    87.2073 </r>
       <r>    54.4804     1.1461    87.5345 </r>
       <r>    54.7659     1.1552    87.8643 </r>
       <r>    55.0513     1.1945    88.2053 </r>
       <r>    55.3368     1.4636    88.6231 </r>
       <r>    55.6223     1.3092    88.9969 </r>
       <r>    55.9078     1.3767    89.3899 </r>
       <r>    56.1932     1.1391    89.7151 </r>
       <r>    56.4787     1.2770    90.0796 </r>
       <r>    56.7642     1.4903    90.5051 </r>
       <r>    57.0496     1.2287    90.8558 </r>
       <r>    57.3351     0.9321    91.1219 </r>
       <r>    57.6206     1.4233    91.5282 </r>
       <r>    57.9061     0.9807    91.8082 </r>
       <r>    58.1915     0.8633    92.0547 </r>
       <r>    58.4770     1.5072    92.4850 </r>
       <r>    58.7625     1.6623    92.9595 </r>
       <r>    59.0479     0.9232    93.2231 </r>
       <r>    59.3334     0.6746    93.4157 </r>
       <r>    59.6189     0.7942    93.6424 </r>
       <r>    59.9044     1.1033    93.9574 </r>
       <r>    60.1898     1.1065    94.2732 </r>
       <r>    60.4753     0.8297    94.5101 </r>
       <r>    60.7608     0.7134    94.7137 </r>
       <r>    61.0463     0.6110    94.8881 </r>
       <r>    61.3317     0.6511    95.0740 </r>
       <r>    61.6172     0.3073    95.1617 </r>
       <r>    61.9027     0.3498    95.2616 </r>
       <r>    62.1881     0.2918    95.3449 </r>
       <r>    62.4736     0.1501    95.3878 </r>
       <r>    62.7591     0.0491    95.4018 </r>
       <r>    63.0446     0.0689    95.4214 </r>
       <r>    63.3300     0.0250    95.4286 </r>
       <r>    63.6155     0.0953    95.4558 </r>
       <r>    63.9010     0.0100    95.4587 </r>
       <r>    64.1864     0.0797    95.4814 </r>
       <r>    64.4719     0.0532    95.4966 </r>
       <r>    64.7574     0.0147    95.5008 </r>
       <r>    65.0429     0.0807    95.5238 </r>
       <r>    65.3283     0.0477    95.5374 </r>
       <r>    65.6138     0.0578    95.5539 </r>
       <r>    65.8993     0.0375    95.5646 </r>
       <r>    66.1847     0.0953    95.5918 </r>
       <r>    66.4702     0.0282    95.5999 </r>
       <r>    66.7557     0.0651    95.6185 </r>
       <r>    67.0412     0.0497    95.6327 </r>
       <r>    67.3266     0.0937    95.6594 </r>
       <r>    67.6121     0.0338    95.6691 </r>
       <r>    67.8976     0.0814    95.6923 </r>
       <r>    68.1830     0.0540    95.7077 </r>
       <r>    68.4685     0.0805    95.7307 </r>
       <r>    68.7540     0.0860    95.7552 </r>
       <r>    69.0395     0.0744    95.7765 </r>
       <r>    69.3249     0.0956    95.8038 </r>
       <r>    69.6104     0.1084    95.8348 </r>
       <r>    69.8959     0.1019    95.8639 </r>
       <r>    70.1814     0.1096    95.8951 </r>
       <r>    70.4668     0.1438    95.9362 </r>
       <r>    70.7523     0.2235    96.0000 </r>
       <r>    71.0378     0.0000    96.0000 </r>
       <r>    71.3232     0.0000    96.0000 </r>
       <r>    71.6087     0.0000    96.0000 </r>
       <r>    71.8942     0.0000    96.0000 </r>
       <r>    72.1797     0.0000    96.0000 </r>
       <r>    72.4651     0.0000    96.0000 </r>
       <r>    72.7506     0.0000    96.0000 </r>
       <r>    73.0361     0.0000    96.0000 </r>
       <r>    73.3215     0.0000    96.0000 </r>
       <r>    73.6070     0.0000    96.0000 </r>
       <r>    73.8925     0.0000    96.0000 </r>
       <r>    74.1780     0.0000    96.0000 </r>
       <r>    74.4634     0.0000    96.0000 </r>
      </set>
     </set>
    </array>
   </total>
  </dos>
  <eigenvalues_kpoints_opt comment="kpoints_opt">
   <kpoints>
    <varray name="kpointlist" >
     <v>       0.00000000       0.00000000       0.00000000 </v>
     <v>       0.01041667       0.00000000       0.00000000 </v>
     <v>       0.02083333       0.00000000       0.00000000 </v>
     <v>       0.03125000       0.00000000       0.00000000 </v>
     <v>       0.04166667       0.00000000       0.00000000 </v>
     <v>       0.05208333       0.00000000       0.00000000 </v>
     <v>       0.06250000       0.00000000       0.00000000 </v>
     <v>       0.07291667       0.00000000       0.00000000 </v>
     <v>       0.08333333       0.00000000       0.00000000 </v>
     <v>       0.09375000       0.00000000       0.00000000 </v>
     <v>       0.10416667       0.00000000       0.00000000 </v>
     <v>       0.11458333       0.00000000       0.00000000 </v>
     <v>       0.12500000       0.00000000       0.00000000 </v>
     <v>       0.13541667       0.00000000       0.00000000 </v>
     <v>       0.14583333       0.00000000       0.00000000 </v>
     <v>       0.15625000       0.00000000       0.00000000 </v>
     <v>       0.16666667       0.00000000       0.00000000 </v>
     <v>       0.17708333       0.00000000       0.00000000 </v>
     <v>       0.18750000       0.00000000       0.00000000 </v>
     <v>       0.19791667       0.00000000       0.00000000 </v>
     <v>       0.20833333       0.00000000       0.00000000 </v>
     <v>       0.21875000       0.00000000       0.00000000 </v>
     <v>       0.22916667       0.00000000       0.00000000 </v>
     <v>       0.23958333       0.00000000       0.00000000 </v>
     <v>       0.25000000       0.00000000       0.00000000 </v>
     <v>       0.26041667       0.00000000       0.00000000 </v>
     <v>       0.27083333       0.00000000       0.00000000 </v>
     <v>       0.28125000       0.00000000       0.00000000 </v>
     <v>       0.29166667       0.00000000       0.00000000 </v>
     <v>       0.30208333       0.00000000       0.00000000 </v>
     <v>       0.31250000       0.00000000       0.00000000 </v>
     <v>       0.32291667       0.00000000       0.00000000 </v>
     <v>       0.33333333       0.00000000       0.00000000 </v>
     <v>       0.34375000       0.00000000       0.00000000 </v>
     <v>       0.35416667       0.00000000       0.00000000 </v>
     <v>       0.36458333       0.00000000       0.00000000 </v>
     <v>       0.37500000       0.00000000       0.00000000 </v>
     <v>       0.38541667       0.00000000       0.00000000 </v>
     <v>       0.39583333       0.00000000       0.00000000 </v>
     <v>       0.40625000       0.00000000       0.00000000 </v>
     <v>       0.41666667       0.00000000       0.00000000 </v>
     <v>       0.42708333       0.00000000       0.00000000 </v>
     <v>       0.43750000       0.00000000       0.00000000 </v>
     <v>       0.44791667       0.00000000       0.00000000 </v>
     <v>       0.45833333       0.00000000       0.00000000 </v>
     <v>       0.46875000       0.00000000       0.00000000 </v>
     <v>       0.47916667       0.00000000       0.00000000 </v>
     <v>       0.48958333       0.00000000       0.00000000 </v>
     <v>       0.50000000       0.00000000       0.00000000 </v>
     <v>       0.50000000       0.00000000       0.00000000 </v>
     <v>       0.49652778       0.00694444       0.00000000 </v>
     <v>       0.49305556       0.01388889       0.00000000 </v>
     <v>       0.48958333       0.02083333       0.00000000 </v>
     <v>       0.48611111       0.02777778       0.00000000 </v>
     <v>       0.48263889       0.03472222       0.00000000 </v>
     <v>       0.47916667       0.04166667       0.00000000 </v>
     <v>       0.47569444       0.04861111       0.00000000 </v>
     <v>       0.47222222       0.05555556       0.00000000 </v>
     <v>       0.46875000       0.06250000       0.00000000 </v>
     <v>       0.46527778       0.06944444       0.00000000 </v>
     <v>       0.46180556       0.07638889       0.00000000 </v>
     <v>       0.45833333       0.08333333       0.00000000 </v>
     <v>       0.45486111       0.09027778       0.00000000 </v>
     <v>       0.45138889       0.09722222       0.00000000 </v>
     <v>       0.44791667       0.10416667       0.00000000 </v>
     <v>       0.44444444       0.11111111       0.00000000 </v>
     <v>       0.44097222       0.11805556       0.00000000 </v>
     <v>       0.43750000       0.12500000       0.00000000 </v>
     <v>       0.43402778       0.13194444       0.00000000 </v>
     <v>       0.43055556       0.13888889       0.00000000 </v>
     <v>       0.42708333       0.14583333       0.00000000 </v>
     <v>       0.42361111       0.15277778       0.00000000 </v>
     <v>       0.42013889       0.15972222       0.00000000 </v>
     <v>       0.41666667       0.16666667       0.00000000 </v>
     <v>       0.41319444       0.17361111       0.00000000 </v>
     <v>       0.40972222       0.18055556       0.00000000 </v>
     <v>       0.40625000       0.18750000       0.00000000 </v>
     <v>       0.40277778       0.19444444       0.00000000 </v>
     <v>       0.39930556       0.20138889       0.00000000 </v>
     <v>       0.39583333       0.20833333       0.00000000 </v>
     <v>       0.39236111       0.21527778       0.00000000 </v>
     <v>       0.38888889       0.22222222       0.00000000 </v>
     <v>       0.38541667       0.22916667       0.00000000 </v>
     <v>       0.38194444       0.23611111       0.00000000 </v>
     <v>       0.37847222       0.24305556       0.00000000 </v>
     <v>       0.37500000       0.25000000       0.00000000 </v>
     <v>       0.37152778       0.25694444       0.00000000 </v>
     <v>       0.36805556       0.26388889       0.00000000 </v>
     <v>       0.36458333       0.27083333       0.00000000 </v>
     <v>       0.36111111       0.27777778       0.00000000 </v>
     <v>       0.35763889       0.28472222       0.00000000 </v>
     <v>       0.35416667       0.29166667       0.00000000 </v>
     <v>       0.35069444       0.29861111       0.00000000 </v>
     <v>       0.34722222       0.30555556       0.00000000 </v>
     <v>       0.34375000       0.31250000       0.00000000 </v>
     <v>       0.34027778       0.31944444       0.00000000 </v>
     <v>       0.33680556       0.32638889       0.00000000 </v>
     <v>       0.33333333       0.33333333       0.00000000 </v>
     <v>       0.33333333       0.33333333       0.00000000 </v>
     <v>       0.32638889       0.32638889       0.00000000 </v>
     <v>       0.31944444       0.31944444       0.00000000 </v>
     <v>       0.31250000       0.31250000       0.00000000 </v>
     <v>       0.30555556       0.30555556       0.00000000 </v>
     <v>       0.29861111       0.29861111       0.00000000 </v>
     <v>       0.29166667       0.29166667       0.00000000 </v>
     <v>       0.28472222       0.28472222       0.00000000 </v>
     <v>       0.27777778       0.27777778       0.00000000 </v>
     <v>       0.27083333       0.27083333       0.00000000 </v>
     <v>       0.26388889       0.26388889       0.00000000 </v>
     <v>       0.25694444       0.25694444       0.00000000 </v>
     <v>       0.25000000       0.25000000       0.00000000 </v>
     <v>       0.24305556       0.24305556       0.00000000 </v>
     <v>       0.23611111       0.23611111       0.00000000 </v>
     <v>       0.22916667       0.22916667       0.00000000 </v>
     <v>       0.22222222       0.22222222       0.00000000 </v>
     <v>       0.21527778       0.21527778       0.00000000 </v>
     <v>       0.20833333       0.20833333       0.00000000 </v>
     <v>       0.20138889       0.20138889       0.00000000 </v>
     <v>       0.19444444       0.19444444       0.00000000 </v>
     <v>       0.18750000       0.18750000       0.00000000 </v>
     <v>       0.18055556       0.18055556       0.00000000 </v>
     <v>       0.17361111       0.17361111       0.00000000 </v>
     <v>       0.16666667       0.16666667       0.00000000 </v>
     <v>       0.15972222       0.15972222       0.00000000 </v>
     <v>       0.15277778       0.15277778       0.00000000 </v>
     <v>       0.14583333       0.14583333       0.00000000 </v>
     <v>       0.13888889       0.13888889       0.00000000 </v>
     <v>       0.13194444       0.13194444       0.00000000 </v>
     <v>       0.12500000       0.12500000       0.00000000 </v>
     <v>       0.11805556       0.11805556       0.00000000 </v>
     <v>       0.11111111       0.11111111       0.00000000 </v>
     <v>       0.10416667       0.10416667       0.00000000 </v>
     <v>       0.09722222       0.09722222       0.00000000 </v>
     <v>       0.09027778       0.09027778       0.00000000 </v>
     <v>       0.08333333       0.08333333       0.00000000 </v>
     <v>       0.07638889       0.07638889       0.00000000 </v>
     <v>       0.06944444       0.06944444       0.00000000 </v>
     <v>       0.06250000       0.06250000       0.00000000 </v>
     <v>       0.05555556       0.05555556       0.00000000 </v>
     <v>       0.04861111       0.04861111       0.00000000 </v>
     <v>       0.04166667       0.04166667       0.00000000 </v>
     <v>       0.03472222       0.03472222       0.00000000 </v>
     <v>       0.02777778       0.02777778       0.00000000 </v>
     <v>       0.02083333       0.02083333       0.00000000 </v>
     <v>       0.01388889       0.01388889       0.00000000 </v>
     <v>       0.00694444       0.00694444       0.00000000 </v>
     <v>       0.00000000       0.00000000       0.00000000 </v>
    </varray>
    <varray name="weights" >
     <v>       0.00680272 </v>
     <v>       0.00680272 </v>
     <v>       0.00680272 </v>
     <v>       0.00680272 </v>
     <v>       0.00680272 </v>
     <v>       0.00680272 </v>
     <v>       0.00680272 </v>
     <v>       0.00680272 </v>
     <v>       0.00680272 </v>
     <v>       0.00680272 </v>
     <v>       0.00680272 </v>
     <v>       0.00680272 </v>
     <v>       0.00680272 </v>
     <v>       0.00680272 </v>
     <v>       0.00680272 </v>
     <v>       0.00680272 </v>
     <v>       0.00680272 </v>
     <v>       0.00680272 </v>
     <v>       0.00680272 </v>
     <v>       0.00680272 </v>
     <v>       0.00680272 </v>
     <v>       0.00680272 </v>
     <v>       0.00680272 </v>
     <v>       0.00680272 </v>
     <v>       0.00680272 </v>
     <v>       0.00680272 </v>
     <v>       0.00680272 </v>
     <v>       0.00680272 </v>
     <v>       0.00680272 </v>
     <v>       0.00680272 </v>
     <v>       0.00680272 </v>
     <v>       0.00680272 </v>
     <v>       0.00680272 </v>
     <v>       0.00680272 </v>
     <v>       0.00680272 </v>
     <v>       0.00680272 </v>
     <v>       0.00680272 </v>
     <v>       0.00680272 </v>
     <v>       0.00680272 </v>
     <v>       0.00680272 </v>
     <v>       0.00680272 </v>
     <v>       0.00680272 </v>
     <v>       0.00680272 </v>
     <v>       0.00680272 </v>
     <v>       0.00680272 </v>
     <v>       0.00680272 </v>
     <v>       0.00680272 </v>
     <v>       0.00680272 </v>
     <v>       0.00680272 </v>
     <v>       0.00680272 </v>
     <v>       0.00680272 </v>
     <v>       0.00680272 </v>
     <v>       0.00680272 </v>
     <v>       0.00680272 </v>
     <v>       0.00680272 </v>
     <v>       0.00680272 </v>
     <v>       0.00680272 </v>
     <v>       0.00680272 </v>
     <v>       0.00680272 </v>
     <v>       0.00680272 </v>
     <v>       0.00680272 </v>
     <v>       0.00680272 </v>
     <v>       0.00680272 </v>
     <v>       0.00680272 </v>
     <v>       0.00680272 </v>
     <v>       0.00680272 </v>
     <v>       0.00680272 </v>
     <v>       0.00680272 </v>
     <v>       0.00680272 </v>
     <v>       0.00680272 </v>
     <v>       0.00680272 </v>
     <v>       0.00680272 </v>
     <v>       0.00680272 </v>
     <v>       0.00680272 </v>
     <v>       0.00680272 </v>
     <v>       0.00680272 </v>
     <v>       0.00680272 </v>
     <v>       0.00680272 </v>
     <v>       0.00680272 </v>
     <v>       0.00680272 </v>
     <v>       0.00680272 </v>
     <v>       0.00680272 </v>
     <v>       0.00680272 </v>
     <v>       0.00680272 </v>
     <v>       0.00680272 </v>
     <v>       0.00680272 </v>
     <v>       0.00680272 </v>
     <v>       0.00680272 </v>
     <v>       0.00680272 </v>
     <v>       0.00680272 </v>
     <v>       0.00680272 </v>
     <v>       0.00680272 </v>
     <v>       0.00680272 </v>
     <v>       0.00680272 </v>
     <v>       0.00680272 </v>
     <v>       0.00680272 </v>
     <v>       0.00680272 </v>
     <v>       0.00680272 </v>
     <v>       0.00680272 </v>
     <v>       0.00680272 </v>
     <v>       0.00680272 </v>
     <v>       0.00680272 </v>
     <v>       0.00680272 </v>
     <v>       0.00680272 </v>
     <v>       0.00680272 </v>
     <v>       0.00680272 </v>
     <v>       0.00680272 </v>
     <v>       0.00680272 </v>
     <v>       0.00680272 </v>
     <v>       0.00680272 </v>
     <v>       0.00680272 </v>
     <v>       0.00680272 </v>
     <v>       0.00680272 </v>
     <v>       0.00680272 </v>
     <v>       0.00680272 </v>
     <v>       0.00680272 </v>
     <v>       0.00680272 </v>
     <v>       0.00680272 </v>
     <v>       0.00680272 </v>
     <v>       0.00680272 </v>
     <v>       0.00680272 </v>
     <v>       0.00680272 </v>
     <v>       0.00680272 </v>
     <v>       0.00680272 </v>
     <v>       0.00680272 </v>
     <v>       0.00680272 </v>
     <v>       0.00680272 </v>
     <v>       0.00680272 </v>
     <v>       0.00680272 </v>
     <v>       0.00680272 </v>
     <v>       0.00680272 </v>
     <v>       0.00680272 </v>
     <v>       0.00680272 </v>
     <v>       0.00680272 </v>
     <v>       0.00680272 </v>
     <v>       0.00680272 </v>
     <v>       0.00680272 </v>
     <v>       0.00680272 </v>
     <v>       0.00680272 </v>
     <v>       0.00680272 </v>
     <v>       0.00680272 </v>
     <v>       0.00680272 </v>
     <v>       0.00680272 </v>
     <v>       0.00680272 </v>
     <v>       0.00680272 </v>
     <v>       0.00680272 </v>
     <v>       0.00680272 </v>
    </varray>
   </kpoints>
   <eigenvalues>
    <array>
     <dimension dim="1">band</dimension>
     <dimension dim="2">kpoint</dimension>
     <dimension dim="3">spin</dimension>
     <field>eigene</field>
     <set>
      <set comment="spin 1">
       <set comment="kpoint 1">
        <r>   -7.2853 </r>
        <r>   -5.5377 </r>
        <r>   -4.8524 </r>
        <r>   -4.6014 </r>
        <r>   -4.6013 </r>
        <r>   -4.5553 </r>
        <r>   -4.5553 </r>
        <r>   -4.2237 </r>
        <r>   -4.2237 </r>
        <r>   -4.0308 </r>
        <r>   -4.0308 </r>
        <r>   -0.6003 </r>
        <r>   -0.1406 </r>
        <r>   16.1577 </r>
        <r>   19.8667 </r>
        <r>   20.6103 </r>
        <r>   20.6104 </r>
        <r>   22.2330 </r>
        <r>   22.2330 </r>
        <r>   22.3670 </r>
        <r>   23.6071 </r>
        <r>   26.9304 </r>
        <r>   26.9305 </r>
        <r>   27.1546 </r>
        <r>   28.2735 </r>
        <r>   28.2740 </r>
        <r>   28.4094 </r>
        <r>   28.4095 </r>
        <r>   28.8807 </r>
        <r>   28.8807 </r>
        <r>   28.9588 </r>
        <r>   30.2852 </r>
        <r>   36.0325 </r>
        <r>   44.7247 </r>
        <r>   44.7248 </r>
        <r>   44.9319 </r>
        <r>   45.0564 </r>
        <r>   45.0564 </r>
        <r>   45.9941 </r>
        <r>   45.9945 </r>
        <r>   46.2079 </r>
        <r>   46.7812 </r>
        <r>   46.7813 </r>
        <r>   47.2400 </r>
        <r>   48.0405 </r>
        <r>   50.0391 </r>
        <r>   58.3456 </r>
        <r>   70.5707 </r>
       </set>
       <set comment="kpoint 2">
        <r>   -7.2821 </r>
        <r>   -5.5362 </r>
        <r>   -4.8521 </r>
        <r>   -4.6018 </r>
        <r>   -4.6006 </r>
        <r>   -4.5557 </r>
        <r>   -4.5546 </r>
        <r>   -4.2244 </r>
        <r>   -4.2240 </r>
        <r>   -4.0327 </r>
        <r>   -4.0307 </r>
        <r>   -0.5950 </r>
        <r>   -0.1390 </r>
        <r>   16.1613 </r>
        <r>   19.8634 </r>
        <r>   20.5239 </r>
        <r>   20.5608 </r>
        <r>   22.0247 </r>
        <r>   22.2817 </r>
        <r>   22.6186 </r>
        <r>   23.6280 </r>
        <r>   26.8707 </r>
        <r>   26.8711 </r>
        <r>   27.0614 </r>
        <r>   28.1337 </r>
        <r>   28.2982 </r>
        <r>   28.3185 </r>
        <r>   28.3443 </r>
        <r>   28.9728 </r>
        <r>   28.9979 </r>
        <r>   29.2475 </r>
        <r>   30.3333 </r>
        <r>   36.0472 </r>
        <r>   44.5891 </r>
        <r>   44.7004 </r>
        <r>   44.8932 </r>
        <r>   44.9304 </r>
        <r>   44.9607 </r>
        <r>   46.0627 </r>
        <r>   46.0957 </r>
        <r>   46.3144 </r>
        <r>   46.7765 </r>
        <r>   46.8112 </r>
        <r>   47.2710 </r>
        <r>   48.1285 </r>
        <r>   50.0752 </r>
        <r>   58.3525 </r>
        <r>   70.5204 </r>
       </set>
       <set comment="kpoint 3">
        <r>   -7.2723 </r>
        <r>   -5.5319 </r>
        <r>   -4.8509 </r>
        <r>   -4.6029 </r>
        <r>   -4.5983 </r>
        <r>   -4.5568 </r>
        <r>   -4.5524 </r>
        <r>   -4.2263 </r>
        <r>   -4.2249 </r>
        <r>   -4.0385 </r>
        <r>   -4.0307 </r>
        <r>   -0.5794 </r>
        <r>   -0.1340 </r>
        <r>   16.1718 </r>
        <r>   19.8480 </r>
        <r>   20.2905 </r>
        <r>   20.4274 </r>
        <r>   21.8174 </r>
        <r>   22.4118 </r>
        <r>   22.9324 </r>
        <r>   23.6850 </r>
        <r>   26.7211 </r>
        <r>   26.7330 </r>
        <r>   26.8048 </r>
        <r>   27.7475 </r>
        <r>   28.0887 </r>
        <r>   28.4232 </r>
        <r>   28.5276 </r>
        <r>   29.1490 </r>
        <r>   29.2255 </r>
        <r>   29.7498 </r>
        <r>   30.4750 </r>
        <r>   36.0912 </r>
        <r>   44.2580 </r>
        <r>   44.6313 </r>
        <r>   44.6377 </r>
        <r>   44.7443 </r>
        <r>   44.7937 </r>
        <r>   46.1795 </r>
        <r>   46.3298 </r>
        <r>   46.4847 </r>
        <r>   46.8448 </r>
        <r>   46.8972 </r>
        <r>   47.3684 </r>
        <r>   48.3666 </r>
        <r>   50.1827 </r>
        <r>   58.3733 </r>
        <r>   70.3547 </r>
       </set>
       <set comment="kpoint 4">
        <r>   -7.2562 </r>
        <r>   -5.5246 </r>
        <r>   -4.8492 </r>
        <r>   -4.6047 </r>
        <r>   -4.5945 </r>
        <r>   -4.5588 </r>
        <r>   -4.5490 </r>
        <r>   -4.2297 </r>
        <r>   -4.2264 </r>
        <r>   -4.0481 </r>
        <r>   -4.0305 </r>
        <r>   -0.5535 </r>
        <r>   -0.1256 </r>
        <r>   16.1894 </r>
        <r>   19.7643 </r>
        <r>   20.0135 </r>
        <r>   20.2393 </r>
        <r>   21.6489 </r>
        <r>   22.5918 </r>
        <r>   23.2183 </r>
        <r>   23.7571 </r>
        <r>   26.4325 </r>
        <r>   26.5293 </r>
        <r>   26.5959 </r>
        <r>   27.3982 </r>
        <r>   27.8611 </r>
        <r>   28.5420 </r>
        <r>   28.7745 </r>
        <r>   29.3884 </r>
        <r>   29.4829 </r>
        <r>   30.2905 </r>
        <r>   30.7012 </r>
        <r>   36.1638 </r>
        <r>   43.8378 </r>
        <r>   44.2732 </r>
        <r>   44.4839 </r>
        <r>   44.5265 </r>
        <r>   44.6442 </r>
        <r>   46.2531 </r>
        <r>   46.5221 </r>
        <r>   46.6186 </r>
        <r>   47.0300 </r>
        <r>   47.1101 </r>
        <r>   47.5318 </r>
        <r>   48.7097 </r>
        <r>   50.3580 </r>
        <r>   58.4080 </r>
        <r>   70.1123 </r>
       </set>
       <set comment="kpoint 5">
        <r>   -7.2335 </r>
        <r>   -5.5145 </r>
        <r>   -4.8467 </r>
        <r>   -4.6071 </r>
        <r>   -4.5892 </r>
        <r>   -4.5613 </r>
        <r>   -4.5439 </r>
        <r>   -4.2344 </r>
        <r>   -4.2285 </r>
        <r>   -4.0610 </r>
        <r>   -4.0303 </r>
        <r>   -0.5175 </r>
        <r>   -0.1139 </r>
        <r>   16.2139 </r>
        <r>   19.4376 </r>
        <r>   19.9133 </r>
        <r>   20.0202 </r>
        <r>   21.4999 </r>
        <r>   22.7942 </r>
        <r>   23.4522 </r>
        <r>   23.8019 </r>
        <r>   25.9923 </r>
        <r>   26.3296 </r>
        <r>   26.5385 </r>
        <r>   27.0855 </r>
        <r>   27.6319 </r>
        <r>   28.6545 </r>
        <r>   29.0616 </r>
        <r>   29.6651 </r>
        <r>   29.7541 </r>
        <r>   30.8496 </r>
        <r>   30.9967 </r>
        <r>   36.2653 </r>
        <r>   43.3797 </r>
        <r>   43.8769 </r>
        <r>   44.2103 </r>
        <r>   44.3969 </r>
        <r>   44.4553 </r>
        <r>   46.2684 </r>
        <r>   46.5121 </r>
        <r>   46.9332 </r>
        <r>   47.1990 </r>
        <r>   47.4605 </r>
        <r>   47.7429 </r>
        <r>   49.1242 </r>
        <r>   50.5959 </r>
        <r>   58.4570 </r>
        <r>   69.8002 </r>
       </set>
       <set comment="kpoint 6">
        <r>   -7.2044 </r>
        <r>   -5.5018 </r>
        <r>   -4.8435 </r>
        <r>   -4.6102 </r>
        <r>   -4.5824 </r>
        <r>   -4.5644 </r>
        <r>   -4.5374 </r>
        <r>   -4.2404 </r>
        <r>   -4.2311 </r>
        <r>   -4.0770 </r>
        <r>   -4.0301 </r>
        <r>   -0.4717 </r>
        <r>   -0.0987 </r>
        <r>   16.2454 </r>
        <r>   18.9968 </r>
        <r>   19.7840 </r>
        <r>   19.8881 </r>
        <r>   21.3584 </r>
        <r>   22.9978 </r>
        <r>   23.6043 </r>
        <r>   23.7969 </r>
        <r>   25.5183 </r>
        <r>   26.1427 </r>
        <r>   26.6157 </r>
        <r>   26.7957 </r>
        <r>   27.4053 </r>
        <r>   28.7581 </r>
        <r>   29.3713 </r>
        <r>   29.9649 </r>
        <r>   30.0347 </r>
        <r>   31.3436 </r>
        <r>   31.4212 </r>
        <r>   36.3942 </r>
        <r>   42.9042 </r>
        <r>   43.4661 </r>
        <r>   43.9333 </r>
        <r>   44.2391 </r>
        <r>   44.2510 </r>
        <r>   46.2397 </r>
        <r>   46.5088 </r>
        <r>   47.2626 </r>
        <r>   47.3957 </r>
        <r>   47.8316 </r>
        <r>   47.9755 </r>
        <r>   49.5890 </r>
        <r>   50.8892 </r>
        <r>   58.5199 </r>
        <r>   69.4470 </r>
       </set>
       <set comment="kpoint 7">
        <r>   -7.1689 </r>
        <r>   -5.4864 </r>
        <r>   -4.8397 </r>
        <r>   -4.6138 </r>
        <r>   -4.5743 </r>
        <r>   -4.5681 </r>
        <r>   -4.5295 </r>
        <r>   -4.2482 </r>
        <r>   -4.2342 </r>
        <r>   -4.0956 </r>
        <r>   -4.0298 </r>
        <r>   -0.4164 </r>
        <r>   -0.0799 </r>
        <r>   16.2835 </r>
        <r>   18.5248 </r>
        <r>   19.5391 </r>
        <r>   19.8702 </r>
        <r>   21.2199 </r>
        <r>   23.1836 </r>
        <r>   23.5220 </r>
        <r>   23.8856 </r>
        <r>   25.0287 </r>
        <r>   25.9853 </r>
        <r>   26.5199 </r>
        <r>   26.8385 </r>
        <r>   27.1830 </r>
        <r>   28.8578 </r>
        <r>   29.6972 </r>
        <r>   30.2794 </r>
        <r>   30.3231 </r>
        <r>   31.7252 </r>
        <r>   32.0016 </r>
        <r>   36.5492 </r>
        <r>   42.4188 </r>
        <r>   43.0504 </r>
        <r>   43.6574 </r>
        <r>   44.0053 </r>
        <r>   44.0951 </r>
        <r>   46.1844 </r>
        <r>   46.5201 </r>
        <r>   47.6009 </r>
        <r>   47.6136 </r>
        <r>   48.2084 </r>
        <r>   48.2143 </r>
        <r>   50.0902 </r>
        <r>   51.2304 </r>
        <r>   58.5977 </r>
        <r>   69.0640 </r>
       </set>
       <set comment="kpoint 8">
        <r>   -7.1271 </r>
        <r>   -5.4686 </r>
        <r>   -4.8356 </r>
        <r>   -4.6178 </r>
        <r>   -4.5724 </r>
        <r>   -4.5646 </r>
        <r>   -4.5203 </r>
        <r>   -4.2578 </r>
        <r>   -4.2378 </r>
        <r>   -4.1162 </r>
        <r>   -4.0295 </r>
        <r>   -0.3519 </r>
        <r>   -0.0576 </r>
        <r>   16.3282 </r>
        <r>   18.0379 </r>
        <r>   19.2901 </r>
        <r>   19.8495 </r>
        <r>   21.0827 </r>
        <r>   23.2736 </r>
        <r>   23.3321 </r>
        <r>   24.0312 </r>
        <r>   24.5336 </r>
        <r>   25.8788 </r>
        <r>   26.2538 </r>
        <r>   26.9655 </r>
        <r>   27.1719 </r>
        <r>   28.9622 </r>
        <r>   30.0346 </r>
        <r>   30.6054 </r>
        <r>   30.6185 </r>
        <r>   32.1275 </r>
        <r>   32.5893 </r>
        <r>   36.7273 </r>
        <r>   41.9298 </r>
        <r>   42.6361 </r>
        <r>   43.3848 </r>
        <r>   43.7613 </r>
        <r>   43.9337 </r>
        <r>   46.1134 </r>
        <r>   46.5456 </r>
        <r>   47.8483 </r>
        <r>   47.9489 </r>
        <r>   48.4505 </r>
        <r>   48.5885 </r>
        <r>   50.6188 </r>
        <r>   51.6107 </r>
        <r>   58.6913 </r>
        <r>   68.6394 </r>
       </set>
       <set comment="kpoint 9">
        <r>   -7.0790 </r>
        <r>   -5.4484 </r>
        <r>   -4.8309 </r>
        <r>   -4.6220 </r>
        <r>   -4.5767 </r>
        <r>   -4.5532 </r>
        <r>   -4.5097 </r>
        <r>   -4.2695 </r>
        <r>   -4.2419 </r>
        <r>   -4.1380 </r>
        <r>   -4.0292 </r>
        <r>   -0.2786 </r>
        <r>   -0.0315 </r>
        <r>   16.3794 </r>
        <r>   17.5448 </r>
        <r>   19.0400 </r>
        <r>   19.8227 </r>
        <r>   20.9461 </r>
        <r>   22.9579 </r>
        <r>   23.4231 </r>
        <r>   24.0385 </r>
        <r>   24.1756 </r>
        <r>   25.8445 </r>
        <r>   25.9957 </r>
        <r>   26.7535 </r>
        <r>   27.5724 </r>
        <r>   29.0852 </r>
        <r>   30.3829 </r>
        <r>   30.9207 </r>
        <r>   30.9414 </r>
        <r>   32.5459 </r>
        <r>   33.1841 </r>
        <r>   36.9261 </r>
        <r>   41.4456 </r>
        <r>   42.2326 </r>
        <r>   43.1172 </r>
        <r>   43.5125 </r>
        <r>   43.7699 </r>
        <r>   46.0341 </r>
        <r>   46.5845 </r>
        <r>   48.0975 </r>
        <r>   48.3071 </r>
        <r>   48.6827 </r>
        <r>   48.9738 </r>
        <r>   51.1694 </r>
        <r>   52.0227 </r>
        <r>   58.8026 </r>
        <r>   68.2015 </r>
       </set>
       <set comment="kpoint 10">
        <r>   -7.0247 </r>
        <r>   -5.4262 </r>
        <r>   -4.8259 </r>
        <r>   -4.6265 </r>
        <r>   -4.5810 </r>
        <r>   -4.5407 </r>
        <r>   -4.4978 </r>
        <r>   -4.2839 </r>
        <r>   -4.2464 </r>
        <r>   -4.1604 </r>
        <r>   -4.0290 </r>
        <r>   -0.1969 </r>
        <r>   -0.0015 </r>
        <r>   16.4365 </r>
        <r>   17.0483 </r>
        <r>   18.7904 </r>
        <r>   19.7863 </r>
        <r>   20.8076 </r>
        <r>   22.6124 </r>
        <r>   23.4428 </r>
        <r>   23.5455 </r>
        <r>   24.3127 </r>
        <r>   25.7442 </r>
        <r>   25.8909 </r>
        <r>   26.5466 </r>
        <r>   27.9991 </r>
        <r>   29.2389 </r>
        <r>   30.7385 </r>
        <r>   31.2293 </r>
        <r>   31.2850 </r>
        <r>   32.9697 </r>
        <r>   33.7818 </r>
        <r>   37.1391 </r>
        <r>   40.9602 </r>
        <r>   41.8455 </r>
        <r>   42.8538 </r>
        <r>   43.2620 </r>
        <r>   43.6055 </r>
        <r>   45.9511 </r>
        <r>   46.6341 </r>
        <r>   48.3575 </r>
        <r>   48.6696 </r>
        <r>   48.9068 </r>
        <r>   49.3609 </r>
        <r>   51.7356 </r>
        <r>   52.4579 </r>
        <r>   58.9290 </r>
        <r>   67.8000 </r>
       </set>
       <set comment="kpoint 11">
        <r>   -6.9643 </r>
        <r>   -5.4023 </r>
        <r>   -4.8209 </r>
        <r>   -4.6313 </r>
        <r>   -4.5849 </r>
        <r>   -4.5270 </r>
        <r>   -4.4846 </r>
        <r>   -4.3009 </r>
        <r>   -4.2511 </r>
        <r>   -4.1825 </r>
        <r>   -4.0287 </r>
        <r>   -0.1072 </r>
        <r>    0.0325 </r>
        <r>   16.4995 </r>
        <r>   16.5509 </r>
        <r>   18.5423 </r>
        <r>   19.7370 </r>
        <r>   20.6620 </r>
        <r>   22.2638 </r>
        <r>   23.0577 </r>
        <r>   23.3916 </r>
        <r>   24.4405 </r>
        <r>   25.4990 </r>
        <r>   26.0200 </r>
        <r>   26.3464 </r>
        <r>   28.4144 </r>
        <r>   29.4490 </r>
        <r>   31.0999 </r>
        <r>   31.5461 </r>
        <r>   31.6372 </r>
        <r>   33.3959 </r>
        <r>   34.3821 </r>
        <r>   37.3563 </r>
        <r>   40.4817 </r>
        <r>   41.4861 </r>
        <r>   42.5953 </r>
        <r>   43.0133 </r>
        <r>   43.4470 </r>
        <r>   45.8676 </r>
        <r>   46.6941 </r>
        <r>   48.6284 </r>
        <r>   49.0386 </r>
        <r>   49.1249 </r>
        <r>   49.7525 </r>
        <r>   52.3177 </r>
        <r>   52.9104 </r>
        <r>   59.0727 </r>
        <r>   67.2550 </r>
       </set>
       <set comment="kpoint 12">
        <r>   -6.8979 </r>
        <r>   -5.3768 </r>
        <r>   -4.8158 </r>
        <r>   -4.6362 </r>
        <r>   -4.5881 </r>
        <r>   -4.5119 </r>
        <r>   -4.4703 </r>
        <r>   -4.3215 </r>
        <r>   -4.2564 </r>
        <r>   -4.2036 </r>
        <r>   -4.0285 </r>
        <r>   -0.0098 </r>
        <r>    0.0706 </r>
        <r>   16.0539 </r>
        <r>   16.5676 </r>
        <r>   18.2972 </r>
        <r>   19.6725 </r>
        <r>   20.4988 </r>
        <r>   21.9365 </r>
        <r>   22.5749 </r>
        <r>   23.2826 </r>
        <r>   24.5577 </r>
        <r>   25.2601 </r>
        <r>   26.1506 </r>
        <r>   26.2177 </r>
        <r>   28.7774 </r>
        <r>   29.7473 </r>
        <r>   31.4690 </r>
        <r>   31.8672 </r>
        <r>   31.9951 </r>
        <r>   33.8215 </r>
        <r>   34.9805 </r>
        <r>   37.5627 </r>
        <r>   40.0128 </r>
        <r>   41.1704 </r>
        <r>   42.3430 </r>
        <r>   42.7658 </r>
        <r>   43.2855 </r>
        <r>   45.7865 </r>
        <r>   46.7636 </r>
        <r>   48.9075 </r>
        <r>   49.3384 </r>
        <r>   49.4134 </r>
        <r>   50.1478 </r>
        <r>   52.9088 </r>
        <r>   53.3744 </r>
        <r>   59.2350 </r>
        <r>   66.6949 </r>
       </set>
       <set comment="kpoint 13">
        <r>   -6.8257 </r>
        <r>   -5.3502 </r>
        <r>   -4.8109 </r>
        <r>   -4.6412 </r>
        <r>   -4.5900 </r>
        <r>   -4.4956 </r>
        <r>   -4.4546 </r>
        <r>   -4.3454 </r>
        <r>   -4.2621 </r>
        <r>   -4.2233 </r>
        <r>   -4.0283 </r>
        <r>    0.0950 </r>
        <r>    0.1130 </r>
        <r>   15.5587 </r>
        <r>   16.6403 </r>
        <r>   18.0554 </r>
        <r>   19.5883 </r>
        <r>   20.3043 </r>
        <r>   21.6557 </r>
        <r>   22.0991 </r>
        <r>   23.1326 </r>
        <r>   24.6636 </r>
        <r>   25.0273 </r>
        <r>   25.9603 </r>
        <r>   26.4679 </r>
        <r>   29.0699 </r>
        <r>   30.1475 </r>
        <r>   31.8457 </r>
        <r>   32.1945 </r>
        <r>   32.3595 </r>
        <r>   34.2452 </r>
        <r>   35.5706 </r>
        <r>   37.7338 </r>
        <r>   39.5617 </r>
        <r>   40.9231 </r>
        <r>   42.0968 </r>
        <r>   42.5218 </r>
        <r>   43.1270 </r>
        <r>   45.7098 </r>
        <r>   46.8421 </r>
        <r>   49.1950 </r>
        <r>   49.5479 </r>
        <r>   49.7941 </r>
        <r>   50.5477 </r>
        <r>   53.5097 </r>
        <r>   53.8451 </r>
        <r>   59.4163 </r>
        <r>   66.0546 </r>
       </set>
       <set comment="kpoint 14">
        <r>   -6.7477 </r>
        <r>   -5.3228 </r>
        <r>   -4.8062 </r>
        <r>   -4.6465 </r>
        <r>   -4.5900 </r>
        <r>   -4.4781 </r>
        <r>   -4.4380 </r>
        <r>   -4.3723 </r>
        <r>   -4.2681 </r>
        <r>   -4.2416 </r>
        <r>   -4.0282 </r>
        <r>    0.1600 </r>
        <r>    0.2068 </r>
        <r>   15.0658 </r>
        <r>   16.7165 </r>
        <r>   17.8175 </r>
        <r>   19.4756 </r>
        <r>   20.0712 </r>
        <r>   21.4414 </r>
        <r>   21.6317 </r>
        <r>   22.9559 </r>
        <r>   24.7572 </r>
        <r>   24.8007 </r>
        <r>   25.7757 </r>
        <r>   26.7555 </r>
        <r>   29.3136 </r>
        <r>   30.6242 </r>
        <r>   32.2266 </r>
        <r>   32.5280 </r>
        <r>   32.7303 </r>
        <r>   34.6660 </r>
        <r>   36.1367 </r>
        <r>   37.8352 </r>
        <r>   39.1444 </r>
        <r>   40.7761 </r>
        <r>   41.8566 </r>
        <r>   42.2822 </r>
        <r>   42.9718 </r>
        <r>   45.6393 </r>
        <r>   46.9292 </r>
        <r>   49.4902 </r>
        <r>   49.7541 </r>
        <r>   50.1799 </r>
        <r>   50.9524 </r>
        <r>   54.1191 </r>
        <r>   54.3181 </r>
        <r>   59.6173 </r>
        <r>   65.4314 </r>
       </set>
       <set comment="kpoint 15">
        <r>   -6.6643 </r>
        <r>   -5.2952 </r>
        <r>   -4.8019 </r>
        <r>   -4.6520 </r>
        <r>   -4.5875 </r>
        <r>   -4.4595 </r>
        <r>   -4.4203 </r>
        <r>   -4.4016 </r>
        <r>   -4.2744 </r>
        <r>   -4.2587 </r>
        <r>   -4.0282 </r>
        <r>    0.2116 </r>
        <r>    0.3253 </r>
        <r>   14.5759 </r>
        <r>   16.7948 </r>
        <r>   17.5837 </r>
        <r>   19.3137 </r>
        <r>   19.8202 </r>
        <r>   21.1744 </r>
        <r>   21.2970 </r>
        <r>   22.7627 </r>
        <r>   24.5801 </r>
        <r>   24.8383 </r>
        <r>   25.5966 </r>
        <r>   27.0707 </r>
        <r>   29.5380 </r>
        <r>   31.1449 </r>
        <r>   32.6131 </r>
        <r>   32.8675 </r>
        <r>   33.1070 </r>
        <r>   35.0841 </r>
        <r>   36.6360 </r>
        <r>   37.8357 </r>
        <r>   38.8037 </r>
        <r>   40.7599 </r>
        <r>   41.6228 </r>
        <r>   42.0476 </r>
        <r>   42.8205 </r>
        <r>   45.5772 </r>
        <r>   47.0248 </r>
        <r>   49.7926 </r>
        <r>   49.9573 </r>
        <r>   50.5710 </r>
        <r>   51.3621 </r>
        <r>   54.7361 </r>
        <r>   54.7896 </r>
        <r>   59.8382 </r>
        <r>   64.7944 </r>
       </set>
       <set comment="kpoint 16">
        <r>   -6.5757 </r>
        <r>   -5.2677 </r>
        <r>   -4.7977 </r>
        <r>   -4.6577 </r>
        <r>   -4.5821 </r>
        <r>   -4.4399 </r>
        <r>   -4.4327 </r>
        <r>   -4.4017 </r>
        <r>   -4.2809 </r>
        <r>   -4.2749 </r>
        <r>   -4.0283 </r>
        <r>    0.2681 </r>
        <r>    0.4503 </r>
        <r>   14.0894 </r>
        <r>   16.8730 </r>
        <r>   17.3545 </r>
        <r>   19.0681 </r>
        <r>   19.6000 </r>
        <r>   20.7294 </r>
        <r>   21.2107 </r>
        <r>   22.5602 </r>
        <r>   24.3658 </r>
        <r>   24.9073 </r>
        <r>   25.4231 </r>
        <r>   27.4064 </r>
        <r>   29.7610 </r>
        <r>   31.6889 </r>
        <r>   33.0047 </r>
        <r>   33.2130 </r>
        <r>   33.4896 </r>
        <r>   35.4999 </r>
        <r>   36.9522 </r>
        <r>   37.7265 </r>
        <r>   38.6562 </r>
        <r>   40.8813 </r>
        <r>   41.3954 </r>
        <r>   41.8184 </r>
        <r>   42.6733 </r>
        <r>   45.5256 </r>
        <r>   47.1285 </r>
        <r>   50.1019 </r>
        <r>   50.1579 </r>
        <r>   50.9673 </r>
        <r>   51.7767 </r>
        <r>   55.2560 </r>
        <r>   55.3597 </r>
        <r>   60.0788 </r>
        <r>   64.1443 </r>
       </set>
       <set comment="kpoint 17">
        <r>   -6.4824 </r>
        <r>   -5.2413 </r>
        <r>   -4.7936 </r>
        <r>   -4.6633 </r>
        <r>   -4.5734 </r>
        <r>   -4.4649 </r>
        <r>   -4.4194 </r>
        <r>   -4.3822 </r>
        <r>   -4.2905 </r>
        <r>   -4.2876 </r>
        <r>   -4.0284 </r>
        <r>    0.3297 </r>
        <r>    0.5815 </r>
        <r>   13.6066 </r>
        <r>   16.9477 </r>
        <r>   17.1300 </r>
        <r>   18.7347 </r>
        <r>   19.4320 </r>
        <r>   20.3003 </r>
        <r>   21.1664 </r>
        <r>   22.3526 </r>
        <r>   24.1576 </r>
        <r>   24.9643 </r>
        <r>   25.2552 </r>
        <r>   27.7578 </r>
        <r>   29.9891 </r>
        <r>   32.2445 </r>
        <r>   33.4014 </r>
        <r>   33.5645 </r>
        <r>   33.8779 </r>
        <r>   35.9136 </r>
        <r>   36.9353 </r>
        <r>   37.5280 </r>
        <r>   38.8519 </r>
        <r>   41.1181 </r>
        <r>   41.1746 </r>
        <r>   41.5953 </r>
        <r>   42.5306 </r>
        <r>   45.4866 </r>
        <r>   47.2404 </r>
        <r>   50.3556 </r>
        <r>   50.4177 </r>
        <r>   51.3679 </r>
        <r>   52.1964 </r>
        <r>   55.7141 </r>
        <r>   55.9893 </r>
        <r>   60.3364 </r>
        <r>   63.4874 </r>
       </set>
       <set comment="kpoint 18">
        <r>   -6.3846 </r>
        <r>   -5.2162 </r>
        <r>   -4.7890 </r>
        <r>   -4.6684 </r>
        <r>   -4.5615 </r>
        <r>   -4.4980 </r>
        <r>   -4.3980 </r>
        <r>   -4.3618 </r>
        <r>   -4.3058 </r>
        <r>   -4.2945 </r>
        <r>   -4.0287 </r>
        <r>    0.3966 </r>
        <r>    0.7187 </r>
        <r>   13.1279 </r>
        <r>   16.9104 </r>
        <r>   17.0131 </r>
        <r>   18.3474 </r>
        <r>   19.2953 </r>
        <r>   19.8926 </r>
        <r>   21.1522 </r>
        <r>   22.1433 </r>
        <r>   23.9557 </r>
        <r>   25.0104 </r>
        <r>   25.0928 </r>
        <r>   28.1224 </r>
        <r>   30.2293 </r>
        <r>   32.8022 </r>
        <r>   33.8018 </r>
        <r>   33.9218 </r>
        <r>   34.2711 </r>
        <r>   36.3222 </r>
        <r>   36.6637 </r>
        <r>   37.2746 </r>
        <r>   39.3120 </r>
        <r>   40.9604 </r>
        <r>   41.3784 </r>
        <r>   41.4365 </r>
        <r>   42.3925 </r>
        <r>   45.4644 </r>
        <r>   47.3603 </r>
        <r>   50.5493 </r>
        <r>   50.7397 </r>
        <r>   51.7734 </r>
        <r>   52.6208 </r>
        <r>   56.1586 </r>
        <r>   56.6221 </r>
        <r>   60.6078 </r>
        <r>   62.8255 </r>
       </set>
       <set comment="kpoint 19">
        <r>   -6.2831 </r>
        <r>   -5.1935 </r>
        <r>   -4.7834 </r>
        <r>   -4.6726 </r>
        <r>   -4.5457 </r>
        <r>   -4.5312 </r>
        <r>   -4.3758 </r>
        <r>   -4.3407 </r>
        <r>   -4.3209 </r>
        <r>   -4.3015 </r>
        <r>   -4.0290 </r>
        <r>    0.4689 </r>
        <r>    0.8617 </r>
        <r>   12.6535 </r>
        <r>   16.6960 </r>
        <r>   17.0597 </r>
        <r>   17.9342 </r>
        <r>   19.1732 </r>
        <r>   19.5161 </r>
        <r>   21.1594 </r>
        <r>   21.9344 </r>
        <r>   23.7601 </r>
        <r>   24.9359 </r>
        <r>   25.0466 </r>
        <r>   28.4980 </r>
        <r>   30.4805 </r>
        <r>   33.3595 </r>
        <r>   34.2077 </r>
        <r>   34.2849 </r>
        <r>   34.6690 </r>
        <r>   36.2903 </r>
        <r>   36.6898 </r>
        <r>   37.0342 </r>
        <r>   39.8837 </r>
        <r>   40.7534 </r>
        <r>   41.1700 </r>
        <r>   41.8058 </r>
        <r>   42.2594 </r>
        <r>   45.4649 </r>
        <r>   47.4882 </r>
        <r>   50.7428 </r>
        <r>   51.0677 </r>
        <r>   52.1835 </r>
        <r>   53.0503 </r>
        <r>   56.5913 </r>
        <r>   57.2611 </r>
        <r>   60.8803 </r>
        <r>   62.1602 </r>
       </set>
       <set comment="kpoint 20">
        <r>   -6.1786 </r>
[...]
       <r>   49.4362    0.0000 </r>
       <r>   49.4362    0.0000 </r>
       <r>   53.7938    0.0000 </r>
       <r>   53.7938    0.0000 </r>
       <r>   54.6648    0.0000 </r>
       <r>   54.6648    0.0000 </r>
       <r>   55.0978    0.0000 </r>
       <r>   55.0978    0.0000 </r>
       <r>   57.9065    0.0000 </r>
       <r>   57.9065    0.0000 </r>
      </set>
      <set comment="kpoint 49">
       <r>   -4.9743    1.0000 </r>
       <r>   -4.9743    1.0000 </r>
       <r>   -4.7871    1.0000 </r>
       <r>   -4.7871    1.0000 </r>
       <r>   -4.5399    1.0000 </r>
       <r>   -4.5399    1.0000 </r>
       <r>   -4.3559    1.0000 </r>
       <r>   -4.3559    1.0000 </r>
       <r>   -3.9789    1.0000 </r>
       <r>   -3.9789    1.0000 </r>
       <r>    0.3576    1.0000 </r>
       <r>    0.3576    1.0000 </r>
       <r>    7.6402    0.0000 </r>
       <r>    7.6402    0.0000 </r>
       <r>    7.8662    0.0000 </r>
       <r>    7.8662    0.0000 </r>
       <r>   12.5601    0.0000 </r>
       <r>   12.5601    0.0000 </r>
       <r>   19.5533    0.0000 </r>
       <r>   19.5533    0.0000 </r>
       <r>   20.9409    0.0000 </r>
       <r>   20.9409    0.0000 </r>
       <r>   28.5495    0.0000 </r>
       <r>   28.5495    0.0000 </r>
       <r>   30.5120    0.0000 </r>
       <r>   30.5120    0.0000 </r>
       <r>   36.6769    0.0000 </r>
       <r>   36.6769    0.0000 </r>
       <r>   40.5327    0.0000 </r>
       <r>   40.5327    0.0000 </r>
       <r>   40.7545    0.0000 </r>
       <r>   40.7545    0.0000 </r>
       <r>   42.7930    0.0000 </r>
       <r>   42.7930    0.0000 </r>
       <r>   43.3201    0.0000 </r>
       <r>   43.3201    0.0000 </r>
       <r>   46.4688    0.0000 </r>
       <r>   46.4688    0.0000 </r>
       <r>   49.1871    0.0000 </r>
       <r>   49.1871    0.0000 </r>
       <r>   52.1207    0.0000 </r>
       <r>   52.1207    0.0000 </r>
       <r>   54.8901    0.0000 </r>
       <r>   54.8901    0.0000 </r>
       <r>   60.5787    0.0000 </r>
       <r>   60.5787    0.0000 </r>
       <r>   62.4439    0.0000 </r>
       <r>   62.4439    0.0000 </r>
      </set>
      <set comment="kpoint 50">
       <r>   -4.9345    1.0000 </r>
       <r>   -4.9345    1.0000 </r>
       <r>   -4.8027    1.0000 </r>
       <r>   -4.8027    1.0000 </r>
       <r>   -4.5414    1.0000 </r>
       <r>   -4.5414    1.0000 </r>
       <r>   -4.3023    1.0000 </r>
       <r>   -4.3023    1.0000 </r>
       <r>   -4.0381    1.0000 </r>
       <r>   -4.0381    1.0000 </r>
       <r>    3.0844    0.0000 </r>
       <r>    3.0844    0.0000 </r>
       <r>    4.1893    0.0000 </r>
       <r>    4.1893    0.0000 </r>
       <r>    7.3087    0.0000 </r>
       <r>    7.3087    0.0000 </r>
       <r>   14.3358    0.0000 </r>
       <r>   14.3358    0.0000 </r>
       <r>   17.3280    0.0000 </r>
       <r>   17.3280    0.0000 </r>
       <r>   20.1458    0.0000 </r>
       <r>   20.1458    0.0000 </r>
       <r>   29.0668    0.0000 </r>
       <r>   29.0668    0.0000 </r>
       <r>   35.5152    0.0000 </r>
       <r>   35.5152    0.0000 </r>
       <r>   36.1185    0.0000 </r>
       <r>   36.1185    0.0000 </r>
       <r>   38.6707    0.0000 </r>
       <r>   38.6707    0.0000 </r>
       <r>   40.1189    0.0000 </r>
       <r>   40.1189    0.0000 </r>
       <r>   40.9649    0.0000 </r>
       <r>   40.9649    0.0000 </r>
       <r>   44.3603    0.0000 </r>
       <r>   44.3603    0.0000 </r>
       <r>   47.5818    0.0000 </r>
       <r>   47.5818    0.0000 </r>
       <r>   48.7692    0.0000 </r>
       <r>   48.7692    0.0000 </r>
       <r>   55.7822    0.0000 </r>
       <r>   55.7822    0.0000 </r>
       <r>   57.0246    0.0000 </r>
       <r>   57.0246    0.0000 </r>
       <r>   59.2844    0.0000 </r>
       <r>   59.2844    0.0000 </r>
       <r>   61.5409    0.0000 </r>
       <r>   61.5409    0.0000 </r>
      </set>
     </set>
    </set>
   </array>
  </eigenvalues>
  <separator name="orbital magnetization" >
   <v name="MAGDIPOLOUT">      0.00000000      0.00000000      0.00000000</v>
  </separator>
  <dos>
   <i name="efermi">      2.84707323 </i>
   <total>
    <array>
     <dimension dim="1">gridpoints</dimension>
     <dimension dim="2">spin</dimension>
     <field>energy</field>
     <field>total</field>
     <field>integrated</field>
     <set>
      <set comment="spin 1">
       <r>   -11.1781     0.0000     0.0000 </r>
       <r>   -10.8927     0.0000     0.0000 </r>
       <r>   -10.6072     0.0000     0.0000 </r>
       <r>   -10.3217     0.0000     0.0000 </r>
       <r>   -10.0362     0.0000     0.0000 </r>
       <r>    -9.7508     0.0000     0.0000 </r>
       <r>    -9.4653     0.0000     0.0000 </r>
       <r>    -9.1798     0.0000     0.0000 </r>
       <r>    -8.8944     0.0000     0.0000 </r>
       <r>    -8.6089     0.0000     0.0000 </r>
       <r>    -8.3234     0.0000     0.0000 </r>
       <r>    -8.0379     0.0000     0.0000 </r>
       <r>    -7.7525     0.0000     0.0000 </r>
       <r>    -7.4670     0.0000     0.0000 </r>
       <r>    -7.1815     0.0310     0.0089 </r>
       <r>    -6.8961     0.0339     0.0185 </r>
       <r>    -6.6106     0.2499     0.0899 </r>
       <r>    -6.3251     0.1915     0.1445 </r>
       <r>    -6.0396     0.1718     0.1936 </r>
       <r>    -5.7542     0.2809     0.2738 </r>
       <r>    -5.4687     0.7748     0.4950 </r>
       <r>    -5.1832     3.9050     1.6097 </r>
       <r>    -4.8978    11.3596     4.8526 </r>
       <r>    -4.6123    13.1961     8.6198 </r>
       <r>    -4.3268    15.3589    13.0044 </r>
       <r>    -4.0413    18.1290    18.1798 </r>
       <r>    -3.7559     8.3634    20.5674 </r>
       <r>    -3.4704     0.1754    20.6174 </r>
       <r>    -3.1849     0.6500    20.8030 </r>
       <r>    -2.8995     0.5657    20.9645 </r>
       <r>    -2.6140     0.2786    21.0440 </r>
       <r>    -2.3285     0.7781    21.2662 </r>
       <r>    -2.0430     0.1771    21.3167 </r>
       <r>    -1.7576     0.5344    21.4693 </r>
       <r>    -1.4721     0.1487    21.5117 </r>
       <r>    -1.1866     0.3670    21.6165 </r>
       <r>    -0.9011     0.6986    21.8159 </r>
       <r>    -0.6157     0.5272    21.9664 </r>
       <r>    -0.3302     0.6410    22.1494 </r>
       <r>    -0.0447     0.5914    22.3183 </r>
       <r>     0.2407     0.7380    22.5289 </r>
       <r>     0.5262     0.2843    22.6101 </r>
       <r>     0.8117     0.6448    22.7941 </r>
       <r>     1.0972     0.3223    22.8861 </r>
       <r>     1.3826     0.8372    23.1252 </r>
       <r>     1.6681     0.3151    23.2151 </r>
       <r>     1.9536     0.3621    23.3185 </r>
       <r>     2.2390     0.7274    23.5261 </r>
       <r>     2.5245     0.7779    23.7483 </r>
       <r>     2.8100     0.6227    23.9260 </r>
       <r>     3.0955     0.5961    24.0962 </r>
       <r>     3.3809     0.5316    24.2480 </r>
       <r>     3.6664     0.4261    24.3696 </r>
       <r>     3.9519     0.3294    24.4637 </r>
       <r>     4.2373     0.8142    24.6961 </r>
       <r>     4.5228     0.7320    24.9051 </r>
       <r>     4.8083     0.7551    25.1206 </r>
       <r>     5.0938     0.5649    25.2819 </r>
       <r>     5.3792     0.1867    25.3352 </r>
       <r>     5.6647     1.2162    25.6824 </r>
       <r>     5.9502     0.4859    25.8211 </r>
       <r>     6.2356     0.6153    25.9967 </r>
       <r>     6.5211     1.2719    26.3598 </r>
       <r>     6.8066     1.2222    26.7087 </r>
       <r>     7.0921     0.6514    26.8947 </r>
       <r>     7.3775     0.5176    27.0425 </r>
       <r>     7.6630     0.2300    27.1081 </r>
       <r>     7.9485     0.7721    27.3285 </r>
       <r>     8.2340     1.3423    27.7117 </r>
       <r>     8.5194     0.7262    27.9190 </r>
       <r>     8.8049     0.6762    28.1121 </r>
       <r>     9.0904     0.6436    28.2958 </r>
       <r>     9.3758     0.4962    28.4375 </r>
       <r>     9.6613     0.5357    28.5904 </r>
       <r>     9.9468     0.4095    28.7073 </r>
       <r>    10.2323     1.4471    29.1204 </r>
       <r>    10.5177     0.7350    29.3302 </r>
       <r>    10.8032     0.8866    29.5833 </r>
       <r>    11.0887     1.5578    30.0280 </r>
       <r>    11.3741     1.0726    30.3342 </r>
       <r>    11.6596     1.0856    30.6441 </r>
       <r>    11.9451     0.6033    30.8164 </r>
       <r>    12.2306     0.3759    30.9237 </r>
       <r>    12.5160     0.8989    31.1803 </r>
       <r>    12.8015     1.4005    31.5801 </r>
       <r>    13.0870     1.0786    31.8881 </r>
       <r>    13.3724     0.9022    32.1456 </r>
       <r>    13.6579     1.0226    32.4376 </r>
       <r>    13.9434     1.4638    32.8554 </r>
       <r>    14.2289     0.4811    32.9928 </r>
       <r>    14.5143     1.1820    33.3303 </r>
       <r>    14.7998     1.2141    33.6769 </r>
       <r>    15.0853     0.7242    33.8836 </r>
       <r>    15.3707     0.4191    34.0033 </r>
       <r>    15.6562     0.7938    34.2299 </r>
       <r>    15.9417     0.9535    34.5021 </r>
       <r>    16.2272     0.7052    34.7034 </r>
       <r>    16.5126     0.7368    34.9137 </r>
       <r>    16.7981     0.4516    35.0426 </r>
       <r>    17.0836     0.6950    35.2410 </r>
       <r>    17.3691     1.0140    35.5305 </r>
       <r>    17.6545     0.9660    35.8063 </r>
       <r>    17.9400     0.9722    36.0838 </r>
       <r>    18.2255     1.6870    36.5654 </r>
       <r>    18.5109     0.9420    36.8343 </r>
       <r>    18.7964     0.6444    37.0183 </r>
       <r>    19.0819     1.0473    37.3173 </r>
       <r>    19.3674     0.5599    37.4771 </r>
       <r>    19.6528     1.8245    37.9980 </r>
       <r>    19.9383     1.2119    38.3439 </r>
       <r>    20.2238     0.6954    38.5424 </r>
       <r>    20.5092     0.7720    38.7628 </r>
       <r>    20.7947     1.1079    39.0791 </r>
       <r>    21.0802     0.9870    39.3609 </r>
       <r>    21.3657     1.1426    39.6871 </r>
       <r>    21.6511     1.4268    40.0944 </r>
       <r>    21.9366     0.9997    40.3798 </r>
       <r>    22.2221     1.7702    40.8851 </r>
       <r>    22.5075     1.4613    41.3023 </r>
       <r>    22.7930     1.3807    41.6965 </r>
       <r>    23.0785     0.7688    41.9159 </r>
       <r>    23.3640     0.6680    42.1066 </r>
       <r>    23.6494     0.8390    42.3462 </r>
       <r>    23.9349     1.0758    42.6533 </r>
       <r>    24.2204     0.7373    42.8637 </r>
       <r>    24.5058     1.1209    43.1837 </r>
       <r>    24.7913     1.5113    43.6152 </r>
       <r>    25.0768     0.4969    43.7570 </r>
       <r>    25.3623     1.6518    44.2286 </r>
       <r>    25.6477     0.9570    44.5018 </r>
       <r>    25.9332     0.8159    44.7347 </r>
       <r>    26.2187     1.3897    45.1314 </r>
       <r>    26.5042     0.6192    45.3082 </r>
       <r>    26.7896     1.3396    45.6906 </r>
       <r>    27.0751     1.3040    46.0629 </r>
       <r>    27.3606     1.0390    46.3595 </r>
       <r>    27.6460     1.4046    46.7605 </r>
       <r>    27.9315     1.1749    47.0959 </r>
       <r>    28.2170     0.7664    47.3147 </r>
       <r>    28.5025     1.8978    47.8565 </r>
       <r>    28.7879     1.0380    48.1528 </r>
       <r>    29.0734     1.8441    48.6792 </r>
       <r>    29.3589     0.9518    48.9509 </r>
       <r>    29.6443     0.8472    49.1928 </r>
       <r>    29.9298     1.4822    49.6159 </r>
       <r>    30.2153     1.4560    50.0316 </r>
       <r>    30.5008     1.1719    50.3661 </r>
       <r>    30.7862     0.8499    50.6087 </r>
       <r>    31.0717     1.4565    51.0245 </r>
       <r>    31.3572     1.8467    51.5517 </r>
       <r>    31.6426     0.9663    51.8276 </r>
       <r>    31.9281     1.6794    52.3070 </r>
       <r>    32.2136     1.2166    52.6543 </r>
       <r>    32.4991     1.5566    53.0987 </r>
       <r>    32.7845     0.8749    53.3485 </r>
       <r>    33.0700     0.9970    53.6331 </r>
       <r>    33.3555     1.0075    53.9207 </r>
       <r>    33.6409     0.8344    54.1589 </r>
       <r>    33.9264     1.0415    54.4562 </r>
       <r>    34.2119     2.1172    55.0606 </r>
       <r>    34.4974     1.9910    55.6290 </r>
       <r>    34.7828     1.0442    55.9271 </r>
       <r>    35.0683     1.4518    56.3416 </r>
       <r>    35.3538     1.3439    56.7252 </r>
       <r>    35.6393     1.5098    57.1562 </r>
       <r>    35.9247     1.5535    57.5997 </r>
       <r>    36.2102     2.5402    58.3249 </r>
       <r>    36.4957     0.9616    58.5994 </r>
       <r>    36.7811     1.3448    58.9833 </r>
       <r>    37.0666     1.8213    59.5033 </r>
       <r>    37.3521     1.1118    59.8207 </r>
       <r>    37.6376     1.2049    60.1646 </r>
       <r>    37.9230     1.2942    60.5341 </r>
       <r>    38.2085     1.6136    60.9948 </r>
       <r>    38.4940     2.2106    61.6258 </r>
       <r>    38.7794     1.2218    61.9747 </r>
       <r>    39.0649     0.2938    62.0585 </r>
       <r>    39.3504     0.6887    62.2552 </r>
       <r>    39.6359     1.1890    62.5946 </r>
       <r>    39.9213     1.5407    63.0344 </r>
       <r>    40.2068     2.4121    63.7230 </r>
       <r>    40.4923     0.8284    63.9595 </r>
       <r>    40.7777     1.2102    64.3050 </r>
       <r>    41.0632     1.3516    64.6908 </r>
       <r>    41.3487     1.7287    65.1843 </r>
       <r>    41.6342     1.5230    65.6191 </r>
       <r>    41.9196     2.1435    66.2310 </r>
       <r>    42.2051     1.3917    66.6283 </r>
       <r>    42.4906     1.4282    67.0360 </r>
       <r>    42.7760     1.2109    67.3817 </r>
       <r>    43.0615     1.4660    67.8002 </r>
       <r>    43.3470     1.5607    68.2458 </r>
       <r>    43.6325     1.7718    68.7516 </r>
       <r>    43.9179     1.6045    69.2096 </r>
       <r>    44.2034     1.1015    69.5241 </r>
       <r>    44.4889     1.2271    69.8744 </r>
       <r>    44.7744     2.0077    70.4476 </r>
       <r>    45.0598     1.2515    70.8048 </r>
       <r>    45.3453     1.6498    71.2758 </r>
       <r>    45.6308     0.8381    71.5150 </r>
       <r>    45.9162     1.8131    72.0326 </r>
       <r>    46.2017     1.2863    72.3998 </r>
       <r>    46.4872     0.9896    72.6823 </r>
       <r>    46.7727     1.4318    73.0911 </r>
       <r>    47.0581     1.4303    73.4994 </r>
       <r>    47.3436     2.2023    74.1281 </r>
       <r>    47.6291     1.9750    74.6919 </r>
       <r>    47.9145     1.6452    75.1615 </r>
       <r>    48.2000     1.2617    75.5217 </r>
       <r>    48.4855     0.9266    75.7863 </r>
       <r>    48.7710     1.8908    76.3260 </r>
       <r>    49.0564     2.2747    76.9754 </r>
       <r>    49.3419     1.4025    77.3758 </r>
       <r>    49.6274     1.7189    77.8665 </r>
       <r>    49.9128     1.0600    78.1691 </r>
       <r>    50.1983     1.2190    78.5171 </r>
       <r>    50.4838     1.2070    78.8616 </r>
       <r>    50.7693     2.2825    79.5132 </r>
       <r>    51.0547     1.5854    79.9658 </r>
       <r>    51.3402     0.9605    80.2400 </r>
       <r>    51.6257     1.1817    80.5774 </r>
       <r>    51.9112     1.5363    81.0160 </r>
       <r>    52.1966     2.5290    81.7379 </r>
       <r>    52.4821     1.2418    82.0924 </r>
       <r>    52.7676     1.2922    82.4614 </r>
       <r>    53.0530     1.1779    82.7976 </r>
       <r>    53.3385     2.4910    83.5087 </r>
       <r>    53.6240     3.0016    84.3656 </r>
       <r>    53.9095     2.1289    84.9734 </r>
       <r>    54.1949     0.9122    85.2339 </r>
       <r>    54.4804     1.2948    85.6035 </r>
       <r>    54.7659     1.6770    86.0822 </r>
       <r>    55.0513     2.4486    86.7812 </r>
       <r>    55.3368     1.5630    87.2275 </r>
       <r>    55.6223     1.0817    87.5363 </r>
       <r>    55.9078     2.1229    88.1423 </r>
       <r>    56.1932     0.8450    88.3835 </r>
       <r>    56.4787     1.2539    88.7415 </r>
       <r>    56.7642     1.8436    89.2678 </r>
       <r>    57.0496     2.5372    89.9921 </r>
       <r>    57.3351     1.7622    90.4952 </r>
       <r>    57.6206     2.0978    91.0941 </r>
       <r>    57.9061     0.9310    91.3599 </r>
       <r>    58.1915     1.2709    91.7227 </r>
       <r>    58.4770     0.6091    91.8966 </r>
       <r>    58.7625     1.8517    92.4252 </r>
       <r>    59.0479     1.9984    92.9957 </r>
       <r>    59.3334     1.2394    93.3495 </r>
       <r>    59.6189     1.8660    93.8822 </r>
       <r>    59.9044     1.0474    94.1812 </r>
       <r>    60.1898     0.4999    94.3239 </r>
       <r>    60.4753     1.7377    94.8200 </r>
       <r>    60.7608     0.9209    95.0829 </r>
       <r>    61.0463     0.6512    95.2688 </r>
       <r>    61.3317     0.8976    95.5250 </r>
       <r>    61.6172     0.4435    95.6516 </r>
       <r>    61.9027     0.1965    95.7077 </r>
       <r>    62.1881     0.1618    95.7539 </r>
       <r>    62.4736     0.1817    95.8058 </r>
       <r>    62.7591     0.2014    95.8633 </r>
       <r>    63.0446     0.1642    95.9102 </r>
       <r>    63.3300     0.0000    95.9102 </r>
       <r>    63.6155     0.0000    95.9102 </r>
       <r>    63.9010     0.0000    95.9102 </r>
       <r>    64.1864     0.0000    95.9102 </r>
       <r>    64.4719     0.1426    95.9509 </r>
       <r>    64.7574     0.0216    95.9570 </r>
       <r>    65.0429     0.0000    95.9570 </r>
       <r>    65.3283     0.0000    95.9570 </r>
       <r>    65.6138     0.0000    95.9570 </r>
       <r>    65.8993     0.0106    95.9600 </r>
       <r>    66.1847     0.0989    95.9883 </r>
       <r>    66.4702     0.0000    95.9883 </r>
       <r>    66.7557     0.0000    95.9883 </r>
       <r>    67.0412     0.0000    95.9883 </r>
       <r>    67.3266     0.0000    95.9883 </r>
       <r>    67.6121     0.0000    95.9883 </r>
       <r>    67.8976     0.0000    95.9883 </r>
       <r>    68.1830     0.0000    95.9883 </r>
       <r>    68.4685     0.0000    95.9883 </r>
       <r>    68.7540     0.0000    95.9883 </r>
       <r>    69.0395     0.0254    95.9955 </r>
       <r>    69.3249     0.0020    95.9961 </r>
       <r>    69.6104     0.0000    95.9961 </r>
       <r>    69.8959     0.0000    95.9961 </r>
       <r>    70.1814     0.0000    95.9961 </r>
       <r>    70.4668     0.0000    95.9961 </r>
       <r>    70.7523     0.0137    96.0000 </r>
       <r>    71.0378     0.0000    96.0000 </r>
       <r>    71.3232     0.0000    96.0000 </r>
       <r>    71.6087     0.0000    96.0000 </r>
       <r>    71.8942     0.0000    96.0000 </r>
       <r>    72.1797     0.0000    96.0000 </r>
       <r>    72.4651     0.0000    96.0000 </r>
       <r>    72.7506     0.0000    96.0000 </r>
       <r>    73.0361     0.0000    96.0000 </r>
       <r>    73.3215     0.0000    96.0000 </r>
       <r>    73.6070     0.0000    96.0000 </r>
       <r>    73.8925     0.0000    96.0000 </r>
       <r>    74.1780     0.0000    96.0000 </r>
       <r>    74.4634     0.0000    96.0000 </r>
      </set>
     </set>
    </array>
   </total>
  </dos>
 </calculation>
 <structure name="finalpos" >
  <crystal>
   <varray name="basis" >
    <v>       2.66169000       0.00000000       0.00000000 </v>
    <v>       1.33084500       2.30509116       0.00000000 </v>
    <v>       0.00000000       0.00000000       5.00397000 </v>
   </varray>
   <i name="volume">     30.70154810 </i>
   <varray name="rec_basis" >
    <v>       0.37570115      -0.21691116       0.00000000 </v>
    <v>       0.00000000       0.43382232       0.00000000 </v>
    <v>      -0.00000000      -0.00000000       0.19984133 </v>
   </varray>
  </crystal>
  <varray name="positions" >
   <v>       0.00000000       0.00000000       0.00000000 </v>
   <v>       0.33333333       0.33333333       0.50000000 </v>
  </varray>
 </structure>
</modeling>
