   4   4   0   0
  0.3207961E+02  0.5043860E-09  0.5043860E-09  0.5043860E-09  0.5000000E-15
  1.000000000000000E-004
  CAR 
 Pb                                      
     23.14425303    -13.42348431  301      6.53578329      1.00000000
    -13.423  0.0000E+00  0.0000E+00
    -13.302  0.0000E+00  0.0000E+00
    -13.180  0.0000E+00  0.0000E+00
    -13.058  0.0000E+00  0.0000E+00
    -12.936  0.0000E+00  0.0000E+00
    -12.814  0.0000E+00  0.0000E+00
    -12.692  0.0000E+00  0.0000E+00
    -12.570  0.0000E+00  0.0000E+00
    -12.448  0.0000E+00  0.0000E+00
    -12.326  0.0000E+00  0.0000E+00
    -12.205  0.0000E+00  0.0000E+00
    -12.083  0.0000E+00  0.0000E+00
    -11.961  0.4033E-07  0.4915E-08
    -11.839  0.2235E+00  0.2725E-01
    -11.717  0.7189E+02  0.8790E+01
    -11.595  0.5906E+02  0.1599E+02
    -11.473  0.9068E-01  0.1600E+02
    -11.351  0.5018E-08  0.1600E+02
    -11.229  0.0000E+00  0.1600E+02
    -11.108  0.0000E+00  0.1600E+02
    -10.986  0.0000E+00  0.1600E+02
    -10.864  0.0000E+00  0.1600E+02
    -10.742  0.0000E+00  0.1600E+02
    -10.620  0.0000E+00  0.1600E+02
    -10.498  0.0000E+00  0.1600E+02
    -10.376  0.0000E+00  0.1600E+02
    -10.254  0.0000E+00  0.1600E+02
    -10.132  0.0000E+00  0.1600E+02
    -10.010  0.0000E+00  0.1600E+02
     -9.889  0.0000E+00  0.1600E+02
     -9.767  0.0000E+00  0.1600E+02
     -9.645  0.0000E+00  0.1600E+02
     -9.523  0.7968E-13  0.1600E+02
     -9.401  0.1331E-03  0.1600E+02
     -9.279  0.6691E+01  0.1682E+02
     -9.157  0.1014E+03  0.2918E+02
     -9.035  0.7743E+02  0.3862E+02
     -8.913  0.1132E+02  0.4000E+02
     -8.792  0.2444E-01  0.4000E+02
     -8.670  0.9731E-08  0.4000E+02
     -8.548  0.0000E+00  0.4000E+02
     -8.426  0.0000E+00  0.4000E+02
     -8.304  0.0000E+00  0.4000E+02
     -8.182  0.0000E+00  0.4000E+02
     -8.060  0.0000E+00  0.4000E+02
     -7.938  0.0000E+00  0.4000E+02
     -7.816  0.0000E+00  0.4000E+02
     -7.695  0.0000E+00  0.4000E+02
     -7.573  0.0000E+00  0.4000E+02
     -7.451  0.0000E+00  0.4000E+02
     -7.329  0.0000E+00  0.4000E+02
     -7.207  0.0000E+00  0.4000E+02
     -7.085  0.0000E+00  0.4000E+02
     -6.963  0.0000E+00  0.4000E+02
     -6.841  0.0000E+00  0.4000E+02
     -6.719  0.0000E+00  0.4000E+02
     -6.598  0.0000E+00  0.4000E+02
     -6.476  0.0000E+00  0.4000E+02
     -6.354  0.0000E+00  0.4000E+02
     -6.232  0.0000E+00  0.4000E+02
     -6.110  0.0000E+00  0.4000E+02
     -5.988  0.0000E+00  0.4000E+02
     -5.866  0.0000E+00  0.4000E+02
     -5.744  0.0000E+00  0.4000E+02
     -5.622  0.0000E+00  0.4000E+02
     -5.500  0.0000E+00  0.4000E+02
     -5.379  0.0000E+00  0.4000E+02
     -5.257  0.0000E+00  0.4000E+02
     -5.135  0.0000E+00  0.4000E+02
     -5.013  0.0000E+00  0.4000E+02
     -4.891  0.1061E-09  0.4000E+02
     -4.769  0.2987E-03  0.4000E+02
     -4.647  0.3859E-01  0.4000E+02
     -4.525  0.2629E+00  0.4004E+02
     -4.403  0.4346E+00  0.4009E+02
     -4.282  0.3036E+00  0.4013E+02
     -4.160  0.8522E+00  0.4023E+02
     -4.038  0.6976E+00  0.4032E+02
     -3.916  0.2950E+00  0.4035E+02
     -3.794  0.1048E+01  0.4048E+02
     -3.672  0.1017E+01  0.4060E+02
     -3.550  0.7124E+00  0.4069E+02
     -3.428  0.9125E+00  0.4080E+02
     -3.306  0.1445E+01  0.4098E+02
     -3.185  0.1654E+00  0.4100E+02
     -3.063  0.1563E+01  0.4119E+02
     -2.941  0.1516E+01  0.4137E+02
     -2.819  0.1056E+01  0.4150E+02
     -2.697  0.1880E+01  0.4173E+02
     -2.575  0.5943E+00  0.4180E+02
     -2.453  0.8335E+00  0.4190E+02
     -2.331  0.1980E+01  0.4215E+02
     -2.209  0.1960E+01  0.4239E+02
     -2.087  0.1743E+01  0.4260E+02
     -1.966  0.2030E+01  0.4285E+02
     -1.844  0.8360E+00  0.4295E+02
     -1.722  0.2352E+01  0.4323E+02
     -1.600  0.2622E+01  0.4355E+02
     -1.478  0.1475E+01  0.4373E+02
     -1.356  0.2313E+01  0.4402E+02
     -1.234  0.2816E+01  0.4436E+02
     -1.112  0.5340E+01  0.4501E+02
     -0.990  0.1102E+01  0.4514E+02
     -0.869  0.4058E+01  0.4564E+02
     -0.747  0.2153E+01  0.4590E+02
     -0.625  0.1924E+01  0.4614E+02
     -0.503  0.1983E+01  0.4638E+02
     -0.381  0.4587E+01  0.4694E+02
     -0.259  0.3854E+01  0.4741E+02
     -0.137  0.1427E+01  0.4758E+02
     -0.015  0.2938E+01  0.4794E+02
      0.107  0.5110E+00  0.4800E+02
      0.228  0.4888E-03  0.4800E+02
      0.350  0.1904E-10  0.4800E+02
      0.472  0.0000E+00  0.4800E+02
      0.594  0.0000E+00  0.4800E+02
      0.716  0.0000E+00  0.4800E+02
      0.838  0.0000E+00  0.4800E+02
      0.960  0.0000E+00  0.4800E+02
      1.082  0.0000E+00  0.4800E+02
      1.204  0.0000E+00  0.4800E+02
      1.326  0.0000E+00  0.4800E+02
      1.447  0.0000E+00  0.4800E+02
      1.569  0.0000E+00  0.4800E+02
      1.691  0.0000E+00  0.4800E+02
      1.813  0.0000E+00  0.4800E+02
      1.935  0.0000E+00  0.4800E+02
      2.057  0.0000E+00  0.4800E+02
      2.179  0.0000E+00  0.4800E+02
      2.301  0.0000E+00  0.4800E+02
      2.423  0.1937E-10  0.4800E+02
      2.544  0.2802E-03  0.4800E+02
      2.666  0.9265E-01  0.4801E+02
      2.788  0.4970E-01  0.4802E+02
      2.910  0.1002E+01  0.4814E+02
      3.032  0.5264E+00  0.4820E+02
      3.154  0.6306E+00  0.4828E+02
      3.276  0.5608E+00  0.4835E+02
      3.398  0.1883E+01  0.4858E+02
      3.520  0.1505E+01  0.4876E+02
      3.641  0.1008E+01  0.4888E+02
      3.763  0.2289E+01  0.4916E+02
      3.885  0.1579E+01  0.4936E+02
      4.007  0.1895E+01  0.4959E+02
      4.129  0.3981E+01  0.5007E+02
      4.251  0.4781E+01  0.5066E+02
      4.373  0.5834E+01  0.5137E+02
      4.495  0.2839E+01  0.5171E+02
      4.617  0.2314E+01  0.5199E+02
      4.738  0.3210E+01  0.5239E+02
      4.860  0.3067E+01  0.5276E+02
      4.982  0.1042E+01  0.5289E+02
      5.104  0.9750E+00  0.5301E+02
      5.226  0.1780E+01  0.5322E+02
      5.348  0.2038E+01  0.5347E+02
      5.470  0.3202E+01  0.5386E+02
      5.592  0.1082E+01  0.5399E+02
      5.714  0.5729E+00  0.5406E+02
      5.836  0.1809E+01  0.5428E+02
      5.957  0.8325E+00  0.5438E+02
      6.079  0.1541E+01  0.5457E+02
      6.201  0.2619E+01  0.5489E+02
      6.323  0.5145E+01  0.5552E+02
      6.445  0.3029E+01  0.5589E+02
      6.567  0.1092E+01  0.5602E+02
      6.689  0.1685E+01  0.5623E+02
      6.811  0.3132E+01  0.5661E+02
      6.933  0.1022E+01  0.5673E+02
      7.054  0.4261E+00  0.5678E+02
      7.176  0.3147E+01  0.5717E+02
      7.298  0.3876E+01  0.5764E+02
      7.420  0.2385E+01  0.5793E+02
      7.542  0.1482E+01  0.5811E+02
      7.664  0.1719E+01  0.5832E+02
      7.786  0.3891E+01  0.5880E+02
      7.908  0.2446E+01  0.5909E+02
      8.030  0.3379E+01  0.5951E+02
      8.151  0.2195E+01  0.5977E+02
      8.273  0.4322E+01  0.6030E+02
      8.395  0.1876E+01  0.6053E+02
      8.517  0.7434E+00  0.6062E+02
      8.639  0.1504E+01  0.6080E+02
      8.761  0.2522E+01  0.6111E+02
      8.883  0.5286E+01  0.6175E+02
      9.005  0.4467E+01  0.6230E+02
      9.127  0.4229E+01  0.6281E+02
      9.249  0.1915E+01  0.6305E+02
      9.370  0.4121E+01  0.6355E+02
      9.492  0.1879E+01  0.6378E+02
      9.614  0.2672E+01  0.6411E+02
      9.736  0.3963E+01  0.6459E+02
      9.858  0.8995E+00  0.6470E+02
      9.980  0.3488E+01  0.6512E+02
     10.102  0.5458E+01  0.6579E+02
     10.224  0.2232E+01  0.6606E+02
     10.346  0.2676E+01  0.6639E+02
     10.467  0.1701E+01  0.6659E+02
     10.589  0.2009E+01  0.6684E+02
     10.711  0.3888E+01  0.6731E+02
     10.833  0.2610E+01  0.6763E+02
     10.955  0.3449E+01  0.6805E+02
     11.077  0.2019E+01  0.6830E+02
     11.199  0.2381E+01  0.6859E+02
     11.321  0.1268E+01  0.6874E+02
     11.443  0.4649E+00  0.6880E+02
     11.564  0.3106E+01  0.6918E+02
     11.686  0.1722E+01  0.6939E+02
     11.808  0.1050E+01  0.6952E+02
     11.930  0.2723E+01  0.6985E+02
     12.052  0.3458E+01  0.7027E+02
     12.174  0.9674E+00  0.7039E+02
     12.296  0.3356E+00  0.7043E+02
     12.418  0.2577E+01  0.7074E+02
     12.540  0.8877E+00  0.7085E+02
     12.662  0.1443E+01  0.7103E+02
     12.783  0.1061E+01  0.7115E+02
     12.905  0.3462E+01  0.7158E+02
     13.027  0.3203E+01  0.7197E+02
     13.149  0.1746E+01  0.7218E+02
     13.271  0.5293E+00  0.7224E+02
     13.393  0.1884E+01  0.7247E+02
     13.515  0.2900E+01  0.7283E+02
     13.637  0.2156E+01  0.7309E+02
     13.759  0.3015E+01  0.7346E+02
     13.880  0.2181E+01  0.7372E+02
     14.002  0.2957E+01  0.7408E+02
     14.124  0.2947E+01  0.7444E+02
     14.246  0.3313E+01  0.7485E+02
     14.368  0.2513E+01  0.7515E+02
     14.490  0.4133E+00  0.7520E+02
     14.612  0.1804E+01  0.7542E+02
     14.734  0.3840E+01  0.7589E+02
     14.856  0.5843E+01  0.7660E+02
     14.977  0.4858E+01  0.7720E+02
     15.099  0.2734E+01  0.7753E+02
     15.221  0.2482E+01  0.7783E+02
     15.343  0.5128E+01  0.7846E+02
     15.465  0.4407E+01  0.7899E+02
     15.587  0.3042E+01  0.7937E+02
     15.709  0.2776E+01  0.7970E+02
     15.831  0.4196E+01  0.8022E+02
     15.953  0.3663E+01  0.8066E+02
     16.074  0.2481E+01  0.8096E+02
     16.196  0.4626E+01  0.8153E+02
     16.318  0.8847E+00  0.8164E+02
     16.440  0.2558E+01  0.8195E+02
     16.562  0.1958E+01  0.8219E+02
     16.684  0.2790E+01  0.8253E+02
     16.806  0.2336E+01  0.8281E+02
     16.928  0.1629E+01  0.8301E+02
     17.050  0.2720E+01  0.8334E+02
     17.172  0.3561E+01  0.8378E+02
     17.293  0.4124E+01  0.8428E+02
     17.415  0.1184E+01  0.8442E+02
     17.537  0.1733E+01  0.8463E+02
     17.659  0.2015E+01  0.8488E+02
     17.781  0.4998E+01  0.8549E+02
     17.903  0.7403E+01  0.8639E+02
     18.025  0.2948E+01  0.8675E+02
     18.147  0.3087E+01  0.8713E+02
     18.269  0.2632E+01  0.8745E+02
     18.390  0.1719E+01  0.8766E+02
     18.512  0.2416E+01  0.8795E+02
     18.634  0.5613E+01  0.8863E+02
     18.756  0.3774E+01  0.8909E+02
     18.878  0.6038E+01  0.8983E+02
     19.000  0.3452E+01  0.9025E+02
     19.122  0.5458E+01  0.9092E+02
     19.244  0.1871E+01  0.9115E+02
     19.366  0.3553E+01  0.9158E+02
     19.487  0.5312E+01  0.9223E+02
     19.609  0.3830E+01  0.9269E+02
     19.731  0.4225E+01  0.9321E+02
     19.853  0.4411E+01  0.9375E+02
     19.975  0.4401E+01  0.9428E+02
     20.097  0.2372E+01  0.9457E+02
     20.219  0.3245E+01  0.9497E+02
     20.341  0.1823E+01  0.9519E+02
     20.463  0.1036E+01  0.9531E+02
     20.585  0.1513E+01  0.9550E+02
     20.706  0.1848E+01  0.9572E+02
     20.828  0.1058E+01  0.9585E+02
     20.950  0.4314E+00  0.9591E+02
     21.072  0.1735E-03  0.9591E+02
     21.194  0.1220E-11  0.9591E+02
     21.316  0.1072E-04  0.9591E+02
     21.438  0.1469E+00  0.9592E+02
     21.560  0.6160E+00  0.9600E+02
     21.682  0.6201E-02  0.9600E+02
     21.803  0.3217E-08  0.9600E+02
     21.925  0.0000E+00  0.9600E+02
     22.047  0.0000E+00  0.9600E+02
     22.169  0.0000E+00  0.9600E+02
     22.291  0.0000E+00  0.9600E+02
     22.413  0.0000E+00  0.9600E+02
     22.535  0.0000E+00  0.9600E+02
     22.657  0.0000E+00  0.9600E+02
     22.779  0.0000E+00  0.9600E+02
     22.900  0.0000E+00  0.9600E+02
     23.022  0.0000E+00  0.9600E+02
     23.144  0.0000E+00  0.9600E+02
