Pb                                      
           1
     5.043860    0.000000    0.000000
     0.000000    5.043860    0.000000
     0.000000    0.000000    5.043860
   Pb
     4
Direct configuration=     1
   0.00000000  0.00000000  0.00000000
   0.00000000  0.50000000  0.50000000
   0.50000000  0.00000000  0.50000000
   0.50000000  0.50000000  0.00000000
