He                                      
   1.00000000000000     
     2.926610    0.000000    0.000000
     1.463305    2.534519    0.000000
     0.000000    0.000000    4.779130
   He
     2
Direct
  0.000000  0.000000  0.000000
  0.333333  0.333333  0.500000
 
   36   36   60
 0.31609754531E+03 0.29273230622E+03 0.23246803744E+03 0.15871583827E+03 0.94815410888E+02
 0.52603853261E+02 0.30123120510E+02 0.18162198420E+02 0.11104274304E+02 0.69331450849E+01
 0.43888370783E+01 0.27802294219E+01 0.17678686718E+01 0.11523096441E+01 0.77223188664E+00
 0.52221446134E+00 0.36855806982E+00 0.29882891251E+00 0.28231461319E+00 0.29882878104E+00
 0.36855806776E+00 0.52221466126E+00 0.77223204991E+00 0.11523096016E+01 0.17678685032E+01
 0.27802291719E+01 0.43888366930E+01 0.69331448510E+01 0.11104274892E+02 0.18162199972E+02
 0.30123121945E+02 0.52603853186E+02 0.94815409289E+02 0.15871583666E+03 0.23246803704E+03
 0.29273230660E+03 0.29273230622E+03 0.25103422587E+03 0.18476187675E+03 0.11775134068E+03
 0.67435832279E+02 0.37959978302E+02 0.22693417949E+02 0.13823841550E+02 0.85708571374E+01
 0.54126976783E+01 0.34397674601E+01 0.21821759411E+01 0.14013609870E+01 0.92864513524E+00
 0.62861028835E+00 0.43168047479E+00 0.32167928352E+00 0.28156642861E+00 0.28327621780E+00
 0.32395317656E+00 0.43072993491E+00 0.62605346185E+00 0.92880152531E+00 0.14040287245E+01
 0.21829690169E+01 0.34374170533E+01 0.54110926544E+01 0.85725479610E+01 0.13826139272E+02
 0.22693604037E+02 0.37960187115E+02 0.67438364154E+02 0.11775214305E+03 0.18475491001E+03
 0.25102206801E+03 0.29272608452E+03 0.23246803744E+03 0.18476187675E+03 0.12676542159E+03
 0.76997008424E+02 0.44358171403E+02 0.26573172063E+02 0.16351486952E+02 0.10160758578E+02
 0.64202447879E+01 0.40995133824E+01 0.26170771481E+01 0.16746865098E+01 0.10945071614E+01
 0.73581458853E+00 0.50314302102E+00 0.35882212484E+00 0.28830469489E+00 0.26942738246E+00
 0.28837022865E+00 0.35882942855E+00 0.50307931263E+00 0.73580330303E+00 0.10945720412E+01
 0.16747042257E+01 0.26170142477E+01 0.40994750509E+01 0.64202176532E+01 0.10160628127E+02
 0.16351498797E+02 0.26573945581E+02 0.44359706962E+02 0.76997902665E+02 0.12676393573E+03
 0.18475818076E+03 0.23246479797E+03 0.25102298802E+03 0.15871583827E+03 0.11775134068E+03
 0.76997008424E+02 0.46868959576E+02 0.28860023788E+02 0.18172156338E+02 0.11453130075E+02
 0.72973755835E+01 0.46952874138E+01 0.30247319864E+01 0.19456205930E+01 0.12660378210E+01
 0.84497656939E+00 0.57520088912E+00 0.40104687872E+00 0.30320037816E+00 0.26336953942E+00
 0.26217789138E+00 0.30159458763E+00 0.40167693527E+00 0.57700661333E+00 0.84492389700E+00
 0.12641363898E+01 0.19449556160E+01 0.30264307345E+01 0.46966286107E+01 0.72960501758E+01
 0.11450669455E+02 0.18171203742E+02 0.28860411820E+02 0.46869201500E+02 0.76998183085E+02
 0.11775589067E+03 0.15872245522E+03 0.18476028303E+03 0.18475701320E+03 0.94815410888E+02
 0.67435832279E+02 0.44358171403E+02 0.28860023788E+02 0.18838720341E+02 0.12182836162E+02
 0.79005033440E+01 0.51530549545E+01 0.33631565868E+01 0.21858352882E+01 0.14251827446E+01
 0.94785287604E+00 0.64555160911E+00 0.44698057061E+00 0.32315265593E+00 0.26113413322E+00
 0.24377846338E+00 0.26112545248E+00 0.32315258552E+00 0.44698905659E+00 0.64555145321E+00
 0.94784240144E+00 0.14251782784E+01 0.21858589536E+01 0.33632498029E+01 0.51532220978E+01
 0.79005168184E+01 0.12182195804E+02 0.18837172799E+02 0.28858345007E+02 0.44358113230E+02
 0.67438655740E+02 0.94820191553E+02 0.11775868436E+03 0.12676792329E+03 0.11775493831E+03
 0.52603853261E+02 0.37959978302E+02 0.26573172063E+02 0.18172156338E+02 0.12182836162E+02
 0.81154683930E+01 0.54005552639E+01 0.35856811755E+01 0.23673875609E+01 0.15586786300E+01
 0.10367768475E+01 0.70511921992E+00 0.48963790852E+00 0.34864539048E+00 0.26551432783E+00
 0.22941686529E+00 0.22998395636E+00 0.26629670679E+00 0.34837449098E+00 0.48876545614E+00
 0.70511418149E+00 0.10377242062E+01 0.15590419082E+01 0.23664605817E+01 0.35849651598E+01
 0.54017656820E+01 0.81179146403E+01 0.12183930709E+02 0.18170411822E+02 0.26569776778E+02
 0.37957264864E+02 0.52602951311E+02 0.67441355537E+02 0.77002820430E+02 0.77002540114E+02
 0.67441063893E+02 0.30123120510E+02 0.22693417949E+02 0.16351486952E+02 0.11453130075E+02
 0.79005033440E+01 0.54005552639E+01 0.36622499066E+01 0.24629058502E+01 0.16472926175E+01
 0.11056083517E+01 0.75300097337E+00 0.52302886978E+00 0.37143856299E+00 0.27529481960E+00
 0.22306908187E+00 0.20678061274E+00 0.22300958988E+00 0.27529083996E+00 0.37149902028E+00
 0.52303806868E+00 0.75294099840E+00 0.11055795670E+01 0.16472683993E+01 0.24627566354E+01
 0.36621724801E+01 0.54011494197E+01 0.79020040777E+01 0.11454664096E+02 0.16351575416E+02
 0.22691410327E+02 0.30119884494E+02 0.37959314043E+02 0.44362128682E+02 0.46874032168E+02
 0.44363719295E+02 0.37962232822E+02 0.18162198420E+02 0.13823841550E+02 0.10160758578E+02
 0.72973755835E+01 0.51530549545E+01 0.35856811755E+01 0.24629058502E+01 0.16775189602E+01
 0.11424067987E+01 0.78512657064E+00 0.54762307958E+00 0.38886832263E+00 0.28461542760E+00
 0.22184809988E+00 0.19261217518E+00 0.19242688872E+00 0.22159670222E+00 0.28470768691E+00
 0.38913067201E+00 0.54757704233E+00 0.78482700227E+00 0.11424208042E+01 0.16778885192E+01
 0.24626979745E+01 0.35841896834E+01 0.51513008748E+01 0.72976311304E+01 0.10164058422E+02
 0.13828233064E+02 0.18164131175E+02 0.22692663845E+02 0.26572529182E+02 0.28862127285E+02
 0.28864191401E+02 0.26576692790E+02 0.22694854264E+02 0.11104274304E+02 0.85708571374E+01
 0.64202447879E+01 0.46952874138E+01 0.33631565868E+01 0.23673875609E+01 0.16472926175E+01
 0.11424067987E+01 0.79609873550E+00 0.56051362985E+00 0.40012077544E+00 0.29197759973E+00
 0.22274604433E+00 0.18452380028E+00 0.17239816045E+00 0.18453372480E+00 0.22274319668E+00
 0.29196464449E+00 0.40012180616E+00 0.56054276014E+00 0.79618386725E+00 0.11425573668E+01
 0.16473015631E+01 0.23667857892E+01 0.33617398964E+01 0.46938160123E+01 0.64201950032E+01
 0.85729716938E+01 0.11107438073E+02 0.13828828784E+02 0.16353066947E+02 0.18172728280E+02
 0.18839825637E+02 0.18173520590E+02 0.16352991051E+02 0.13826735466E+02 0.69331450849E+01
 0.54126976783E+01 0.40995133824E+01 0.30247319864E+01 0.21858352882E+01 0.15586786300E+01
 0.11056083517E+01 0.78512657064E+00 0.56051362985E+00 0.40383099801E+00 0.29582151263E+00
 0.22405174687E+00 0.18063798749E+00 0.16041784085E+00 0.16046845821E+00 0.18068821985E+00
 0.22400523641E+00 0.29579390328E+00 0.40390563839E+00 0.56050310239E+00 0.78494391445E+00
 0.11057339616E+01 0.15596898243E+01 0.21872785892E+01 0.30249795184E+01 0.40973252932E+01
 0.54089087729E+01 0.69303713484E+01 0.85731349082E+01 0.10164614650E+02 0.11455697154E+02
 0.12185293133E+02 0.12183561641E+02 0.11451709580E+02 0.10161189441E+02 0.85727125113E+01
 0.43888370783E+01 0.34397674601E+01 0.26170771481E+01 0.19456205930E+01 0.14251827446E+01
 0.10367768475E+01 0.75300097337E+00 0.54762307958E+00 0.40012077544E+00 0.29582151263E+00
 0.22453144770E+00 0.17912697767E+00 0.15439305776E+00 0.14665945528E+00 0.15445270100E+00
 0.17913203889E+00 0.22447324707E+00 0.29579749950E+00 0.40009648927E+00 0.54747578444E+00
 0.75293341237E+00 0.10373705344E+01 0.14266511541E+01 0.19470875929E+01 0.26170555262E+01
 0.34376297472E+01 0.43856774551E+01 0.54088349995E+01 0.64201828003E+01 0.72977851355E+01
 0.79023335231E+01 0.81183199988E+01 0.79008494398E+01 0.72962077826E+01 0.64202071899E+01
 0.54110191242E+01 0.27802294219E+01 0.21821759411E+01 0.16746865098E+01 0.12660378210E+01
 0.94785287604E+00 0.70511921992E+00 0.52302886978E+00 0.38886832263E+00 0.29197759973E+00
 0.22405174687E+00 0.17912697767E+00 0.15260821979E+00 0.14059247930E+00 0.14058206171E+00
 0.15260133739E+00 0.17913274126E+00 0.22404117577E+00 0.29199624672E+00 0.38897680946E+00
 0.52300043314E+00 0.70450525366E+00 0.94674032785E+00 0.12655470682E+01 0.16760662266E+01
 0.21851659541E+01 0.27828074680E+01 0.34374523396E+01 0.40970281981E+01 0.46934718915E+01
 0.51509659426E+01 0.54008369039E+01 0.54014518326E+01 0.51528841320E+01 0.46962818293E+01
 0.40991770543E+01 0.34372400750E+01 0.17678686718E+01 0.14013609870E+01 0.10945071614E+01
 0.84497656939E+00 0.64555160911E+00 0.48963790852E+00 0.37143856299E+00 0.28461542760E+00
 0.22274604433E+00 0.18063798749E+00 0.15439305776E+00 0.14059247930E+00 0.13637481507E+00
 0.14057768218E+00 0.15439375437E+00 0.18066951440E+00 0.22282949607E+00 0.28475974663E+00
 0.37144324101E+00 0.48903688933E+00 0.64414350499E+00 0.84352461437E+00 0.10944748209E+01
 0.14034805387E+01 0.17710691527E+01 0.21849585311E+01 0.26166529091E+01 0.30244125484E+01
 0.33610567626E+01 0.35834423544E+01 0.36614047318E+01 0.35842156608E+01 0.33625638240E+01
 0.30258619818E+01 0.26166114670E+01 0.21827621656E+01 0.11523096441E+01 0.92864513524E+00
 0.73581458853E+00 0.57520088912E+00 0.44698057061E+00 0.34864539048E+00 0.27529481960E+00
 0.22184809988E+00 0.18452380028E+00 0.16041784085E+00 0.14665945528E+00 0.14058206171E+00
 0.14057768218E+00 0.14666868528E+00 0.16044740667E+00 0.18450332299E+00 0.22173832087E+00
 0.27526726363E+00 0.34899481114E+00 0.44767743171E+00 0.57558114711E+00 0.73502203705E+00
 0.92662765894E+00 0.11502580249E+01 0.14032718360E+01 0.16756445082E+01 0.19464573163E+01
 0.21864632822E+01 0.23658323007E+01 0.24616709812E+01 0.24617294896E+01 0.23655071923E+01
 0.21850446280E+01 0.19443265790E+01 0.16742828748E+01 0.14038196251E+01 0.77223188664E+00
 0.62861028835E+00 0.50314302102E+00 0.40104687872E+00 0.32315265593E+00 0.26551432783E+00
 0.22306908187E+00 0.19261217518E+00 0.17239816045E+00 0.16046845821E+00 0.15445270100E+00
 0.15260133739E+00 0.15439375437E+00 0.16044740667E+00 0.17237129208E+00 0.19245997690E+00
 0.22300830678E+00 0.26612318292E+00 0.32462399609E+00 0.40249900924E+00 0.50310734910E+00
 0.62647797408E+00 0.76909688337E+00 0.92642606975E+00 0.10940623715E+01 0.12649186701E+01
 0.14258133636E+01 0.15586714337E+01 0.16461590466E+01 0.16767013367E+01 0.16461254031E+01
 0.15580235530E+01 0.14243413310E+01 0.12635086013E+01 0.10941591202E+01 0.92859904458E+00
 0.52221446134E+00 0.43168047479E+00 0.35882212484E+00 0.30320037816E+00 0.26113413322E+00
 0.22941686529E+00 0.20678061274E+00 0.19242688872E+00 0.18453372480E+00 0.18068821985E+00
 0.17913203889E+00 0.17913274126E+00 0.18066951440E+00 0.18450332299E+00 0.19245997690E+00
 0.20686801280E+00 0.22937483176E+00 0.26086522156E+00 0.30302359554E+00 0.35928851716E+00
 0.43290355567E+00 0.52351489515E+00 0.62628793849E+00 0.73462854034E+00 0.84291698167E+00
 0.94591548561E+00 0.10363420506E+01 0.11045425726E+01 0.11412743674E+01 0.11411377921E+01
 0.11043876983E+01 0.10366942046E+01 0.94701542971E+00 0.84431472266E+00 0.73540946148E+00
 0.62586364210E+00 0.36855806982E+00 0.32167928352E+00 0.28830469489E+00 0.26336953942E+00
 0.24377846338E+00 0.22998395636E+00 0.22300958988E+00 0.22159670222E+00 0.22274319668E+00
 0.22400523641E+00 0.22447324707E+00 0.22404117577E+00 0.22282949607E+00 0.22173832087E+00
 0.22300830678E+00 0.22937483176E+00 0.24236339675E+00 0.26192508478E+00 0.28829945117E+00
 0.32382314779E+00 0.37175496047E+00 0.43272544328E+00 0.50273702194E+00 0.57500011118E+00
 0.64333598161E+00 0.70346865040E+00 0.75169140187E+00 0.78355633620E+00 0.79474359717E+00
 0.78343996839E+00 0.75169899125E+00 0.70407640564E+00 0.64474241569E+00 0.57642512460E+00
 0.50270985474E+00 0.43055281861E+00 0.29882891251E+00 0.28156642861E+00 0.26942738246E+00
 0.26217789138E+00 0.26112545248E+00 0.26629670679E+00 0.27529083996E+00 0.28470768691E+00
 0.29196464449E+00 0.29579390328E+00 0.29579749950E+00 0.29199624672E+00 0.28475974663E+00
 0.27526726363E+00 0.26612318292E+00 0.26086522156E+00 0.26192508478E+00 0.26912988735E+00
 0.28111607054E+00 0.29834962059E+00 0.32365042836E+00 0.35893389820E+00 0.40193916007E+00
 0.44687860308E+00 0.48797009998E+00 0.52166363464E+00 0.54591331200E+00 0.55881058575E+00
 0.55885013565E+00 0.54601455871E+00 0.52170196120E+00 0.48770029155E+00 0.44619231210E+00
 0.40111880345E+00 0.35847567603E+00 0.32378066944E+00 0.28231461319E+00 0.28327621780E+00
 0.28837022865E+00 0.30159458763E+00 0.32315258552E+00 0.34837449098E+00 0.37149902028E+00
 0.38913067201E+00 0.40012180616E+00 0.40390563839E+00 0.40009648927E+00 0.38897680946E+00
 0.37144324101E+00 0.34899481114E+00 0.32462399609E+00 0.30302359554E+00 0.28829945117E+00
 0.28111607054E+00 0.27917086114E+00 0.28094271907E+00 0.28794632773E+00 0.30246675108E+00
 0.32381407744E+00 0.34786814265E+00 0.36995442855E+00 0.38713805237E+00 0.39800030508E+00
 0.40171444301E+00 0.39802565137E+00 0.38729214565E+00 0.37001110250E+00 0.34724968332E+00
 0.32234488532E+00 0.30103903769E+00 0.28801690955E+00 0.28310211170E+00 0.29882878104E+00
 0.32395317656E+00 0.35882942855E+00 0.40167693527E+00 0.44698905659E+00 0.48876545614E+00
 0.52303806868E+00 0.54757704233E+00 0.56054276014E+00 0.56050310239E+00 0.54747578444E+00
 0.52300043314E+00 0.48903688933E+00 0.44767743171E+00 0.40249900924E+00 0.35928851716E+00
 0.32382314779E+00 0.29834962059E+00 0.28094271907E+00 0.26877431426E+00 0.26135999231E+00
 0.26002872459E+00 0.26491777115E+00 0.27359189690E+00 0.28256883527E+00 0.28935359441E+00
 0.29288923210E+00 0.29288611195E+00 0.28932300292E+00 0.28251747816E+00 0.27361535437E+00
 0.26509046394E+00 0.26028782620E+00 0.26161170703E+00 0.26907096007E+00 0.28139261271E+00
 0.36855806776E+00 0.43072993491E+00 0.50307931263E+00 0.57700661333E+00 0.64555145321E+00
 0.70511418149E+00 0.75294099840E+00 0.78482700227E+00 0.79618386725E+00 0.78494391445E+00
 0.75293341237E+00 0.70450525366E+00 0.64414350499E+00 0.57558114711E+00 0.50310734910E+00
 0.43290355567E+00 0.37175496047E+00 0.32365042836E+00 0.28794632773E+00 0.26135999231E+00
 0.24151225753E+00 0.22810988531E+00 0.22117068146E+00 0.21920508305E+00 0.21959939616E+00
 0.22028778832E+00 0.22052494800E+00 0.22025218610E+00 0.21951382591E+00 0.21906411610E+00
 0.22117150954E+00 0.22871687023E+00 0.24292432284E+00 0.26280229410E+00 0.28795118497E+00
 0.32150713354E+00 0.52221466126E+00 0.62605346185E+00 0.73580330303E+00 0.84492389700E+00
 0.94784240144E+00 0.10377242062E+01 0.11055795670E+01 0.11424208042E+01 0.11425573668E+01
 0.11057339616E+01 0.10373705344E+01 0.94674032785E+00 0.84352461437E+00 0.73502203705E+00
 0.62647797408E+00 0.52351489515E+00 0.43272544328E+00 0.35893389820E+00 0.30246675108E+00
 0.26002872459E+00 0.22810988531E+00 0.20496506065E+00 0.18971191359E+00 0.18081178639E+00
 0.17614302900E+00 0.17411198764E+00 0.17411117107E+00 0.17616147485E+00 0.18084194315E+00
 0.18967862690E+00 0.20487731979E+00 0.22815127445E+00 0.26029693439E+00 0.30264334298E+00
 0.35846804909E+00 0.43150309446E+00 0.77223204991E+00 0.92880152531E+00 0.10945720412E+01
 0.12641363898E+01 0.14251782784E+01 0.15590419082E+01 0.16472683993E+01 0.16778885192E+01
 0.16473015631E+01 0.15596898243E+01 0.14266511541E+01 0.12655470682E+01 0.10944748209E+01
 0.92662765894E+00 0.76909688337E+00 0.62628793849E+00 0.50273702194E+00 0.40193916007E+00
 0.32381407744E+00 0.26491777115E+00 0.22117068146E+00 0.18971191359E+00 0.16850407272E+00
 0.15545502185E+00 0.14855487282E+00 0.14644662783E+00 0.14861359036E+00 0.15547553872E+00
 0.16852997481E+00 0.18986295729E+00 0.22123105795E+00 0.26431020036E+00 0.32234532178E+00
 0.40048923033E+00 0.50277330859E+00 0.62841991648E+00 0.11523096016E+01 0.14040287245E+01
 0.16747042257E+01 0.19449556160E+01 0.21858589536E+01 0.23664605817E+01 0.24627566354E+01
 0.24626979745E+01 0.23667857892E+01 0.21872785892E+01 0.19470875929E+01 0.16760662266E+01
 0.14034805387E+01 0.11502580249E+01 0.92642606975E+00 0.73462854034E+00 0.57500011118E+00
 0.44687860308E+00 0.34786814265E+00 0.27359189690E+00 0.21920508305E+00 0.18081178639E+00
 0.15545502185E+00 0.14052299292E+00 0.13374862618E+00 0.13375273519E+00 0.14051327815E+00
 0.15542513774E+00 0.18083190192E+00 0.21931429582E+00 0.27361940083E+00 0.34752002262E+00
 0.44618385451E+00 0.57462111915E+00 0.73542077425E+00 0.92844273385E+00 0.17678685032E+01
 0.21829690169E+01 0.26170142477E+01 0.30264307345E+01 0.33632498029E+01 0.35849651598E+01
 0.36621724801E+01 0.35841896834E+01 0.33617398964E+01 0.30249795184E+01 0.26170555262E+01
 0.21851659541E+01 0.17710691527E+01 0.14032718360E+01 0.10940623715E+01 0.84291698167E+00
 0.64333598161E+00 0.48797009998E+00 0.36995442855E+00 0.28256883527E+00 0.21959939616E+00
 0.17614302900E+00 0.14855487282E+00 0.13374862618E+00 0.12917603179E+00 0.13376331153E+00
 0.14855395055E+00 0.17611150637E+00 0.21951667543E+00 0.28242581211E+00 0.36995056103E+00
 0.48857053884E+00 0.64474248931E+00 0.84436764682E+00 0.10940944932E+01 0.14011525703E+01
 0.27802291719E+01 0.34374170533E+01 0.40994750509E+01 0.46966286107E+01 0.51532220978E+01
 0.54017656820E+01 0.54011494197E+01 0.51513008748E+01 0.46938160123E+01 0.40973252932E+01
 0.34376297472E+01 0.27828074680E+01 0.21849585311E+01 0.16756445082E+01 0.12649186701E+01
 0.94591548561E+00 0.70346865040E+00 0.52166363464E+00 0.38713805237E+00 0.28935359441E+00
 0.22028778832E+00 0.17411198764E+00 0.14644662783E+00 0.13375273519E+00 0.13376331153E+00
 0.14645368913E+00 0.17410616643E+00 0.22029858895E+00 0.28933608510E+00 0.38703104709E+00
 0.52169238887E+00 0.70408114178E+00 0.94702599623E+00 0.12654085548E+01 0.16742653265E+01
 0.21819691452E+01 0.43888366930E+01 0.54110926544E+01 0.64202176532E+01 0.72960501758E+01
 0.79005168184E+01 0.81179146403E+01 0.79020040777E+01 0.72976311304E+01 0.64201950032E+01
 0.54089087729E+01 0.43856774551E+01 0.34374523396E+01 0.26166529091E+01 0.19464573163E+01
 0.14258133636E+01 0.10363420506E+01 0.75169140187E+00 0.54591331200E+00 0.39800030508E+00
 0.29288923210E+00 0.22052494800E+00 0.17411117107E+00 0.14861359036E+00 0.14051327815E+00
 0.14855395055E+00 0.17410616643E+00 0.22058336664E+00 0.29291356266E+00 0.39802461979E+00
 0.54606009756E+00 0.75175842382E+00 0.10357486743E+01 0.14243461277E+01 0.19449912032E+01
 0.26166742361E+01 0.34395891655E+01 0.69331448510E+01 0.85725479610E+01 0.10160628127E+02
 0.11450669455E+02 0.12182195804E+02 0.12183930709E+02 0.11454664096E+02 0.10164058422E+02
 0.85729716938E+01 0.69303713484E+01 0.54088349995E+01 0.40970281981E+01 0.30244125484E+01
 0.21864632822E+01 0.15586714337E+01 0.11045425726E+01 0.78355633620E+00 0.55881058575E+00
 0.40171444301E+00 0.29288611195E+00 0.22025218610E+00 0.17616147485E+00 0.15547553872E+00
 0.15542513774E+00 0.17611150637E+00 0.22029858895E+00 0.29291356266E+00 0.40163989147E+00
 0.55882086756E+00 0.78373793323E+00 0.11044160638E+01 0.15576608829E+01 0.21850216353E+01
 0.30241655453E+01 0.40992150018E+01 0.54126225943E+01 0.11104274892E+02 0.13826139272E+02
 0.16351498797E+02 0.18171203742E+02 0.18837172799E+02 0.18170411822E+02 0.16351575416E+02
 0.13828233064E+02 0.11107438073E+02 0.85731349082E+01 0.64201828003E+01 0.46934718915E+01
 0.33610567626E+01 0.23658323007E+01 0.16461590466E+01 0.11412743674E+01 0.79474359717E+00
 0.55885013565E+00 0.39802565137E+00 0.28932300292E+00 0.21951382591E+00 0.18084194315E+00
 0.16852997481E+00 0.18083190192E+00 0.21951667543E+00 0.28933608510E+00 0.39802461979E+00
 0.55882086756E+00 0.79465847409E+00 0.11411238513E+01 0.16461494853E+01 0.23664324375E+01
 0.33624717036E+01 0.46949428606E+01 0.64202337634E+01 0.85710219039E+01 0.18162199972E+02
 0.22693604037E+02 0.26573945581E+02 0.28860411820E+02 0.28858345007E+02 0.26569776778E+02
 0.22691410327E+02 0.18164131175E+02 0.13828828784E+02 0.10164614650E+02 0.72977851355E+01
 0.51509659426E+01 0.35834423544E+01 0.24616709812E+01 0.16767013367E+01 0.11411377921E+01
 0.78343996839E+00 0.54601455871E+00 0.38729214565E+00 0.28251747816E+00 0.21906411610E+00
 0.18967862690E+00 0.18986295729E+00 0.21931429582E+00 0.28242581211E+00 0.38703104709E+00
 0.54606009756E+00 0.78373793323E+00 0.11411238513E+01 0.16763334948E+01 0.24618789273E+01
 0.35849310570E+01 0.51527178809E+01 0.72975315073E+01 0.10161319173E+02 0.13824440253E+02
 0.30123121945E+02 0.37960187115E+02 0.44359706962E+02 0.46869201500E+02 0.44358113230E+02
 0.37957264864E+02 0.30119884494E+02 0.22692663845E+02 0.16353066947E+02 0.11455697154E+02
 0.79023335231E+01 0.54008369039E+01 0.36614047318E+01 0.24617294896E+01 0.16461254031E+01
 0.11043876983E+01 0.75169899125E+00 0.52170196120E+00 0.37001110250E+00 0.27361535437E+00
 0.22117150954E+00 0.20487731979E+00 0.22123105795E+00 0.27361940083E+00 0.36995056103E+00
 0.52169238887E+00 0.75175842382E+00 0.11044160638E+01 0.16461494853E+01 0.24618789273E+01
 0.36614830613E+01 0.54002446780E+01 0.79008352932E+01 0.11454164870E+02 0.16352978667E+02
 0.22694671230E+02 0.52603853186E+02 0.67438364154E+02 0.76997902665E+02 0.76998183085E+02
 0.67438655740E+02 0.52602951311E+02 0.37959314043E+02 0.26572529182E+02 0.18172728280E+02
 0.12185293133E+02 0.81183199988E+01 0.54014518326E+01 0.35842156608E+01 0.23655071923E+01
 0.15580235530E+01 0.10366942046E+01 0.70407640564E+00 0.48770029155E+00 0.34724968332E+00
 0.26509046394E+00 0.22871687023E+00 0.22815127445E+00 0.26431020036E+00 0.34752002262E+00
 0.48857053884E+00 0.70408114178E+00 0.10357486743E+01 0.15576608829E+01 0.23664324375E+01
 0.35849310570E+01 0.54002446780E+01 0.81158781501E+01 0.12184199080E+02 0.18174468644E+02
 0.26575919704E+02 0.37962025376E+02 0.94815409289E+02 0.11775214305E+03 0.12676393573E+03
 0.11775589067E+03 0.94820191553E+02 0.67441355537E+02 0.44362128682E+02 0.28862127285E+02
 0.18839825637E+02 0.12183561641E+02 0.79008494398E+01 0.51528841320E+01 0.33625638240E+01
 0.21850446280E+01 0.14243413310E+01 0.94701542971E+00 0.64474241569E+00 0.44619231210E+00
 0.32234488532E+00 0.26028782620E+00 0.24292432284E+00 0.26029693439E+00 0.32234532178E+00
 0.44618385451E+00 0.64474248931E+00 0.94702599623E+00 0.14243461277E+01 0.21850216353E+01
 0.33624717036E+01 0.51527178809E+01 0.79008352932E+01 0.12184199080E+02 0.18841369227E+02
 0.28863803164E+02 0.44362185637E+02 0.67438531233E+02 0.15871583666E+03 0.18475491001E+03
 0.18475818076E+03 0.15872245522E+03 0.11775868436E+03 0.77002820430E+02 0.46874032168E+02
 0.28864191401E+02 0.18173520590E+02 0.11451709580E+02 0.72962077826E+01 0.46962818293E+01
 0.30258619818E+01 0.19443265790E+01 0.12635086013E+01 0.84431472266E+00 0.57642512460E+00
 0.40111880345E+00 0.30103903769E+00 0.26161170703E+00 0.26280229410E+00 0.30264334298E+00
 0.40048923033E+00 0.57462111915E+00 0.84436764682E+00 0.12654085548E+01 0.19449912032E+01
 0.30241655453E+01 0.46949428606E+01 0.72975315073E+01 0.11454164870E+02 0.18174468644E+02
 0.28863803164E+02 0.46873793399E+02 0.77001648547E+02 0.11775413449E+03 0.23246803704E+03
 0.25102206801E+03 0.23246479797E+03 0.18476028303E+03 0.12676792329E+03 0.77002540114E+02
 0.44363719295E+02 0.26576692790E+02 0.16352991051E+02 0.10161189441E+02 0.64202071899E+01
 0.40991770543E+01 0.26166114670E+01 0.16742828748E+01 0.10941591202E+01 0.73540946148E+00
 0.50270985474E+00 0.35847567603E+00 0.28801690955E+00 0.26907096007E+00 0.28795118497E+00
 0.35846804909E+00 0.50277330859E+00 0.73542077425E+00 0.10940944932E+01 0.16742653265E+01
 0.26166742361E+01 0.40992150018E+01 0.64202337634E+01 0.10161319173E+02 0.16352978667E+02
 0.26575919704E+02 0.44362185637E+02 0.77001648547E+02 0.12676941109E+03 0.18476397942E+03
 0.29273230660E+03 0.29272608452E+03 0.25102298802E+03 0.18475701320E+03 0.11775493831E+03
 0.67441063893E+02 0.37962232822E+02 0.22694854264E+02 0.13826735466E+02 0.85727125113E+01
 0.54110191242E+01 0.34372400750E+01 0.21827621656E+01 0.14038196251E+01 0.92859904458E+00
 0.62586364210E+00 0.43055281861E+00 0.32378066945E+00 0.28310211170E+00 0.28139261271E+00
 0.32150713354E+00 0.43150309446E+00 0.62841991648E+00 0.92844273385E+00 0.14011525703E+01
 0.21819691452E+01 0.34395891655E+01 0.54126225943E+01 0.85710219039E+01 0.13824440253E+02
 0.22694671230E+02 0.37962025376E+02 0.67438531233E+02 0.11775413449E+03 0.18476397942E+03
 0.25103514635E+03 0.29362433912E+03 0.27190866105E+03 0.21596061230E+03 0.14763516966E+03
 0.88618612719E+02 0.49737205632E+02 0.28913586473E+02 0.17554807236E+02 0.10789921806E+02
 0.67632281931E+01 0.42936279762E+01 0.27267735291E+01 0.17369415046E+01 0.11330733327E+01
 0.76085103010E+00 0.51645978824E+00 0.36468470534E+00 0.29461360219E+00 0.27875640522E+00
 0.29634672619E+00 0.36468469372E+00 0.51472295195E+00 0.76083897983E+00 0.11347919313E+01
 0.17369412873E+01 0.27250607664E+01 0.42936547172E+01 0.67649819548E+01 0.10789922284E+02
 0.17552983793E+02 0.28913310099E+02 0.49738577808E+02 0.88618611288E+02 0.14763425089E+03
 0.21596207724E+03 0.27191158651E+03 0.27190866105E+03 0.23318740661E+03 0.17174388255E+03
 0.10977870355E+03 0.63396025924E+02 0.36215844598E+02 0.21876823226E+02 0.13402649904E+02
 0.83475708753E+01 0.52886948996E+01 0.33697552181E+01 0.21425573453E+01 0.13776261341E+01
 0.91390141227E+00 0.62048743479E+00 0.42729601246E+00 0.31776892642E+00 0.27766152708E+00
 0.28046373276E+00 0.32111163430E+00 0.42522667607E+00 0.61688659219E+00 0.91521484662E+00
 0.13813141546E+01 0.21421192541E+01 0.33663499404E+01 0.52883674844E+01 0.83503869409E+01
 0.13403677609E+02 0.21875757889E+02 0.36217007964E+02 0.63399364833E+02 0.10977830911E+03
 0.17173654590E+03 0.23317768132E+03 0.27190423560E+03 0.21596061230E+03 0.17174388255E+03
 0.11810270712E+03 0.72201016206E+02 0.42133702885E+02 0.25566820399E+02 0.15823744083E+02
 0.98817285603E+01 0.62665656549E+01 0.40120919857E+01 0.25673300460E+01 0.16457337295E+01
 0.10766294721E+01 0.72520002084E+00 0.49751508692E+00 0.35496532356E+00 0.28441851927E+00
 0.26623492900E+00 0.28595005950E+00 0.35498108072E+00 0.49600236358E+00 0.72520050145E+00
 0.10781555929E+01 0.16457343825E+01 0.25657820303E+01 0.40120372630E+01 0.62680035979E+01
 0.98816502911E+01 0.15822426667E+02 0.25567764478E+02 0.42136743130E+02 0.72201628796E+02
 0.11809911730E+03 0.17173941086E+03 0.21595830425E+03 0.23317718713E+03 0.14763516966E+03
 0.10977870355E+03 0.72201016206E+02 0.44450811852E+02 0.27726257247E+02 0.17563987509E+02
 0.11126057639E+02 0.71167233048E+01 0.45917281044E+01 0.29648656629E+01 0.19110181052E+01
 0.12451029260E+01 0.83201723600E+00 0.56792588089E+00 0.39688455486E+00 0.29956289781E+00
 0.25990622248E+00 0.25960642170E+00 0.29886735250E+00 0.39664707552E+00 0.56881424129E+00
 0.83281937823E+00 0.12441492688E+01 0.19095542917E+01 0.29656229839E+01 0.45937929660E+01
 0.71162512477E+01 0.11122906382E+02 0.17562469676E+02 0.27727917815E+02 0.44452275753E+02
 0.72201101280E+02 0.10978116726E+03 0.14764097957E+03 0.17174178906E+03 0.17173845305E+03
 0.88618612719E+02 0.63396025924E+02 0.42133702885E+02 0.27726257247E+02 0.18200420158E+02
 0.11827643287E+02 0.77007590150E+01 0.50370025738E+01 0.32945787816E+01 0.21457125253E+01
 0.14014055964E+01 0.93308567158E+00 0.63659165624E+00 0.44191685496E+00 0.31966096961E+00
 0.25782788081E+00 0.24090933794E+00 0.25865961136E+00 0.31964381468E+00 0.44105995922E+00
 0.63659166597E+00 0.93394427291E+00 0.14014250879E+01 0.21448997780E+01 0.32946647267E+01
 0.50379621116E+01 0.77006369006E+01 0.11826023217E+02 0.18198975376E+02 0.27725899701E+02
 0.42134242940E+02 0.63398239037E+02 0.88623096784E+02 0.10978485143E+03 0.11810347726E+03
 0.10978067541E+03 0.49737205632E+02 0.36215844598E+02 0.25566820399E+02 0.17563987509E+02
 0.11827643287E+02 0.79088363191E+01 0.52778427964E+01 0.35114180101E+01 0.23227511148E+01
 0.15321658703E+01 0.10206376129E+01 0.69502201304E+00 0.48348641152E+00 0.34471706107E+00
 0.26231049212E+00 0.22649056805E+00 0.22740440441E+00 0.26342400068E+00 0.34406993546E+00
 0.48226478691E+00 0.69538267604E+00 0.10219132125E+01 0.15321482500E+01 0.23215333333E+01
 0.35111698083E+01 0.52793602583E+01 0.79105825799E+01 0.11827891372E+02 0.17562301535E+02
 0.25563956106E+02 0.36213490810E+02 0.49737016201E+02 0.63401336430E+02 0.72205573029E+02
 0.72204530951E+02 0.63399700877E+02 0.28913586473E+02 0.21876823226E+02 0.15823744083E+02
 0.11126057639E+02 0.77007590150E+01 0.52778427964E+01 0.35860949863E+01 0.24158670053E+01
 0.16187276903E+01 0.10882472437E+01 0.74213556472E+00 0.51608021210E+00 0.36683835729E+00
 0.27178876898E+00 0.21996092519E+00 0.20394708663E+00 0.22019924971E+00 0.27180106150E+00
 0.36661775744E+00 0.51607419623E+00 0.74233750794E+00 0.10882029374E+01 0.16184246205E+01
 0.24157777157E+01 0.35864422230E+01 0.52785728667E+01 0.77018762609E+01 0.11127080607E+02
 0.15823373785E+02 0.21874385745E+02 0.28910405943E+02 0.36215218595E+02 0.42137227098E+02
 0.44454723427E+02 0.42137704144E+02 0.36217179941E+02 0.17554807236E+02 0.13402649904E+02
 0.98817285603E+01 0.71167233048E+01 0.50370025738E+01 0.35114180101E+01 0.24158670053E+01
 0.16482315818E+01 0.11243223509E+01 0.77373727220E+00 0.54014058379E+00 0.38366904769E+00
 0.28061892835E+00 0.21834504042E+00 0.18931596545E+00 0.18922940115E+00 0.21820949817E+00
 0.28065058100E+00 0.38385022722E+00 0.54017384136E+00 0.77351671113E+00 0.11242197736E+01
 0.16484508090E+01 0.24157544617E+01 0.35102756250E+01 0.50356689547E+01 0.71172723455E+01
 0.98849078183E+01 0.13406304286E+02 0.17555740693E+02 0.21875053125E+02 0.25565375664E+02
 0.27727534110E+02 0.27729398459E+02 0.25569389208E+02 0.21877765339E+02 0.10789921806E+02
 0.83475708753E+01 0.62665656549E+01 0.45917281044E+01 0.32945787816E+01 0.23227511148E+01
 0.16187276903E+01 0.11243223509E+01 0.78453836200E+00 0.55279216894E+00 0.39454496224E+00
 0.28750917191E+00 0.21873829273E+00 0.18063661916E+00 0.16853644245E+00 0.18067034358E+00
 0.21873566952E+00 0.28747987261E+00 0.39456486184E+00 0.55286352953E+00 0.78461669953E+00
 0.11243846507E+01 0.16185979644E+01 0.23220407717E+01 0.32932550906E+01 0.45907299709E+01
 0.62672557120E+01 0.83501875851E+01 0.10792893112E+02 0.13406463293E+02 0.15823872584E+02
 0.17563236027E+02 0.18200455583E+02 0.17564535635E+02 0.15824668951E+02 0.13405166136E+02
 0.67632281931E+01 0.52886948996E+01 0.40120919857E+01 0.29648656629E+01 0.21457125253E+01
 0.15321658703E+01 0.10882472437E+01 0.77373727220E+00 0.55279216894E+00 0.39814918472E+00