   2   2   0   0
  0.1772471E+02  0.2926610E-09  0.2926610E-09  0.4779130E-09  0.5000000E-15
  1.000000000000000E-004
  CAR 
 He                                      
     75.26004000    -19.94223593  301    -14.15076415      1.00000000
    -19.942  0.0000E+00  0.0000E+00
    -19.625  0.0000E+00  0.0000E+00
    -19.308  0.0000E+00  0.0000E+00
    -18.990  0.0000E+00  0.0000E+00
    -18.673  0.0000E+00  0.0000E+00
    -18.356  0.0000E+00  0.0000E+00
    -18.038  0.0000E+00  0.0000E+00
    -17.721  0.0000E+00  0.0000E+00
    -17.404  0.0000E+00  0.0000E+00
    -17.086  0.0000E+00  0.0000E+00
    -16.769  0.0000E+00  0.0000E+00
    -16.451  0.0000E+00  0.0000E+00
    -16.134  0.0000E+00  0.0000E+00
    -15.817  0.6976E-10  0.2214E-10
    -15.499  0.1627E+00  0.5164E-01
    -15.182  0.1184E+01  0.4273E+00
    -14.865  0.2934E+01  0.1359E+01
    -14.547  0.8214E+01  0.3966E+01
    -14.230  0.1037E+00  0.4000E+01
    -13.913  0.0000E+00  0.4000E+01
    -13.595  0.0000E+00  0.4000E+01
    -13.278  0.0000E+00  0.4000E+01
    -12.961  0.0000E+00  0.4000E+01
    -12.643  0.0000E+00  0.4000E+01
    -12.326  0.0000E+00  0.4000E+01
    -12.009  0.0000E+00  0.4000E+01
    -11.691  0.0000E+00  0.4000E+01
    -11.374  0.0000E+00  0.4000E+01
    -11.057  0.0000E+00  0.4000E+01
    -10.739  0.0000E+00  0.4000E+01
    -10.422  0.0000E+00  0.4000E+01
    -10.105  0.0000E+00  0.4000E+01
     -9.787  0.0000E+00  0.4000E+01
     -9.470  0.0000E+00  0.4000E+01
     -9.153  0.0000E+00  0.4000E+01
     -8.835  0.0000E+00  0.4000E+01
     -8.518  0.0000E+00  0.4000E+01
     -8.201  0.0000E+00  0.4000E+01
     -7.883  0.0000E+00  0.4000E+01
     -7.566  0.0000E+00  0.4000E+01
     -7.249  0.0000E+00  0.4000E+01
     -6.931  0.0000E+00  0.4000E+01
     -6.614  0.0000E+00  0.4000E+01
     -6.297  0.0000E+00  0.4000E+01
     -5.979  0.0000E+00  0.4000E+01
     -5.662  0.0000E+00  0.4000E+01
     -5.345  0.0000E+00  0.4000E+01
     -5.027  0.0000E+00  0.4000E+01
     -4.710  0.0000E+00  0.4000E+01
     -4.393  0.0000E+00  0.4000E+01
     -4.075  0.0000E+00  0.4000E+01
     -3.758  0.0000E+00  0.4000E+01
     -3.441  0.0000E+00  0.4000E+01
     -3.123  0.0000E+00  0.4000E+01
     -2.806  0.0000E+00  0.4000E+01
     -2.488  0.0000E+00  0.4000E+01
     -2.171  0.0000E+00  0.4000E+01
     -1.854  0.0000E+00  0.4000E+01
     -1.536  0.0000E+00  0.4000E+01
     -1.219  0.0000E+00  0.4000E+01
     -0.902  0.0000E+00  0.4000E+01
     -0.584  0.0000E+00  0.4000E+01
     -0.267  0.0000E+00  0.4000E+01
      0.050  0.0000E+00  0.4000E+01
      0.368  0.0000E+00  0.4000E+01
      0.685  0.0000E+00  0.4000E+01
      1.002  0.0000E+00  0.4000E+01
      1.320  0.0000E+00  0.4000E+01
      1.637  0.0000E+00  0.4000E+01
      1.954  0.0000E+00  0.4000E+01
      2.272  0.0000E+00  0.4000E+01
      2.589  0.7106E-16  0.4000E+01
      2.906  0.2413E+00  0.4077E+01
      3.224  0.3697E+01  0.5250E+01
      3.541  0.2275E+01  0.5972E+01
      3.858  0.1355E+01  0.6403E+01
      4.176  0.1149E+01  0.6767E+01
      4.493  0.1084E+01  0.7112E+01
      4.810  0.5507E+00  0.7286E+01
      5.128  0.7968E+00  0.7539E+01
      5.445  0.7468E+00  0.7776E+01
      5.762  0.3291E+00  0.7881E+01
      6.080  0.3140E+00  0.7980E+01
      6.397  0.1438E+00  0.8026E+01
      6.714  0.4673E+00  0.8174E+01
      7.032  0.4552E+00  0.8319E+01
      7.349  0.2888E+00  0.8410E+01
      7.666  0.9729E+00  0.8719E+01
      7.984  0.9700E+00  0.9027E+01
      8.301  0.1051E+01  0.9362E+01
      8.618  0.8135E+00  0.9620E+01
      8.936  0.7514E+00  0.9859E+01
      9.253  0.7568E+00  0.1010E+02
      9.570  0.1226E+01  0.1049E+02
      9.888  0.5986E+00  0.1068E+02
     10.205  0.5883E+00  0.1086E+02
     10.522  0.1513E+01  0.1135E+02
     10.840  0.6746E+00  0.1156E+02
     11.157  0.1144E+01  0.1192E+02
     11.475  0.3558E+00  0.1204E+02
     11.792  0.1033E+01  0.1236E+02
     12.109  0.8297E+00  0.1263E+02
     12.427  0.1156E+01  0.1300E+02
     12.744  0.1606E+01  0.1351E+02
     13.061  0.1255E+01  0.1390E+02
     13.379  0.6826E+00  0.1412E+02
     13.696  0.7265E+00  0.1435E+02
     14.013  0.1235E+01  0.1474E+02
     14.331  0.1336E+01  0.1517E+02
     14.648  0.1011E+01  0.1549E+02
     14.965  0.4357E+00  0.1563E+02
     15.283  0.7661E+00  0.1587E+02
     15.600  0.7820E+00  0.1612E+02
     15.917  0.7423E+00  0.1635E+02
     16.235  0.2117E+01  0.1703E+02
     16.552  0.2075E+01  0.1768E+02
     16.869  0.1012E+01  0.1801E+02
     17.187  0.2293E+01  0.1873E+02
     17.504  0.1444E+01  0.1919E+02
     17.821  0.6988E+00  0.1941E+02
     18.139  0.1171E+01  0.1979E+02
     18.456  0.1028E+01  0.2011E+02
     18.773  0.1880E+01  0.2071E+02
     19.091  0.7245E+00  0.2094E+02
     19.408  0.9356E+00  0.2124E+02
     19.725  0.4955E+00  0.2139E+02
     20.043  0.6116E+00  0.2159E+02
     20.360  0.1604E+01  0.2210E+02
     20.677  0.1344E+01  0.2252E+02
     20.995  0.1479E+01  0.2299E+02
     21.312  0.1273E+01  0.2340E+02
     21.629  0.4685E+00  0.2355E+02
     21.947  0.1499E+01  0.2402E+02
     22.264  0.1046E+01  0.2435E+02
     22.581  0.1913E+01  0.2496E+02
     22.899  0.1373E+01  0.2540E+02
     23.216  0.1382E+01  0.2584E+02
     23.533  0.1034E+01  0.2616E+02
     23.851  0.1518E+01  0.2665E+02
     24.168  0.1238E+01  0.2704E+02
     24.485  0.1667E+01  0.2757E+02
     24.803  0.1137E+01  0.2793E+02
     25.120  0.9056E+00  0.2822E+02
     25.438  0.9487E+00  0.2852E+02
     25.755  0.1125E+01  0.2888E+02
     26.072  0.1476E+01  0.2934E+02
     26.390  0.9092E+00  0.2963E+02
     26.707  0.1787E+01  0.3020E+02
     27.024  0.1733E+01  0.3075E+02
     27.342  0.1366E+01  0.3118E+02
     27.659  0.1456E+01  0.3165E+02
     27.976  0.1039E+01  0.3198E+02
     28.294  0.1369E+01  0.3241E+02
     28.611  0.9556E+00  0.3271E+02
     28.928  0.2012E+01  0.3335E+02
     29.246  0.6592E+00  0.3356E+02
     29.563  0.1467E+01  0.3403E+02
     29.880  0.1475E+01  0.3450E+02
     30.198  0.2014E+01  0.3514E+02
     30.515  0.1863E+01  0.3573E+02
     30.832  0.8353E+00  0.3599E+02
     31.150  0.1880E+01  0.3659E+02
     31.467  0.1202E+01  0.3697E+02
     31.784  0.1149E+01  0.3734E+02
     32.102  0.1236E+01  0.3773E+02
     32.419  0.1168E+01  0.3810E+02
     32.736  0.2004E+01  0.3874E+02
     33.054  0.1685E+01  0.3927E+02
     33.371  0.1492E+01  0.3974E+02
     33.688  0.5318E+00  0.3991E+02
     34.006  0.1669E+01  0.4044E+02
     34.323  0.2180E+01  0.4113E+02
     34.640  0.1998E+01  0.4177E+02
     34.958  0.1884E+01  0.4237E+02
     35.275  0.5769E+00  0.4255E+02
     35.592  0.1265E+01  0.4295E+02
     35.910  0.8372E+00  0.4322E+02
     36.227  0.1795E+01  0.4379E+02
     36.544  0.1681E+01  0.4432E+02
     36.862  0.1069E+01  0.4466E+02
     37.179  0.2101E+01  0.4533E+02
     37.496  0.1610E+01  0.4584E+02
     37.814  0.1930E+01  0.4645E+02
     38.131  0.1641E+01  0.4697E+02
     38.448  0.2182E+01  0.4767E+02
     38.766  0.1410E+01  0.4811E+02
     39.083  0.1546E+01  0.4860E+02
     39.401  0.1423E+01  0.4906E+02
     39.718  0.2060E+01  0.4971E+02
     40.035  0.7401E+00  0.4994E+02
     40.353  0.1623E+01  0.5046E+02
     40.670  0.2449E+01  0.5124E+02
     40.987  0.1261E+01  0.5164E+02
     41.305  0.2105E+01  0.5231E+02
     41.622  0.2066E+01  0.5296E+02
     41.939  0.8274E+00  0.5322E+02
     42.257  0.1323E+01  0.5364E+02
     42.574  0.1469E+01  0.5411E+02
     42.891  0.1132E+01  0.5447E+02
     43.209  0.2069E+01  0.5513E+02
     43.526  0.2186E+01  0.5582E+02
     43.843  0.1986E+01  0.5645E+02
     44.161  0.1318E+01  0.5687E+02
     44.478  0.1499E+01  0.5735E+02
     44.795  0.2397E+01  0.5811E+02
     45.113  0.1488E+01  0.5858E+02
     45.430  0.1601E+01  0.5909E+02
     45.747  0.1786E+01  0.5965E+02
     46.065  0.2068E+01  0.6031E+02
     46.382  0.1743E+01  0.6086E+02
     46.699  0.8711E+00  0.6114E+02
     47.017  0.2451E+01  0.6192E+02
     47.334  0.2005E+01  0.6256E+02
     47.651  0.1981E+01  0.6318E+02
     47.969  0.1873E+01  0.6378E+02
     48.286  0.1448E+01  0.6424E+02
     48.603  0.1747E+01  0.6479E+02
     48.921  0.4711E+00  0.6494E+02
     49.238  0.2063E+01  0.6560E+02
     49.555  0.1355E+01  0.6603E+02
     49.873  0.1455E+01  0.6649E+02
     50.190  0.1759E+01  0.6705E+02
     50.507  0.1505E+01  0.6753E+02
     50.825  0.2593E+01  0.6835E+02
     51.142  0.2388E+01  0.6911E+02
     51.459  0.2120E+01  0.6978E+02
     51.777  0.2065E+01  0.7043E+02
     52.094  0.2146E+01  0.7112E+02
     52.411  0.1390E+01  0.7156E+02
     52.729  0.2268E+01  0.7228E+02
     53.046  0.1877E+01  0.7287E+02
     53.364  0.1620E+01  0.7339E+02
     53.681  0.1696E+01  0.7393E+02
     53.998  0.2234E+01  0.7463E+02
     54.316  0.1956E+01  0.7526E+02
     54.633  0.1359E+01  0.7569E+02
     54.950  0.2145E+01  0.7637E+02
     55.268  0.1132E+01  0.7673E+02
     55.585  0.1903E+01  0.7733E+02
     55.902  0.1679E+01  0.7786E+02
     56.220  0.1918E+01  0.7847E+02
     56.537  0.1371E+01  0.7891E+02
     56.854  0.1722E+01  0.7945E+02
     57.172  0.1579E+01  0.7996E+02
     57.489  0.1287E+01  0.8036E+02
     57.806  0.2877E+01  0.8128E+02
     58.124  0.1578E+01  0.8178E+02
     58.441  0.2039E+01  0.8243E+02
     58.758  0.2065E+01  0.8308E+02
     59.076  0.2786E+01  0.8397E+02
     59.393  0.2372E+01  0.8472E+02
     59.710  0.2152E+01  0.8540E+02
     60.028  0.1777E+01  0.8597E+02
     60.345  0.2710E+01  0.8683E+02
     60.662  0.2167E+01  0.8752E+02
     60.980  0.9592E+00  0.8782E+02
     61.297  0.2004E+01  0.8846E+02
     61.614  0.2810E+01  0.8935E+02
     61.932  0.1558E+01  0.8984E+02
     62.249  0.1893E+01  0.9044E+02
     62.566  0.3590E+00  0.9056E+02
     62.884  0.1514E+01  0.9104E+02
     63.201  0.2027E+01  0.9168E+02
     63.518  0.1411E+01  0.9213E+02
     63.836  0.1202E+01  0.9251E+02
     64.153  0.1248E+01  0.9291E+02
     64.470  0.6694E+00  0.9312E+02
     64.788  0.1740E+01  0.9367E+02
     65.105  0.7154E+00  0.9390E+02
     65.422  0.4473E+00  0.9404E+02
     65.740  0.1211E+01  0.9443E+02
     66.057  0.1081E+01  0.9477E+02
     66.374  0.1340E+01  0.9520E+02
     66.692  0.6606E+00  0.9541E+02
     67.009  0.4469E+00  0.9555E+02
     67.327  0.5783E+00  0.9573E+02
     67.644  0.4306E+00  0.9587E+02
     67.961  0.5391E-01  0.9588E+02
     68.279  0.9378E-01  0.9591E+02
     68.596  0.0000E+00  0.9591E+02
     68.913  0.8858E-01  0.9594E+02
     69.231  0.5913E-01  0.9596E+02
     69.548  0.7385E-01  0.9598E+02
     69.865  0.0000E+00  0.9598E+02
     70.183  0.2115E-02  0.9599E+02
     70.500  0.2250E-01  0.9599E+02
     70.817  0.1232E-01  0.9600E+02
     71.135  0.1230E-01  0.9600E+02
     71.452  0.0000E+00  0.9600E+02
     71.769  0.0000E+00  0.9600E+02
     72.087  0.0000E+00  0.9600E+02
     72.404  0.0000E+00  0.9600E+02
     72.721  0.0000E+00  0.9600E+02
     73.039  0.0000E+00  0.9600E+02
     73.356  0.0000E+00  0.9600E+02
     73.673  0.0000E+00  0.9600E+02
     73.991  0.0000E+00  0.9600E+02
     74.308  0.0000E+00  0.9600E+02
     74.625  0.0000E+00  0.9600E+02
     74.943  0.0000E+00  0.9600E+02
     75.260  0.0000E+00  0.9600E+02
