    2    2    1    1
  0.1772471E+02  0.2926610E-09  0.2926610E-09  0.4779130E-09  0.5000000E-15
  1.000000000000000E-004
  CAR 
 He                                      
      4     50     48
 
  0.0000000E+00  0.0000000E+00  0.0000000E+00  0.1953125E-02
      1        -15.614860   1.000000
      2        -14.817569   1.000000
      3          2.887906   0.000000
      4          3.014751   0.000000
      5          9.157177   0.000000
      6         17.168773   0.000000
      7         17.168825   0.000000
      8         18.567123   0.000000
      9         18.567235   0.000000
     10         19.648989   0.000000
     11         21.285449   0.000000
     12         23.134523   0.000000
     13         23.134684   0.000000
     14         24.090642   0.000000
     15         24.663222   0.000000
     16         25.149445   0.000000
     17         25.149657   0.000000
     18         26.178504   0.000000
     19         26.178537   0.000000
     20         26.203532   0.000000
     21         27.042469   0.000000
     22         27.074461   0.000000
     23         27.074535   0.000000
     24         34.908127   0.000000
     25         41.246149   0.000000
     26         43.013681   0.000000
     27         43.874106   0.000000
     28         43.874183   0.000000
     29         44.528577   0.000000
     30         44.528591   0.000000
     31         45.672211   0.000000
     32         45.672408   0.000000
     33         45.780773   0.000000
     34         45.883006   0.000000
     35         45.883075   0.000000
     36         54.352519   0.000000
     37         54.637136   0.000000
     38         56.107567   0.000000
     39         61.523131   0.000000
     40         63.554791   0.000000
     41         63.554885   0.000000
     42         65.603686   0.000000
     43         65.604257   0.000000
     44         65.840040   0.000000
     45         67.829564   0.000000
     46         67.829833   0.000000
     47         70.670815   0.000000
     48         70.932664   0.000000
 
  0.1250000E+00  0.1025735E-16  0.0000000E+00  0.1171875E-01
      1        -15.517251   1.000000
      2        -14.773592   1.000000
      3          2.973411   0.000000
      4          3.248826   0.000000
      5          8.641904   0.000000
      6         15.097906   0.000000
      7         15.494765   0.000000
      8         19.107219   0.000000
      9         19.256894   0.000000
     10         19.526550   0.000000
     11         19.587299   0.000000
     12         21.982286   0.000000
     13         22.978429   0.000000
     14         23.117870   0.000000
     15         23.757693   0.000000
     16         24.039962   0.000000
     17         24.425966   0.000000
     18         27.317795   0.000000
     19         27.411911   0.000000
     20         29.502161   0.000000
     21         29.630424   0.000000
     22         29.935021   0.000000
     23         32.777117   0.000000
     24         34.406003   0.000000
     25         38.417037   0.000000
     26         40.167122   0.000000
     27         42.000693   0.000000
     28         42.109011   0.000000
     29         42.583212   0.000000
     30         44.523191   0.000000
     31         47.114849   0.000000
     32         48.158687   0.000000
     33         48.563933   0.000000
     34         49.339154   0.000000
     35         51.246752   0.000000
     36         53.345274   0.000000
     37         54.784017   0.000000
     38         55.145427   0.000000
     39         56.902606   0.000000
     40         57.739708   0.000000
     41         61.510960   0.000000
     42         62.040054   0.000000
     43         64.656764   0.000000
     44         64.805706   0.000000
     45         65.116634   0.000000
     46         67.529669   0.000000
     47         68.015146   0.000000
     48         69.377859   0.000000
 
  0.2500000E+00  0.2051469E-16  0.0000000E+00  0.1171875E-01
      1        -15.265213   1.000000
      2        -14.674529   1.000000
      3          2.919687   0.000000
      4          4.329239   0.000000
      5          7.380736   0.000000
      6         12.798859   0.000000
      7         13.804217   0.000000
      8         15.751466   0.000000
      9         16.176818   0.000000
     10         18.643200   0.000000
     11         20.625718   0.000000
     12         20.666969   0.000000
     13         22.231909   0.000000
     14         23.589064   0.000000
     15         23.721375   0.000000
     16         26.232183   0.000000
     17         26.668095   0.000000
     18         31.064089   0.000000
     19         31.372836   0.000000
     20         33.095885   0.000000
     21         33.324752   0.000000
     22         33.891010   0.000000
     23         34.339443   0.000000
     24         36.473409   0.000000
     25         37.931104   0.000000
     26         39.488816   0.000000
     27         40.195731   0.000000
     28         40.394728   0.000000
     29         40.833629   0.000000
     30         45.086596   0.000000
     31         47.632866   0.000000
     32         49.282958   0.000000
     33         50.778654   0.000000
     34         51.731325   0.000000
     35         52.037189   0.000000
     36         52.535405   0.000000
     37         54.601865   0.000000
     38         55.101688   0.000000
     39         55.908997   0.000000
     40         57.193217   0.000000
     41         57.447691   0.000000
     42         57.450754   0.000000
     43         58.500372   0.000000
     44         60.537079   0.000000
     45         65.596897   0.000000
     46         66.047025   0.000000
     47         66.281274   0.000000
     48         67.141503   0.000000
 
  0.3750000E+00  0.2332390E-16  0.0000000E+00  0.1171875E-01
      1        -14.973069   1.000000
      2        -14.601061   1.000000
      3          2.990099   0.000000
      4          5.972743   0.000000
      5          6.113946   0.000000
      6         11.817141   0.000000
      7         11.963180   0.000000
      8         12.756967   0.000000
      9         13.702736   0.000000
     10         17.740699   0.000000
     11         20.058031   0.000000
     12         21.141480   0.000000
     13         21.795474   0.000000
     14         24.846253   0.000000
     15         24.865301   0.000000
     16         29.810220   0.000000
     17         30.311323   0.000000
     18         30.499983   0.000000
     19         30.767348   0.000000
     20         35.408914   0.000000
     21         37.164677   0.000000
     22         37.461972   0.000000
     23         38.205846   0.000000
     24         39.152230   0.000000
     25         39.527672   0.000000
     26         39.678802   0.000000
     27         40.158844   0.000000
     28         40.388846   0.000000
     29         42.443824   0.000000
     30         43.294292   0.000000
     31         44.724533   0.000000
     32         47.202849   0.000000
     33         47.727788   0.000000
     34         50.234469   0.000000
     35         50.527096   0.000000
     36         52.065215   0.000000
     37         54.793718   0.000000
     38         54.888423   0.000000
     39         56.735741   0.000000
     40         57.257178   0.000000
     41         57.746881   0.000000
     42         58.586095   0.000000
     43         59.115018   0.000000
     44         61.929750   0.000000
     45         62.591777   0.000000
     46         64.647644   0.000000
     47         64.853715   0.000000
     48         65.910697   0.000000
 
  0.5000000E+00  0.4102939E-16  0.0000000E+00  0.5859375E-02
      1        -14.820261   1.000000
      2        -14.597765   1.000000
      3          3.109430   0.000000
      4          5.294388   0.000000
      5          8.140170   0.000000
      6          9.243266   0.000000
      7         11.886979   0.000000
      8         12.404875   0.000000
      9         12.504585   0.000000
     10         17.418687   0.000000
     11         19.799159   0.000000
     12         20.777560   0.000000
     13         22.512690   0.000000
     14         24.907484   0.000000
     15         26.767871   0.000000
     16         27.575413   0.000000
     17         30.331823   0.000000
     18         32.714941   0.000000
     19         35.943593   0.000000
     20         36.009148   0.000000
     21         36.150508   0.000000
     22         37.974812   0.000000
     23         38.115394   0.000000
     24         38.438503   0.000000
     25         39.021675   0.000000
     26         40.870831   0.000000
     27         41.595644   0.000000
     28         42.218915   0.000000
     29         44.100057   0.000000
     30         44.190754   0.000000
     31         44.262229   0.000000
     32         44.513076   0.000000
     33         47.313152   0.000000
     34         48.078524   0.000000
     35         49.265932   0.000000
     36         52.004056   0.000000
     37         55.128422   0.000000
     38         55.553452   0.000000
     39         56.149824   0.000000
     40         57.063866   0.000000
     41         58.207046   0.000000
     42         59.011643   0.000000
     43         61.471269   0.000000
     44         62.456978   0.000000
     45         62.589189   0.000000
     46         62.595047   0.000000
     47         62.670771   0.000000
     48         62.799603   0.000000
 
  0.2500000E+00  0.1250000E+00  0.0000000E+00  0.1171875E-01
      1        -15.342113   1.000000
      2        -14.702110   1.000000
      3          2.935380   0.000000
      4          3.969618   0.000000
      5          7.858111   0.000000
      6         12.398575   0.000000
      7         14.559109   0.000000
      8         17.396747   0.000000
      9         18.580291   0.000000
     10         18.807050   0.000000
     11         19.265520   0.000000
     12         19.898544   0.000000
     13         22.074308   0.000000
     14         22.299710   0.000000
     15         24.849016   0.000000
     16         27.180716   0.000000
     17         27.516396   0.000000
     18         27.819338   0.000000
     19         29.092375   0.000000
     20         31.548994   0.000000
     21         32.157626   0.000000
     22         35.237464   0.000000
     23         35.664299   0.000000
     24         35.903462   0.000000
     25         36.916328   0.000000
     26         37.196450   0.000000
     27         37.986690   0.000000
     28         42.898020   0.000000
     29         44.128644   0.000000
     30         45.384225   0.000000
     31         46.058236   0.000000
     32         47.389326   0.000000
     33         50.486602   0.000000
     34         52.785396   0.000000
     35         52.997255   0.000000
     36         53.063597   0.000000
     37         55.453810   0.000000
     38         56.174889   0.000000
     39         56.450314   0.000000
     40         56.471590   0.000000
     41         56.926244   0.000000
     42         56.952240   0.000000
     43         60.535368   0.000000
     44         61.593639   0.000000
     45         63.427475   0.000000
     46         65.650144   0.000000
     47         65.726836   0.000000
     48         67.492435   0.000000
 
  0.3750000E+00  0.1250000E+00  0.0000000E+00  0.2343750E-01
      1        -15.067718   1.000000
      2        -14.615867   1.000000
      3          3.007569   0.000000
      4          5.404755   0.000000
      5          6.753397   0.000000
      6         10.186496   0.000000
      7         12.735060   0.000000
      8         13.989280   0.000000
      9         16.987494   0.000000
     10         17.206042   0.000000
     11         18.269896   0.000000
     12         21.489088   0.000000
     13         23.262327   0.000000
     14         23.793848   0.000000
     15         26.395740   0.000000
     16         26.658488   0.000000
     17         29.668221   0.000000
     18         31.627715   0.000000
     19         32.180324   0.000000
     20         32.557960   0.000000
     21         33.824387   0.000000
     22         35.219612   0.000000
     23         35.953153   0.000000
     24         37.479534   0.000000
     25         39.601751   0.000000
     26         40.470516   0.000000
     27         40.527854   0.000000
     28         42.758649   0.000000
     29         43.504746   0.000000
     30         44.536489   0.000000
     31         45.145760   0.000000
     32         47.992770   0.000000
     33         49.365164   0.000000
     34         49.607067   0.000000
     35         50.044157   0.000000
     36         53.179007   0.000000
     37         55.328224   0.000000
     38         55.795798   0.000000
     39         56.036876   0.000000
     40         58.415270   0.000000
     41         59.001223   0.000000
     42         59.534310   0.000000
     43         60.270420   0.000000
     44         61.519395   0.000000
     45         62.074801   0.000000
     46         62.174903   0.000000
     47         63.179051   0.000000
     48         63.867076   0.000000
 
  0.5000000E+00  0.1250000E+00  0.0000000E+00  0.2343750E-01
      1        -14.829612   1.000000
      2        -14.590333   1.000000
      3          3.267488   0.000000
      4          5.662510   0.000000
      5          7.505047   0.000000
      6          9.367634   0.000000
      7         10.567061   0.000000
      8         11.386252   0.000000
      9         16.096378   0.000000
     10         16.432093   0.000000
     11         17.999643   0.000000
     12         22.462664   0.000000
     13         24.230206   0.000000
     14         25.746760   0.000000
     15         26.657400   0.000000
     16         28.826890   0.000000
     17         28.985973   0.000000
     18         30.306506   0.000000
     19         34.192815   0.000000
     20         34.516728   0.000000
     21         34.853535   0.000000
     22         36.320124   0.000000
     23         37.522408   0.000000
     24         38.260280   0.000000
     25         39.397648   0.000000
     26         42.509061   0.000000
     27         42.965326   0.000000
     28         43.196336   0.000000
     29         43.290898   0.000000
     30         44.649971   0.000000
     31         46.246167   0.000000
     32         46.977986   0.000000
     33         47.904057   0.000000
     34         51.343478   0.000000
     35         51.832425   0.000000
     36         51.887750   0.000000
     37         53.041453   0.000000
     38         54.645168   0.000000
     39         54.971111   0.000000
     40         57.854138   0.000000
     41         58.429452   0.000000
     42         59.049611   0.000000
     43         59.275775   0.000000
     44         60.893039   0.000000
     45         61.210284   0.000000
     46         62.030976   0.000000
     47         62.592821   0.000000
     48         62.823778   0.000000
 
  0.5000000E+00  0.2500000E+00  0.0000000E+00  0.1171875E-01
      1        -14.838290   1.000000
      2        -14.583198   1.000000
      3          3.437043   0.000000
      4          6.458817   0.000000
      5          7.177777   0.000000
      6          7.603894   0.000000
      7         10.936907   0.000000
      8         12.416214   0.000000
      9         13.858638   0.000000
     10         18.355173   0.000000
     11         18.598097   0.000000
     12         22.991550   0.000000
     13         24.645425   0.000000
     14         25.008925   0.000000
     15         28.190009   0.000000
     16         29.528553   0.000000
     17         29.593900   0.000000
     18         30.885682   0.000000
     19         31.787693   0.000000
     20         31.933092   0.000000
     21         32.884437   0.000000
     22         34.025559   0.000000
     23         36.439639   0.000000
     24         39.035129   0.000000
     25         39.213179   0.000000
     26         42.740151   0.000000
     27         42.866623   0.000000
     28         44.319318   0.000000
     29         47.418705   0.000000
     30         47.478381   0.000000
     31         47.734015   0.000000
     32         48.305406   0.000000
     33         49.714496   0.000000
     34         49.872250   0.000000
     35         50.142049   0.000000
     36         51.341392   0.000000
     37         53.592181   0.000000
     38         55.461331   0.000000
     39         56.050285   0.000000
     40         58.021767   0.000000
     41         58.116274   0.000000
     42         59.328522   0.000000
     43         59.348468   0.000000
     44         59.632026   0.000000
     45         60.202508   0.000000
     46         60.256042   0.000000
     47         63.189606   0.000000
     48         63.648431   0.000000
 
 -0.3750000E+00  0.2500000E+00  0.0000000E+00  0.1171875E-01
      1        -14.704023   1.000000
      2        -14.607151   1.000000
      3          3.954810   0.000000
      4          5.870823   0.000000
      5          6.921999   0.000000
      6          9.216812   0.000000
      7         10.117554   0.000000
      8         10.137542   0.000000
      9         13.033826   0.000000
     10         18.604064   0.000000
     11         18.705089   0.000000
     12         23.878578   0.000000
     13         26.660455   0.000000
     14         27.769723   0.000000
     15         27.828750   0.000000
     16         28.121254   0.000000
     17         29.069553   0.000000
     18         30.935678   0.000000
     19         31.084136   0.000000
     20         31.494757   0.000000
     21         32.932390   0.000000
     22         33.757723   0.000000
     23         36.572976   0.000000
     24         36.713768   0.000000
     25         40.600520   0.000000
     26         41.555455   0.000000
     27         46.044134   0.000000
     28         46.984271   0.000000
     29         48.096224   0.000000
     30         48.191094   0.000000
     31         49.155622   0.000000
     32         51.190258   0.000000
     33         51.810963   0.000000
     34         52.324076   0.000000
     35         53.073239   0.000000
     36         53.971607   0.000000
     37         54.019282   0.000000
     38         54.071771   0.000000
     39         54.137018   0.000000
     40         54.185339   0.000000
     41         55.621926   0.000000
     42         55.703287   0.000000
     43         57.285994   0.000000
     44         57.341551   0.000000
     45         58.809097   0.000000
     46         60.180346   0.000000
     47         60.197241   0.000000
     48         60.827174   0.000000
 
  0.1403541E-32 -0.2627943E-33  0.1250000E+00  0.3906250E-02
      1        -15.586913   1.000000
      2        -14.850429   1.000000
      3          2.880567   0.000000
      4          3.001968   0.000000
      5          9.399466   0.000000
      6         17.251468   0.000000
      7         17.251521   0.000000
      8         18.383431   0.000000
      9         18.603565   0.000000
     10         18.603674   0.000000
     11         22.123856   0.000000
     12         22.635616   0.000000
     13         22.635755   0.000000
     14         23.597369   0.000000
     15         24.160706   0.000000
     16         24.347327   0.000000
     17         24.347506   0.000000
     18         26.945871   0.000000
     19         26.945878   0.000000
     20         27.671318   0.000000
     21         27.737762   0.000000
     22         28.096965   0.000000
     23         28.097072   0.000000
     24         34.011113   0.000000
     25         41.033613   0.000000
     26         41.033650   0.000000
     27         41.211303   0.000000
     28         42.322811   0.000000
     29         42.603619   0.000000
     30         42.603754   0.000000
     31         47.573873   0.000000
     32         47.573898   0.000000
     33         47.590925   0.000000
     34         49.155630   0.000000
     35         49.155761   0.000000
     36         49.908961   0.000000
     37         56.095952   0.000000
     38         58.958717   0.000000
     39         61.765977   0.000000
     40         63.627542   0.000000
     41         63.627632   0.000000
     42         65.703866   0.000000
     43         65.704437   0.000000
     44         65.941558   0.000000
     45         67.451129   0.000000
     46         67.451376   0.000000
     47         68.092473   0.000000
     48         70.230893   0.000000
 
  0.1250000E+00  0.1548842E-16  0.1250000E+00  0.2343750E-01
      1        -15.490801   1.000000
      2        -14.803900   1.000000
      3          2.968410   0.000000
      4          3.209295   0.000000
      5          8.915167   0.000000
      6         15.118816   0.000000
      7         15.589267   0.000000
      8         18.305577   0.000000
      9         18.784035   0.000000
     10         19.246957   0.000000
     11         19.773216   0.000000
     12         21.990008   0.000000
     13         22.361316   0.000000
     14         22.748844   0.000000
     15         24.340558   0.000000
     16         24.965838   0.000000
     17         26.173595   0.000000
     18         26.667703   0.000000
     19         27.086376   0.000000
     20         28.990670   0.000000
     21         30.406312   0.000000
     22         30.820321   0.000000
     23         32.857019   0.000000
     24         33.857291   0.000000
     25         37.647651   0.000000
     26         39.187079   0.000000
     27         39.978080   0.000000
     28         42.872253   0.000000
     29         44.131679   0.000000
     30         45.165208   0.000000
     31         45.736498   0.000000
     32         47.343581   0.000000
     33         49.036420   0.000000
     34         50.537412   0.000000
     35         51.732154   0.000000
     36         52.310992   0.000000
     37         54.674165   0.000000
     38         57.003330   0.000000
     39         57.060500   0.000000
     40         60.183410   0.000000
     41         61.152687   0.000000
     42         61.437183   0.000000
     43         64.728063   0.000000
     44         65.073249   0.000000
     45         65.898049   0.000000
     46         66.086402   0.000000
     47         67.314644   0.000000
     48         68.904294   0.000000
 
  0.2500000E+00  0.2574577E-16  0.1250000E+00  0.2343750E-01
      1        -15.243587   1.000000
      2        -14.698035   1.000000
      3          2.930659   0.000000
      4          4.149011   0.000000
      5          7.770524   0.000000
      6         12.803972   0.000000
      7         13.902029   0.000000
      8         14.963878   0.000000
      9         17.019371   0.000000
     10         18.132353   0.000000
     11         19.500726   0.000000
     12         21.224299   0.000000
     13         22.400429   0.000000
     14         22.906626   0.000000
     15         25.250341   0.000000
     16         26.369290   0.000000
     17         27.432053   0.000000
     18         29.938054   0.000000
     19         30.396230   0.000000
     20         32.637551   0.000000
     21         34.236593   0.000000
     22         34.572160   0.000000
     23         34.757658   0.000000
     24         36.455848   0.000000
     25         36.942831   0.000000
     26         37.485927   0.000000
     27         40.366667   0.000000
     28         41.911809   0.000000
     29         43.950525   0.000000
     30         44.614847   0.000000
     31         46.971267   0.000000
     32         49.045134   0.000000
     33         49.477693   0.000000
     34         50.329278   0.000000
     35         51.565553   0.000000
     36         53.447039   0.000000
     37         53.877264   0.000000
     38         54.440115   0.000000
     39         55.720115   0.000000
     40         57.566255   0.000000
     41         58.299632   0.000000
     42         58.354727   0.000000
     43         60.326615   0.000000
     44         62.112960   0.000000
     45         63.946072   0.000000
     46         65.597802   0.000000
     47         66.344358   0.000000
     48         67.224941   0.000000
 
  0.3750000E+00  0.2855498E-16  0.1250000E+00  0.2343750E-01
      1        -14.958948   1.000000
      2        -14.615322   1.000000
      3          3.012800   0.000000
      4          5.185484   0.000000
      5          7.001705   0.000000
      6         11.545694   0.000000
      7         12.000179   0.000000
      8         12.855658   0.000000
      9         14.213047   0.000000
     10         17.187186   0.000000
     11         20.245708   0.000000
     12         20.772474   0.000000
     13         21.893341   0.000000
     14         23.556100   0.000000
     15         26.568824   0.000000
     16         28.169148   0.000000
     17         30.426253   0.000000
     18         30.865556   0.000000
     19         32.887398   0.000000
     20         34.472648   0.000000
     21         35.627920   0.000000
     22         36.930143   0.000000
     23         37.845221   0.000000
     24         39.221433   0.000000
     25         39.328725   0.000000
     26         40.647691   0.000000
     27         40.746402   0.000000
     28         42.373167   0.000000
     29         43.134974   0.000000
     30         43.349388   0.000000
     31         44.602613   0.000000
     32         47.082409   0.000000
     33         47.886237   0.000000
     34         49.934794   0.000000
     35         50.762859   0.000000
     36         51.396637   0.000000
     37         53.143290   0.000000
     38         53.833808   0.000000
     39         55.386548   0.000000
     40         57.020689   0.000000
     41         57.684700   0.000000
     42         59.988876   0.000000
     43         60.346770   0.000000
     44         61.759784   0.000000
     45         62.862367   0.000000
     46         64.056005   0.000000
     47         64.759416   0.000000
     48         64.805820   0.000000
 
  0.5000000E+00  0.4626047E-16  0.1250000E+00  0.1171875E-01
      1        -14.811495   1.000000
      2        -14.605913   1.000000
      3          3.133623   0.000000
      4          5.078595   0.000000
      5          8.173976   0.000000
      6          9.349098   0.000000
      7         12.076102   0.000000
      8         12.503706   0.000000
      9         12.783945   0.000000
     10         16.856326   0.000000
     11         20.074239   0.000000
     12         21.541122   0.000000
     13         21.747364   0.000000
     14         23.110129   0.000000
     15         26.939950   0.000000
     16         28.485183   0.000000
     17         31.594424   0.000000
     18         33.117153   0.000000
     19         35.131737   0.000000
     20         35.582026   0.000000
     21         36.252633   0.000000
     22         36.594642   0.000000
     23         37.623050   0.000000
     24         38.200384   0.000000
     25         40.577404   0.000000
     26         40.915566   0.000000
     27         41.587713   0.000000
     28         42.381060   0.000000
     29         44.503261   0.000000
     30         45.007749   0.000000
     31         45.147468   0.000000
     32         45.640271   0.000000
     33         47.113602   0.000000
     34         48.205553   0.000000
     35         49.113358   0.000000
     36         51.201070   0.000000
     37         53.361954   0.000000
     38         54.735195   0.000000
     39         55.618814   0.000000
     40         56.380699   0.000000
     41         58.642383   0.000000
     42         58.840267   0.000000
     43         59.188770   0.000000
     44         59.532908   0.000000
     45         61.328897   0.000000
     46         61.650141   0.000000
     47         65.254826   0.000000
     48         65.797218   0.000000
 
  0.2500000E+00  0.1250000E+00  0.1250000E+00  0.2343750E-01
      1        -15.318960   1.000000
      2        -14.727633   1.000000
      3          2.942492   0.000000
      4          3.847163   0.000000
      5          8.211238   0.000000
      6         12.432652   0.000000
      7         14.471489   0.000000
      8         17.262337   0.000000
      9         17.823313   0.000000
     10         18.126046   0.000000
     11         20.075507   0.000000
     12         20.343222   0.000000
     13         21.975109   0.000000
     14         22.031848   0.000000
     15         25.463886   0.000000
     16         26.508805   0.000000
     17         28.431584   0.000000
     18         28.593052   0.000000
     19         29.554859   0.000000
     20         30.594756   0.000000
     21         31.821952   0.000000
     22         33.974354   0.000000
     23         34.495177   0.000000
     24         36.558262   0.000000
     25         36.653422   0.000000
     26         38.364758   0.000000
     27         40.742047   0.000000
     28         41.267196   0.000000
     29         42.233183   0.000000
     30         46.472348   0.000000
     31         46.862266   0.000000
     32         48.965633   0.000000
     33         49.177927   0.000000
     34         51.520752   0.000000
     35         51.718289   0.000000
     36         52.220076   0.000000
     37         54.802633   0.000000
     38         55.662769   0.000000
     39         57.022263   0.000000
     40         57.538198   0.000000
     41         58.564483   0.000000
     42         60.253573   0.000000
     43         61.085334   0.000000
     44         61.218781   0.000000
     45         61.688068   0.000000
     46         65.826060   0.000000
     47         66.173111   0.000000
     48         66.379834   0.000000
 
  0.3750000E+00  0.1250000E+00  0.1250000E+00  0.4687500E-01
      1        -15.050927   1.000000
      2        -14.633418   1.000000
      3          3.030174   0.000000
      4          4.960921   0.000000
      5          7.381055   0.000000
      6         10.228259   0.000000
      7         12.333842   0.000000
      8         14.281588   0.000000