He                                      
           1
     2.926610    0.000000    0.000000
     1.463305    2.534519    0.000000
     0.000000    0.000000    4.779130
   He
     2
Direct configuration=     1
   0.00000000  0.00000000  0.00000000
   0.33333333  0.33333333  0.50000000
