 DBCSR| CPU Multiplication driver                                           BLAS (U)
 DBCSR| Multrec recursion limit                                              512 (U)
 DBCSR| Multiplication stack size                                           1000 (D)
 DBCSR| Maximum elements for images                                    UNLIMITED (U)
 DBCSR| Multiplicative factor virtual images                                   1 (U)
 DBCSR| Use multiplication densification                                       T (D)
 DBCSR| Multiplication size stacks                                             3 (U)
 DBCSR| Use memory pool for CPU allocation                                     F (U)
 DBCSR| Number of 3D layers                                               SINGLE (U)
 DBCSR| Use MPI memory allocation                                              F (U)
 DBCSR| Use RMA algorithm                                                      F (U)
 DBCSR| Use Communication thread                                               T (U)
 DBCSR| Communication thread load                                             45 (D)
 DBCSR| MPI: My process id                                                     0
 DBCSR| MPI: Number of processes                                               8
 DBCSR| OMP: Current number of threads                                        12
 DBCSR| OMP: Max number of threads                                            12
 DBCSR| Split modifier for TAS multiplication algorithm                  1.0E+00 (U)


  **** **** ******  **  PROGRAM STARTED AT               2025-08-03 20:17:13.246
 ***** ** ***  *** **   PROGRAM STARTED ON                          i04r10c03s06
 **    ****   ******    PROGRAM STARTED BY                               di38fab
 ***** **    ** ** **   PROGRAM PROCESS ID                               1321733
  **** **  *******  **  PROGRAM STARTED IN /hppfs/scratch/04/di38fab/09_GTH/Delt
                                           a_Set/Mg/TZVP-MOLOPT-PBE-GTH/8x8x8

 CP2K| version string:                 CP2K version 2025.1 (Development Version)
 CP2K| source code revision number:                                  git:3130539
 CP2K| cp2kflags: omp libint fftw3 libxc parallel scalapack max_contr=4         
 CP2K| is freely available from                            https://www.cp2k.org/
 CP2K| Program compiled at                         Tue Jun  3 16:14:32 CEST 2025
 CP2K| Program compiled on                                               login01
 CP2K| Program compiled for                                        Supermuc-foss
 CP2K| Data directory path                  /hppfs/work/pn36zo/di38fab/cp2k/data
 CP2K| Input file name                                                    GW.inp

 GLOBAL| Force Environment number                                              1
 GLOBAL| Basis set file name            /hppfs/scratch/04/di38fab/09_GTH/BASIS_A
 GLOBAL| Potential file name            /hppfs/work/pn36zo/di38fab/cp2k/data/GTH
 GLOBAL| MM Potential file name                                     MM_POTENTIAL
 GLOBAL| Coordinate file name                                             Mg.cif
 GLOBAL| Method name                                                        CP2K
 GLOBAL| Project name                                                       WSe2
 GLOBAL| Run type                                                         ENERGY
 GLOBAL| FFT library                                                       FFTW3
 GLOBAL| Diagonalization library                                       ScaLAPACK
 GLOBAL| Cholesky decomposition library                                ScaLAPACK
 GLOBAL| DGEMM library                                                      BLAS
 GLOBAL| Orthonormality check for eigenvectors                          DISABLED
 GLOBAL| Matrix multiplication library                                 ScaLAPACK
 GLOBAL| All-to-all communication in single precision                          F
 GLOBAL| FFTs using library dependent lengths                                  F
 GLOBAL| Grid backend                                                       AUTO
 GLOBAL| Global print level                                               MEDIUM
 GLOBAL| MPI I/O enabled                                                       T
 GLOBAL| Total number of message passing processes                             8
 GLOBAL| Number of threads for this process                                   12
 GLOBAL| This output is from process                                           0
 GLOBAL| OpenMP stack size per thread (OMP_STACKSIZE)                    default
 GLOBAL| CPU model name             Intel(R) Xeon(R) Platinum 8174 CPU @ 3.10GHz

 MEMORY| system memory details [Kb]
 MEMORY|                        rank 0           min           max       average
 MEMORY| MemTotal             98436660      98436660      98436664      98436662
 MEMORY| MemFree              84665784      84665784      84707652      84686718
 MEMORY| Buffers                     0             0             0             0
 MEMORY| Cached                2346080       2346080       2372092       2359086
 MEMORY| Slab                  1266524       1266524       1267048       1266786
 MEMORY| SReclaimable           277688        277688        279172        278430
 MEMORY| MemLikelyFree        87289552      87289552      87358916      87324234


 *** Fundamental physical constants (SI units) ***

 *** Literature: B. J. Mohr and B. N. Taylor,
 ***             CODATA recommended values of the fundamental physical
 ***             constants: 2006, Web Version 5.1
 ***             http://physics.nist.gov/constants

 Speed of light in vacuum [m/s]                             2.99792458000000E+08
 Magnetic constant or permeability of vacuum [N/A**2]       1.25663706143592E-06
 Electric constant or permittivity of vacuum [F/m]          8.85418781762039E-12
 Planck constant (h) [J*s]                                  6.62606896000000E-34
 Planck constant (h-bar) [J*s]                              1.05457162825177E-34
 Elementary charge [C]                                      1.60217648700000E-19
 Electron mass [kg]                                         9.10938215000000E-31
 Electron g factor [ ]                                     -2.00231930436220E+00
 Proton mass [kg]                                           1.67262163700000E-27
 Fine-structure constant                                    7.29735253760000E-03
 Rydberg constant [1/m]                                     1.09737315685270E+07
 Avogadro constant [1/mol]                                  6.02214179000000E+23
 Boltzmann constant [J/K]                                   1.38065040000000E-23
 Atomic mass unit [kg]                                      1.66053878200000E-27
 Bohr radius [m]                                            5.29177208590000E-11

 *** Conversion factors ***

 [u] -> [a.u.]                                              1.82288848426455E+03
 [Angstrom] -> [Bohr] = [a.u.]                              1.88972613288564E+00
 [a.u.] = [Bohr] -> [Angstrom]                              5.29177208590000E-01
 [a.u.] -> [s]                                              2.41888432650478E-17
 [a.u.] -> [fs]                                             2.41888432650478E-02
 [a.u.] -> [J]                                              4.35974393937059E-18
 [a.u.] -> [N]                                              8.23872205491840E-08
 [a.u.] -> [K]                                              3.15774647902944E+05
 [a.u.] -> [kJ/mol]                                         2.62549961709828E+03
 [a.u.] -> [kcal/mol]                                       6.27509468713739E+02
 [a.u.] -> [Pa]                                             2.94210107994716E+13
 [a.u.] -> [bar]                                            2.94210107994716E+08
 [a.u.] -> [atm]                                            2.90362800883016E+08
 [a.u.] -> [eV]                                             2.72113838565563E+01
 [a.u.] -> [Hz]                                             6.57968392072181E+15
 [a.u.] -> [1/cm] (wave numbers)                            2.19474631370540E+05
 [a.u./Bohr**2] -> [1/cm]                                   5.14048714338585E+03
 

 CELL_TOP| Volume [angstrom^3]:                                        45.695232
 CELL_TOP| Vector a [angstrom     3.194     0.000     0.000   |a| =     3.194050
 CELL_TOP| Vector b [angstrom     1.597     2.766     0.000   |b| =     3.194050
 CELL_TOP| Vector c [angstrom     0.000     0.000     5.172   |c| =     5.171980
 CELL_TOP| Angle (b,c), alpha [degree]:                                90.000000
 CELL_TOP| Angle (a,c), beta  [degree]:                                90.000000
 CELL_TOP| Angle (a,b), gamma [degree]:                                60.000000
 CELL_TOP| Numerically orthorhombic:                                          NO
 CELL_TOP| Periodicity                                                       XYZ

 CELL_CIF| Volume [angstrom^3]:                                        45.695232
 CELL_CIF| Vector a [angstrom     3.194     0.000     0.000   |a| =     3.194050
 CELL_CIF| Vector b [angstrom     1.597     2.766     0.000   |b| =     3.194050
 CELL_CIF| Vector c [angstrom     0.000     0.000     5.172   |c| =     5.171980
 CELL_CIF| Angle (b,c), alpha [degree]:                                90.000000
 CELL_CIF| Angle (a,c), beta  [degree]:                                90.000000
 CELL_CIF| Angle (a,b), gamma [degree]:                                60.000000
 CELL_CIF| Numerically orthorhombic:                                          NO
 CELL_CIF| Periodicity                                                       XYZ

 GENERATE|  Preliminary Number of Bonds generated:                             0
 GENERATE|  Achieved consistency in connectivity generation.

 CELL| Volume [angstrom^3]:                                            45.695232
 CELL| Vector a [angstrom]:       3.194     0.000     0.000   |a| =     3.194050
 CELL| Vector b [angstrom]:       1.597     2.766     0.000   |b| =     3.194050
 CELL| Vector c [angstrom]:       0.000     0.000     5.172   |c| =     5.171980
 CELL| Angle (b,c), alpha [degree]:                                    90.000000
 CELL| Angle (a,c), beta  [degree]:                                    90.000000
 CELL| Angle (a,b), gamma [degree]:                                    60.000000
 CELL| Numerically orthorhombic:                                              NO
 CELL| Periodicity                                                           XYZ

 CELL_REF| Volume [angstrom^3]:                                        45.695232
 CELL_REF| Vector a [angstrom     3.194     0.000     0.000   |a| =     3.194050
 CELL_REF| Vector b [angstrom     1.597     2.766     0.000   |b| =     3.194050
 CELL_REF| Vector c [angstrom     0.000     0.000     5.172   |c| =     5.171980
 CELL_REF| Angle (b,c), alpha [degree]:                                90.000000
 CELL_REF| Angle (a,c), beta  [degree]:                                90.000000
 CELL_REF| Angle (a,b), gamma [degree]:                                60.000000
 CELL_REF| Numerically orthorhombic:                                          NO
 CELL_REF| Periodicity                                                       XYZ

 *** WARNING in cryssym.F:180 :: Symmetry library SPGLIB not available ***


 *******************************************************************************
                                    Kpoints
 *******************************************************************************
 BRILLOUIN| K-point scheme                                        Monkhorst-Pack
 BRILLOUIN| K-Point grid                                             8    8    8
 BRILLOUIN| Accuracy in Symmetry determination                      0.100000E-05
 BRILLOUIN| K-Point point group symmetrization                               OFF
 BRILLOUIN| Wavefunction type                                            COMPLEX
 BRILLOUIN| List of Kpoints [2 Pi/Bohr]                                      256
 BRILLOUIN| Number           Weight            X              Y              Z
 BRILLOUIN|     1           0.00391       -0.43750       -0.43750       -0.43750
 BRILLOUIN|     2           0.00391       -0.43750       -0.43750       -0.31250
 BRILLOUIN|     3           0.00391       -0.43750       -0.43750       -0.18750
 BRILLOUIN|     4           0.00391       -0.43750       -0.43750       -0.06250
 BRILLOUIN|     5           0.00391       -0.43750       -0.43750        0.06250
 BRILLOUIN|     6           0.00391       -0.43750       -0.43750        0.18750
 BRILLOUIN|     7           0.00391       -0.43750       -0.43750        0.31250
 BRILLOUIN|     8           0.00391       -0.43750       -0.43750        0.43750
 BRILLOUIN|     9           0.00391       -0.43750       -0.31250       -0.43750
 BRILLOUIN|    10           0.00391       -0.43750       -0.31250       -0.31250
 BRILLOUIN|    11           0.00391       -0.43750       -0.31250       -0.18750
 BRILLOUIN|    12           0.00391       -0.43750       -0.31250       -0.06250
 BRILLOUIN|    13           0.00391       -0.43750       -0.31250        0.06250
 BRILLOUIN|    14           0.00391       -0.43750       -0.31250        0.18750
 BRILLOUIN|    15           0.00391       -0.43750       -0.31250        0.31250
 BRILLOUIN|    16           0.00391       -0.43750       -0.31250        0.43750
 BRILLOUIN|    17           0.00391       -0.43750       -0.18750       -0.43750
 BRILLOUIN|    18           0.00391       -0.43750       -0.18750       -0.31250
 BRILLOUIN|    19           0.00391       -0.43750       -0.18750       -0.18750
 BRILLOUIN|    20           0.00391       -0.43750       -0.18750       -0.06250
 BRILLOUIN|    21           0.00391       -0.43750       -0.18750        0.06250
 BRILLOUIN|    22           0.00391       -0.43750       -0.18750        0.18750
 BRILLOUIN|    23           0.00391       -0.43750       -0.18750        0.31250
 BRILLOUIN|    24           0.00391       -0.43750       -0.18750        0.43750
 BRILLOUIN|    25           0.00391       -0.43750       -0.06250       -0.43750
 BRILLOUIN|    26           0.00391       -0.43750       -0.06250       -0.31250
 BRILLOUIN|    27           0.00391       -0.43750       -0.06250       -0.18750
 BRILLOUIN|    28           0.00391       -0.43750       -0.06250       -0.06250
 BRILLOUIN|    29           0.00391       -0.43750       -0.06250        0.06250
 BRILLOUIN|    30           0.00391       -0.43750       -0.06250        0.18750
 BRILLOUIN|    31           0.00391       -0.43750       -0.06250        0.31250
 BRILLOUIN|    32           0.00391       -0.43750       -0.06250        0.43750
 BRILLOUIN|    33           0.00391       -0.43750        0.06250       -0.43750
 BRILLOUIN|    34           0.00391       -0.43750        0.06250       -0.31250
 BRILLOUIN|    35           0.00391       -0.43750        0.06250       -0.18750
 BRILLOUIN|    36           0.00391       -0.43750        0.06250       -0.06250
 BRILLOUIN|    37           0.00391       -0.43750        0.06250        0.06250
 BRILLOUIN|    38           0.00391       -0.43750        0.06250        0.18750
 BRILLOUIN|    39           0.00391       -0.43750        0.06250        0.31250
 BRILLOUIN|    40           0.00391       -0.43750        0.06250        0.43750
 BRILLOUIN|    41           0.00391       -0.43750        0.18750       -0.43750
 BRILLOUIN|    42           0.00391       -0.43750        0.18750       -0.31250
 BRILLOUIN|    43           0.00391       -0.43750        0.18750       -0.18750
 BRILLOUIN|    44           0.00391       -0.43750        0.18750       -0.06250
 BRILLOUIN|    45           0.00391       -0.43750        0.18750        0.06250
 BRILLOUIN|    46           0.00391       -0.43750        0.18750        0.18750
 BRILLOUIN|    47           0.00391       -0.43750        0.18750        0.31250
 BRILLOUIN|    48           0.00391       -0.43750        0.18750        0.43750
 BRILLOUIN|    49           0.00391       -0.43750        0.31250       -0.43750
 BRILLOUIN|    50           0.00391       -0.43750        0.31250       -0.31250
 BRILLOUIN|    51           0.00391       -0.43750        0.31250       -0.18750
 BRILLOUIN|    52           0.00391       -0.43750        0.31250       -0.06250
 BRILLOUIN|    53           0.00391       -0.43750        0.31250        0.06250
 BRILLOUIN|    54           0.00391       -0.43750        0.31250        0.18750
 BRILLOUIN|    55           0.00391       -0.43750        0.31250        0.31250
 BRILLOUIN|    56           0.00391       -0.43750        0.31250        0.43750
 BRILLOUIN|    57           0.00391       -0.43750        0.43750       -0.43750
 BRILLOUIN|    58           0.00391       -0.43750        0.43750       -0.31250
 BRILLOUIN|    59           0.00391       -0.43750        0.43750       -0.18750
 BRILLOUIN|    60           0.00391       -0.43750        0.43750       -0.06250
 BRILLOUIN|    61           0.00391       -0.43750        0.43750        0.06250
 BRILLOUIN|    62           0.00391       -0.43750        0.43750        0.18750
 BRILLOUIN|    63           0.00391       -0.43750        0.43750        0.31250
 BRILLOUIN|    64           0.00391       -0.43750        0.43750        0.43750
 BRILLOUIN|    65           0.00391       -0.31250       -0.43750       -0.43750
 BRILLOUIN|    66           0.00391       -0.31250       -0.43750       -0.31250
 BRILLOUIN|    67           0.00391       -0.31250       -0.43750       -0.18750
 BRILLOUIN|    68           0.00391       -0.31250       -0.43750       -0.06250
 BRILLOUIN|    69           0.00391       -0.31250       -0.43750        0.06250
 BRILLOUIN|    70           0.00391       -0.31250       -0.43750        0.18750
 BRILLOUIN|    71           0.00391       -0.31250       -0.43750        0.31250
 BRILLOUIN|    72           0.00391       -0.31250       -0.43750        0.43750
 BRILLOUIN|    73           0.00391       -0.31250       -0.31250       -0.43750
 BRILLOUIN|    74           0.00391       -0.31250       -0.31250       -0.31250
 BRILLOUIN|    75           0.00391       -0.31250       -0.31250       -0.18750
 BRILLOUIN|    76           0.00391       -0.31250       -0.31250       -0.06250
 BRILLOUIN|    77           0.00391       -0.31250       -0.31250        0.06250
 BRILLOUIN|    78           0.00391       -0.31250       -0.31250        0.18750
 BRILLOUIN|    79           0.00391       -0.31250       -0.31250        0.31250
 BRILLOUIN|    80           0.00391       -0.31250       -0.31250        0.43750
 BRILLOUIN|    81           0.00391       -0.31250       -0.18750       -0.43750
 BRILLOUIN|    82           0.00391       -0.31250       -0.18750       -0.31250
 BRILLOUIN|    83           0.00391       -0.31250       -0.18750       -0.18750
 BRILLOUIN|    84           0.00391       -0.31250       -0.18750       -0.06250
 BRILLOUIN|    85           0.00391       -0.31250       -0.18750        0.06250
 BRILLOUIN|    86           0.00391       -0.31250       -0.18750        0.18750
 BRILLOUIN|    87           0.00391       -0.31250       -0.18750        0.31250
 BRILLOUIN|    88           0.00391       -0.31250       -0.18750        0.43750
 BRILLOUIN|    89           0.00391       -0.31250       -0.06250       -0.43750
 BRILLOUIN|    90           0.00391       -0.31250       -0.06250       -0.31250
 BRILLOUIN|    91           0.00391       -0.31250       -0.06250       -0.18750
 BRILLOUIN|    92           0.00391       -0.31250       -0.06250       -0.06250
 BRILLOUIN|    93           0.00391       -0.31250       -0.06250        0.06250
 BRILLOUIN|    94           0.00391       -0.31250       -0.06250        0.18750
 BRILLOUIN|    95           0.00391       -0.31250       -0.06250        0.31250
 BRILLOUIN|    96           0.00391       -0.31250       -0.06250        0.43750
 BRILLOUIN|    97           0.00391       -0.31250        0.06250       -0.43750
 BRILLOUIN|    98           0.00391       -0.31250        0.06250       -0.31250
 BRILLOUIN|    99           0.00391       -0.31250        0.06250       -0.18750
 BRILLOUIN|   100           0.00391       -0.31250        0.06250       -0.06250
 BRILLOUIN|   101           0.00391       -0.31250        0.06250        0.06250
 BRILLOUIN|   102           0.00391       -0.31250        0.06250        0.18750
 BRILLOUIN|   103           0.00391       -0.31250        0.06250        0.31250
 BRILLOUIN|   104           0.00391       -0.31250        0.06250        0.43750
 BRILLOUIN|   105           0.00391       -0.31250        0.18750       -0.43750
 BRILLOUIN|   106           0.00391       -0.31250        0.18750       -0.31250
 BRILLOUIN|   107           0.00391       -0.31250        0.18750       -0.18750
 BRILLOUIN|   108           0.00391       -0.31250        0.18750       -0.06250
 BRILLOUIN|   109           0.00391       -0.31250        0.18750        0.06250
 BRILLOUIN|   110           0.00391       -0.31250        0.18750        0.18750
 BRILLOUIN|   111           0.00391       -0.31250        0.18750        0.31250
 BRILLOUIN|   112           0.00391       -0.31250        0.18750        0.43750
 BRILLOUIN|   113           0.00391       -0.31250        0.31250       -0.43750
 BRILLOUIN|   114           0.00391       -0.31250        0.31250       -0.31250
 BRILLOUIN|   115           0.00391       -0.31250        0.31250       -0.18750
 BRILLOUIN|   116           0.00391       -0.31250        0.31250       -0.06250
 BRILLOUIN|   117           0.00391       -0.31250        0.31250        0.06250
 BRILLOUIN|   118           0.00391       -0.31250        0.31250        0.18750
 BRILLOUIN|   119           0.00391       -0.31250        0.31250        0.31250
 BRILLOUIN|   120           0.00391       -0.31250        0.31250        0.43750
 BRILLOUIN|   121           0.00391       -0.31250        0.43750       -0.43750
 BRILLOUIN|   122           0.00391       -0.31250        0.43750       -0.31250
 BRILLOUIN|   123           0.00391       -0.31250        0.43750       -0.18750
 BRILLOUIN|   124           0.00391       -0.31250        0.43750       -0.06250
 BRILLOUIN|   125           0.00391       -0.31250        0.43750        0.06250
 BRILLOUIN|   126           0.00391       -0.31250        0.43750        0.18750
 BRILLOUIN|   127           0.00391       -0.31250        0.43750        0.31250
 BRILLOUIN|   128           0.00391       -0.31250        0.43750        0.43750
 BRILLOUIN|   129           0.00391       -0.18750       -0.43750       -0.43750
 BRILLOUIN|   130           0.00391       -0.18750       -0.43750       -0.31250
 BRILLOUIN|   131           0.00391       -0.18750       -0.43750       -0.18750
 BRILLOUIN|   132           0.00391       -0.18750       -0.43750       -0.06250
 BRILLOUIN|   133           0.00391       -0.18750       -0.43750        0.06250
 BRILLOUIN|   134           0.00391       -0.18750       -0.43750        0.18750
 BRILLOUIN|   135           0.00391       -0.18750       -0.43750        0.31250
 BRILLOUIN|   136           0.00391       -0.18750       -0.43750        0.43750
 BRILLOUIN|   137           0.00391       -0.18750       -0.31250       -0.43750
 BRILLOUIN|   138           0.00391       -0.18750       -0.31250       -0.31250
 BRILLOUIN|   139           0.00391       -0.18750       -0.31250       -0.18750
 BRILLOUIN|   140           0.00391       -0.18750       -0.31250       -0.06250
 BRILLOUIN|   141           0.00391       -0.18750       -0.31250        0.06250
 BRILLOUIN|   142           0.00391       -0.18750       -0.31250        0.18750
 BRILLOUIN|   143           0.00391       -0.18750       -0.31250        0.31250
 BRILLOUIN|   144           0.00391       -0.18750       -0.31250        0.43750
 BRILLOUIN|   145           0.00391       -0.18750       -0.18750       -0.43750
 BRILLOUIN|   146           0.00391       -0.18750       -0.18750       -0.31250
 BRILLOUIN|   147           0.00391       -0.18750       -0.18750       -0.18750
 BRILLOUIN|   148           0.00391       -0.18750       -0.18750       -0.06250
 BRILLOUIN|   149           0.00391       -0.18750       -0.18750        0.06250
 BRILLOUIN|   150           0.00391       -0.18750       -0.18750        0.18750
 BRILLOUIN|   151           0.00391       -0.18750       -0.18750        0.31250
 BRILLOUIN|   152           0.00391       -0.18750       -0.18750        0.43750
 BRILLOUIN|   153           0.00391       -0.18750       -0.06250       -0.43750
 BRILLOUIN|   154           0.00391       -0.18750       -0.06250       -0.31250
 BRILLOUIN|   155           0.00391       -0.18750       -0.06250       -0.18750
 BRILLOUIN|   156           0.00391       -0.18750       -0.06250       -0.06250
 BRILLOUIN|   157           0.00391       -0.18750       -0.06250        0.06250
 BRILLOUIN|   158           0.00391       -0.18750       -0.06250        0.18750
 BRILLOUIN|   159           0.00391       -0.18750       -0.06250        0.31250
 BRILLOUIN|   160           0.00391       -0.18750       -0.06250        0.43750
 BRILLOUIN|   161           0.00391       -0.18750        0.06250       -0.43750
 BRILLOUIN|   162           0.00391       -0.18750        0.06250       -0.31250
 BRILLOUIN|   163           0.00391       -0.18750        0.06250       -0.18750
 BRILLOUIN|   164           0.00391       -0.18750        0.06250       -0.06250
 BRILLOUIN|   165           0.00391       -0.18750        0.06250        0.06250
 BRILLOUIN|   166           0.00391       -0.18750        0.06250        0.18750
 BRILLOUIN|   167           0.00391       -0.18750        0.06250        0.31250
 BRILLOUIN|   168           0.00391       -0.18750        0.06250        0.43750
 BRILLOUIN|   169           0.00391       -0.18750        0.18750       -0.43750
 BRILLOUIN|   170           0.00391       -0.18750        0.18750       -0.31250
 BRILLOUIN|   171           0.00391       -0.18750        0.18750       -0.18750
 BRILLOUIN|   172           0.00391       -0.18750        0.18750       -0.06250
 BRILLOUIN|   173           0.00391       -0.18750        0.18750        0.06250
 BRILLOUIN|   174           0.00391       -0.18750        0.18750        0.18750
 BRILLOUIN|   175           0.00391       -0.18750        0.18750        0.31250
 BRILLOUIN|   176           0.00391       -0.18750        0.18750        0.43750
 BRILLOUIN|   177           0.00391       -0.18750        0.31250       -0.43750
 BRILLOUIN|   178           0.00391       -0.18750        0.31250       -0.31250
 BRILLOUIN|   179           0.00391       -0.18750        0.31250       -0.18750
 BRILLOUIN|   180           0.00391       -0.18750        0.31250       -0.06250
 BRILLOUIN|   181           0.00391       -0.18750        0.31250        0.06250
 BRILLOUIN|   182           0.00391       -0.18750        0.31250        0.18750
 BRILLOUIN|   183           0.00391       -0.18750        0.31250        0.31250
 BRILLOUIN|   184           0.00391       -0.18750        0.31250        0.43750
 BRILLOUIN|   185           0.00391       -0.18750        0.43750       -0.43750
 BRILLOUIN|   186           0.00391       -0.18750        0.43750       -0.31250
 BRILLOUIN|   187           0.00391       -0.18750        0.43750       -0.18750
 BRILLOUIN|   188           0.00391       -0.18750        0.43750       -0.06250
 BRILLOUIN|   189           0.00391       -0.18750        0.43750        0.06250
 BRILLOUIN|   190           0.00391       -0.18750        0.43750        0.18750
 BRILLOUIN|   191           0.00391       -0.18750        0.43750        0.31250
 BRILLOUIN|   192           0.00391       -0.18750        0.43750        0.43750
 BRILLOUIN|   193           0.00391       -0.06250       -0.43750       -0.43750
 BRILLOUIN|   194           0.00391       -0.06250       -0.43750       -0.31250
 BRILLOUIN|   195           0.00391       -0.06250       -0.43750       -0.18750
 BRILLOUIN|   196           0.00391       -0.06250       -0.43750       -0.06250
 BRILLOUIN|   197           0.00391       -0.06250       -0.43750        0.06250
 BRILLOUIN|   198           0.00391       -0.06250       -0.43750        0.18750
 BRILLOUIN|   199           0.00391       -0.06250       -0.43750        0.31250
 BRILLOUIN|   200           0.00391       -0.06250       -0.43750        0.43750
 BRILLOUIN|   201           0.00391       -0.06250       -0.31250       -0.43750
 BRILLOUIN|   202           0.00391       -0.06250       -0.31250       -0.31250
 BRILLOUIN|   203           0.00391       -0.06250       -0.31250       -0.18750
 BRILLOUIN|   204           0.00391       -0.06250       -0.31250       -0.06250
 BRILLOUIN|   205           0.00391       -0.06250       -0.31250        0.06250
 BRILLOUIN|   206           0.00391       -0.06250       -0.31250        0.18750
 BRILLOUIN|   207           0.00391       -0.06250       -0.31250        0.31250
 BRILLOUIN|   208           0.00391       -0.06250       -0.31250        0.43750
 BRILLOUIN|   209           0.00391       -0.06250       -0.18750       -0.43750
 BRILLOUIN|   210           0.00391       -0.06250       -0.18750       -0.31250
 BRILLOUIN|   211           0.00391       -0.06250       -0.18750       -0.18750
 BRILLOUIN|   212           0.00391       -0.06250       -0.18750       -0.06250
 BRILLOUIN|   213           0.00391       -0.06250       -0.18750        0.06250
 BRILLOUIN|   214           0.00391       -0.06250       -0.18750        0.18750
 BRILLOUIN|   215           0.00391       -0.06250       -0.18750        0.31250
 BRILLOUIN|   216           0.00391       -0.06250       -0.18750        0.43750
 BRILLOUIN|   217           0.00391       -0.06250       -0.06250       -0.43750
 BRILLOUIN|   218           0.00391       -0.06250       -0.06250       -0.31250
 BRILLOUIN|   219           0.00391       -0.06250       -0.06250       -0.18750
 BRILLOUIN|   220           0.00391       -0.06250       -0.06250       -0.06250
 BRILLOUIN|   221           0.00391       -0.06250       -0.06250        0.06250
 BRILLOUIN|   222           0.00391       -0.06250       -0.06250        0.18750
 BRILLOUIN|   223           0.00391       -0.06250       -0.06250        0.31250
 BRILLOUIN|   224           0.00391       -0.06250       -0.06250        0.43750
 BRILLOUIN|   225           0.00391       -0.06250        0.06250       -0.43750
 BRILLOUIN|   226           0.00391       -0.06250        0.06250       -0.31250
 BRILLOUIN|   227           0.00391       -0.06250        0.06250       -0.18750
 BRILLOUIN|   228           0.00391       -0.06250        0.06250       -0.06250
 BRILLOUIN|   229           0.00391       -0.06250        0.06250        0.06250
 BRILLOUIN|   230           0.00391       -0.06250        0.06250        0.18750
 BRILLOUIN|   231           0.00391       -0.06250        0.06250        0.31250
 BRILLOUIN|   232           0.00391       -0.06250        0.06250        0.43750
 BRILLOUIN|   233           0.00391       -0.06250        0.18750       -0.43750
 BRILLOUIN|   234           0.00391       -0.06250        0.18750       -0.31250
 BRILLOUIN|   235           0.00391       -0.06250        0.18750       -0.18750
 BRILLOUIN|   236           0.00391       -0.06250        0.18750       -0.06250
 BRILLOUIN|   237           0.00391       -0.06250        0.18750        0.06250
 BRILLOUIN|   238           0.00391       -0.06250        0.18750        0.18750
 BRILLOUIN|   239           0.00391       -0.06250        0.18750        0.31250
 BRILLOUIN|   240           0.00391       -0.06250        0.18750        0.43750
 BRILLOUIN|   241           0.00391       -0.06250        0.31250       -0.43750
 BRILLOUIN|   242           0.00391       -0.06250        0.31250       -0.31250
 BRILLOUIN|   243           0.00391       -0.06250        0.31250       -0.18750
 BRILLOUIN|   244           0.00391       -0.06250        0.31250       -0.06250
 BRILLOUIN|   245           0.00391       -0.06250        0.31250        0.06250
 BRILLOUIN|   246           0.00391       -0.06250        0.31250        0.18750
 BRILLOUIN|   247           0.00391       -0.06250        0.31250        0.31250
 BRILLOUIN|   248           0.00391       -0.06250        0.31250        0.43750
 BRILLOUIN|   249           0.00391       -0.06250        0.43750       -0.43750
 BRILLOUIN|   250           0.00391       -0.06250        0.43750       -0.31250
 BRILLOUIN|   251           0.00391       -0.06250        0.43750       -0.18750
 BRILLOUIN|   252           0.00391       -0.06250        0.43750       -0.06250
 BRILLOUIN|   253           0.00391       -0.06250        0.43750        0.06250
 BRILLOUIN|   254           0.00391       -0.06250        0.43750        0.18750
 BRILLOUIN|   255           0.00391       -0.06250        0.43750        0.31250
 BRILLOUIN|   256           0.00391       -0.06250        0.43750        0.43750
 *******************************************************************************

 *******************************************************************************
 *******************************************************************************
 **                                                                           **
 **     #####                         ##              ##                      **
 **    ##   ##            ##          ##              ##                      **
 **   ##     ##                       ##            ######                    **
 **   ##     ##  ##   ##  ##   #####  ##  ##   ####   ##    #####    #####    **
 **   ##     ##  ##   ##  ##  ##      ## ##   ##      ##   ##   ##  ##   ##   **
 **   ##  ## ##  ##   ##  ##  ##      ####     ###    ##   ######   ######    **
 **    ##  ###   ##   ##  ##  ##      ## ##      ##   ##   ##       ##        **
 **     #######   #####   ##   #####  ##  ##  ####    ##    #####   ##        **
 **           ##                                                    ##        **
 **                                                                           **
 **                                                ... make the atoms dance   **
 **                                                                           **
 **            Copyright (C) by CP2K developers group (2000-2025)             **
 **                      J. Chem. Phys. 152, 194103 (2020)                    **
 **                                                                           **
 *******************************************************************************

 DFT| Spin restricted Kohn-Sham (RKS) calculation                            RKS
 DFT| Multiplicity                                                             1
 DFT| Number of spin states                                                    1
 DFT| Charge                                                                   0
 DFT| Self-interaction correction (SIC)                                       NO
 DFT| Cutoffs: density                                              1.000000E-10
 DFT|          gradient                                             1.000000E-10
 DFT|          tau                                                  1.000000E-10
 DFT|          cutoff_smoothing_range                               0.000000E+00
 DFT| XC density smoothing                                                  NONE
 DFT| XC derivatives                                                          PW

 FUNCTIONAL| PBE:
 FUNCTIONAL| J.P.Perdew, K.Burke, M.Ernzerhof, Phys. Rev. Letter, vol. 77, n 18,
 FUNCTIONAL|  pp. 3865-3868, (1996) {spin unpolarized}                          


 QS| Method:                                                                 GPW
 QS| Density plane wave grid type                        NON-SPHERICAL FULLSPACE
 QS| Number of grid levels:                                                    4
 QS| Density cutoff [a.u.]:                                                500.0
 QS| Multi grid cutoff [a.u.]: 1) grid level                               500.0
 QS|                           2) grid level                               166.7
 QS|                           3) grid level                                55.6
 QS|                           4) grid level                                18.5
 QS| Grid level progression factor:                                          3.0
 QS| Relative density cutoff [a.u.]:                                        50.0
 QS| Interaction thresholds: eps_pgf_orb:                                1.0E-16
 QS|                         eps_filter_matrix:                          0.0E+00
 QS|                         eps_core_charge:                            1.0E-18
 QS|                         eps_rho_gspace:                             1.0E-16
 QS|                         eps_rho_rspace:                             1.0E-16
 QS|                         eps_gvg_rspace:                             1.0E-08
 QS|                         eps_ppl:                                    1.0E-02
 QS|                         eps_ppnl:                                   1.0E-10


 ATOMIC KIND INFORMATION

  1. Atomic kind: Mg                                    Number of atoms:       2

     Orbital Basis Set                                   TZVP-MOLOPT-GGA-GTH-q10

       Number of orbital shell sets:                                           1
       Number of orbital shells:                                               6
       Number of primitive Cartesian functions:                                7
       Number of Cartesian basis functions:                                   10
       Number of spherical basis functions:                                   10
       Norm type:                                                              2

       Normalised Cartesian orbitals:

                        Set   Shell   Orbital            Exponent    Coefficient

                          1       1    2s               30.665113       0.451447
                                                        12.275859       0.726075
                                                         4.272010      -0.526256
                                                         1.495769      -0.610303
                                                         0.537465      -0.133706
                                                         0.150468       0.056297
                                                         0.053463       0.038886

                          1       2    3s               30.665113       0.334492
                                                        12.275859       0.526478
                                                         4.272010      -0.362593
                                                         1.495769      -0.325293
                                                         0.537465      -0.035503
                                                         0.150468      -0.067140
                                                         0.053463      -0.027721

                          1       3    4s               30.665113      -0.099998
                                                        12.275859      -0.274466
                                                         4.272010       0.175263
                                                         1.495769      -0.432909
                                                         0.537465       0.026355
                                                         0.150468       0.323066
                                                         0.053463      -0.137249

                          1       4    5s               30.665113      -0.186629
                                                        12.275859      -0.607745
                                                         4.272010       0.356895
                                                         1.495769      -0.575877
                                                         0.537465       0.591349
                                                         0.150468      -0.004891
                                                         0.053463       0.014396

                          1       5    3px              30.665113       3.733874
                                                        12.275859       5.044435
                                                         4.272010       3.057335
                                                         1.495769       0.909074
                                                         0.537465       0.129687
                                                         0.150468       0.022899
                                                         0.053463       0.004096
                          1       5    3py              30.665113       3.733874
                                                        12.275859       5.044435
                                                         4.272010       3.057335
                                                         1.495769       0.909074
                                                         0.537465       0.129687
                                                         0.150468       0.022899
                                                         0.053463       0.004096
                          1       5    3pz              30.665113       3.733874
                                                        12.275859       5.044435
                                                         4.272010       3.057335
                                                         1.495769       0.909074
                                                         0.537465       0.129687
                                                         0.150468       0.022899
                                                         0.053463       0.004096

                          1       6    4px              30.665113       1.755132
                                                        12.275859       2.473459
                                                         4.272010       1.516219
                                                         1.495769       0.501872
                                                         0.537465      -0.010970
                                                         0.150468      -0.080635
                                                         0.053463      -0.015741
                          1       6    4py              30.665113       1.755132
                                                        12.275859       2.473459
                                                         4.272010       1.516219
                                                         1.495769       0.501872
                                                         0.537465      -0.010970
                                                         0.150468      -0.080635
                                                         0.053463      -0.015741
                          1       6    4pz              30.665113       1.755132
                                                        12.275859       2.473459
                                                         4.272010       1.516219
                                                         1.495769       0.501872
                                                         0.537465      -0.010970
                                                         0.150468      -0.080635
                                                         0.053463      -0.015741

       Atomic covalent radius [Angstrom]:                                  1.360

       Atomic van der Waals radius [Angstrom]:                             1.730

     GTH Potential information for                                   GTH-PBE-q10

       Description:                       Goedecker-Teter-Hutter pseudopotential
                                           Goedecker et al., PRB 54, 1703 (1996)
                                          Hartwigsen et al., PRB 58, 3641 (1998)
                                                      Krack, TCA 114, 145 (2005)

       Gaussian exponent of the core charge distribution:              13.456923
       Electronic configuration (s p d ...):                               4   6

       Parameters of the local part of the GTH pseudopotential:

                          rloc        C1          C2          C3          C4
                        0.192758  -20.575391    3.040167

       Parameters of the non-local part of the GTH (SOC) pseudopotential:

                   l      r(l)      h(i,j,l)
                                    k(i,j,l)
                   0    0.141407   41.047292
                   1    0.102932   -9.985626
                                    0.103083


 MOLECULE KIND INFORMATION


 All atoms are their own molecule, skipping detailed information


 TOTAL NUMBERS AND MAXIMUM NUMBERS

  Total number of            - Atomic kinds:                                   1
                             - Atoms:                                          2
                             - Shell sets:                                     2
                             - Shells:                                        12
                             - Primitive Cartesian functions:                 14
                             - Cartesian basis functions:                     20
                             - Spherical basis functions:                     20

  Maximum angular momentum of- Orbital basis functions:                        1
                             - Local part of the GTH pseudopotential:          2
                             - Non-local part of the GTH pseudopotential:      1


 MODULE QUICKSTEP: ATOMIC COORDINATES IN ANGSTROM

   Atom Kind Element         X             Y             Z       Z(eff)     Mass
      1    1 Mg   12      0.000000      0.000000      0.000000  10.0000  24.3050
      2    1 Mg   12      1.597009      0.922034      2.585990  10.0000  24.3050



 SCF PARAMETERS         Density guess:                                    ATOMIC
                        --------------------------------------------------------
                        max_scf:                                             500
                        max_scf_history:                                       0
                        max_diis:                                              4
                        --------------------------------------------------------
                        eps_scf:                                        1.00E-09
                        eps_scf_history:                                0.00E+00
                        eps_diis:                                       1.00E-01
                        eps_eigval:                                     1.00E-05
                        --------------------------------------------------------
                        level_shift [a.u.]:                             0.000000
                        added MOs                                        10    0
                        --------------------------------------------------------
                        Mixing method:                            BROYDEN_MIXING
                                                charge density mixing in g-space
                        --------------------------------------------------------
                        Smear method:                                FERMI_DIRAC
                        Electronic temperature [K]:                        300.0
                        Electronic temperature [a.u.]:                  9.50E-04
                        Accuracy threshold:                             1.00E-10
                        --------------------------------------------------------
                        No outer SCF

 PW_GRID| Information for grid number                                          1
 PW_GRID| Grid distributed over                                     8 processors
 PW_GRID| Real space group dimensions                                     8    1
 PW_GRID| the grid is blocked:                                                NO
 PW_GRID| Cutoff [a.u.]                                                    500.0
 PW_GRID| spherical cutoff:                                                   NO
 PW_GRID|   Bounds   1            -32      31                Points:          64
 PW_GRID|   Bounds   2            -32      31                Points:          64
 PW_GRID|   Bounds   3            -50      49                Points:         100
 PW_GRID| Volume element (a.u.^3)  0.7528E-03     Volume (a.u.^3)       308.3667
 PW_GRID| Grid span                                                    FULLSPACE
 PW_GRID|   Distribution                         Average         Max         Min
 PW_GRID|   G-Vectors                            51200.0       51200       51200
 PW_GRID|   G-Rays                                 800.0         800         800
 PW_GRID|   Real Space Points                    51200.0       51200       51200

 PW_GRID| Information for grid number                                          2
 PW_GRID| Number of the reference grid                                         1
 PW_GRID| Grid distributed over                                     8 processors
 PW_GRID| Real space group dimensions                                     8    1
 PW_GRID| the grid is blocked:                                                NO
 PW_GRID| Cutoff [a.u.]                                                    166.7
 PW_GRID| spherical cutoff:                                                   NO
 PW_GRID|   Bounds   1            -18      17                Points:          36
 PW_GRID|   Bounds   2            -18      17                Points:          36
 PW_GRID|   Bounds   3            -30      29                Points:          60
 PW_GRID| Volume element (a.u.^3)  0.3966E-02     Volume (a.u.^3)       308.3667
 PW_GRID| Grid span                                                    FULLSPACE
 PW_GRID|   Distribution                         Average         Max         Min
 PW_GRID|   G-Vectors                             9720.0        9792        9612
 PW_GRID|   G-Rays                                 270.0         272         267
 PW_GRID|   Real Space Points                     9720.0       10800        8640

 PW_GRID| Information for grid number                                          3
 PW_GRID| Number of the reference grid                                         1
 PW_GRID| Grid distributed over                                     8 processors
 PW_GRID| Real space group dimensions                                     8    1
 PW_GRID| the grid is blocked:                                                NO
 PW_GRID| Cutoff [a.u.]                                                     55.6
 PW_GRID| spherical cutoff:                                                   NO
 PW_GRID|   Bounds   1            -12      11                Points:          24
 PW_GRID|   Bounds   2            -12      11                Points:          24
 PW_GRID|   Bounds   3            -18      17                Points:          36
 PW_GRID| Volume element (a.u.^3)  0.1487E-01     Volume (a.u.^3)       308.3667
 PW_GRID| Grid span                                                    FULLSPACE
 PW_GRID|   Distribution                         Average         Max         Min
 PW_GRID|   G-Vectors                             2592.0        2640        2520
 PW_GRID|   G-Rays                                 108.0         110         105
 PW_GRID|   Real Space Points                     2592.0        2592        2592

 PW_GRID| Information for grid number                                          4
 PW_GRID| Number of the reference grid                                         1
 PW_GRID| Grid distributed over                                     8 processors
 PW_GRID| Real space group dimensions                                     8    1
 PW_GRID| the grid is blocked:                                                NO
 PW_GRID| Cutoff [a.u.]                                                     18.5
 PW_GRID| spherical cutoff:                                                   NO
 PW_GRID|   Bounds   1             -6       5                Points:          12
 PW_GRID|   Bounds   2             -6       5                Points:          12
 PW_GRID|   Bounds   3            -10       9                Points:          20
 PW_GRID| Volume element (a.u.^3)  0.1071         Volume (a.u.^3)       308.3667
 PW_GRID| Grid span                                                    FULLSPACE
 PW_GRID|   Distribution                         Average         Max         Min
 PW_GRID|   G-Vectors                              360.0         384         336
 PW_GRID|   G-Rays                                  30.0          32          28
 PW_GRID|   Real Space Points                      360.0         480         240

 POISSON| Solver                                                        PERIODIC
 POISSON| Periodicity                                                        XYZ

 RS_GRID| Information for grid number                                          1
 RS_GRID|   Bounds   1            -32      31                Points:          64
 RS_GRID|   Bounds   2            -32      31                Points:          64
 RS_GRID|   Bounds   3            -50      49                Points:         100
 RS_GRID| Real space fully replicated
 RS_GRID| Group size                                                           1

 RS_GRID| Information for grid number                                          2
 RS_GRID|   Bounds   1            -18      17                Points:          36
 RS_GRID|   Bounds   2            -18      17                Points:          36
 RS_GRID|   Bounds   3            -30      29                Points:          60
 RS_GRID| Real space fully replicated
 RS_GRID| Group size                                                           1

 RS_GRID| Information for grid number                                          3
 RS_GRID|   Bounds   1            -12      11                Points:          24
 RS_GRID|   Bounds   2            -12      11                Points:          24
 RS_GRID|   Bounds   3            -18      17                Points:          36
 RS_GRID| Real space fully replicated
 RS_GRID| Group size                                                           1

 RS_GRID| Information for grid number                                          4
 RS_GRID|   Bounds   1             -6       5                Points:          12
 RS_GRID|   Bounds   2             -6       5                Points:          12
 RS_GRID|   Bounds   3            -10       9                Points:          20
 RS_GRID| Real space fully replicated
 RS_GRID| Group size                                                           1

 Number of electrons:                                                         20
 Number of occupied orbitals:                                                 10
 Number of molecular orbitals:                                                20

 Number of orbital functions:                                                 20
 Number of independent orbital functions:                                     20

 Extrapolation method: initial_guess

 Atomic guess: The first density matrix is obtained in terms of atomic orbitals
               and electronic configurations assigned to each atomic kind

 Guess for atomic kind: Mg

 Electronic structure
    Total number of core electrons                                          2.00
    Total number of valence electrons                                      10.00
    Total number of electrons                                              12.00
    Multiplicity                                                   not specified
    S   [  2.00] 2.00  2.00
    P      6.00


 *******************************************************************************
                  Iteration          Convergence                     Energy [au]
 *******************************************************************************
                          1        0.480599                     -62.895651278951
                          2        0.115641                     -62.918892595906
                          3        0.216244E-02                 -62.920836393842
                          4        0.944897E-04                 -62.920838888682
                          5        0.550337E-06                 -62.920838891918

 Energy components [Hartree]           Total Energy ::          -62.920838891918
                                        Band Energy ::          -16.064589131537
                                     Kinetic Energy ::           51.625568833497
                                   Potential Energy ::         -114.546407725416
                                      Virial (-V/T) ::            2.218792166627
                                        Core Energy ::         -104.138158067142
                                          XC Energy ::           -8.247605648506
                                     Coulomb Energy ::           49.464924823729
                       Total Pseudopotential Energy ::         -155.824535693828
                       Local Pseudopotential Energy ::         -154.920245327364
                    Nonlocal Pseudopotential Energy ::           -0.904290366464
                                        Confinement ::            0.608087931890

 Orbital energies  State     L     Occupation   Energy[a.u.]          Energy[eV]

                       1     0          2.000      -2.889836          -78.636434
                       2     0          2.000      -0.140229           -3.815834

                       1     1          6.000      -1.667410          -45.372528


 Total Electron Density at R=0:                                         0.001678
 Re-scaling the density matrix to get the right number of electrons
                  # Electrons              Trace(P)               Scaling factor
                           20                20.000                        1.000


 SCF WAVEFUNCTION OPTIMIZATION

  Step     Update method      Time    Convergence         Total energy    Change
  ------------------------------------------------------------------------------
     1 NoMix/Diag. 0.10E+00    3.8     1.94828755      -126.8363204370 -1.27E+02
     2 Broy./Diag. 0.10E+00    4.0     0.00058187      -126.3856508813  4.51E-01
     3 Broy./Diag. 0.10E+00    4.0     0.00731806      -126.7296923449 -3.44E-01
     4 Broy./Diag. 0.10E+00    4.0     0.00056331      -126.7665049861 -3.68E-02
     5 Broy./Diag. 0.10E+00    4.0     0.00293847      -126.6218164574  1.45E-01
     6 Broy./Diag. 0.10E+00    4.0     0.00005747      -126.5670027092  5.48E-02
     7 Broy./Diag. 0.10E+00    4.0     0.00046707      -126.5657501203  1.25E-03
     8 Broy./Diag. 0.10E+00    4.0     0.00000991      -126.5618893071  3.86E-03
     9 Broy./Diag. 0.10E+00    4.0     0.00011505      -126.5623157556 -4.26E-04
    10 Broy./Diag. 0.10E+00    4.0     0.00004508      -126.5623558451 -4.01E-05
    11 Broy./Diag. 0.10E+00    4.0     0.00025977      -126.5622548382  1.01E-04
    12 Broy./Diag. 0.10E+00    4.0     0.00008751      -126.5623281006 -7.33E-05
    13 Broy./Diag. 0.10E+00    4.0     0.00007057      -126.5623338053 -5.70E-06
    14 Broy./Diag. 0.10E+00    4.0     0.00002917      -126.5623376095 -3.80E-06
    15 Broy./Diag. 0.10E+00    4.0     0.00002217      -126.5623318955  5.71E-06
    16 Broy./Diag. 0.10E+00    4.0     0.00002630      -126.5623271087  4.79E-06
    17 Broy./Diag. 0.10E+00    4.0     0.00001420      -126.5623297918 -2.68E-06
    18 Broy./Diag. 0.10E+00    4.0     0.00001410      -126.5623403389 -1.05E-05
    19 Broy./Diag. 0.10E+00    4.0     0.00000292      -126.5623427836 -2.44E-06
    20 Broy./Diag. 0.10E+00    4.0     0.00000049      -126.5623419525  8.31E-07
    21 Broy./Diag. 0.10E+00    4.0     0.00000074      -126.5623408909  1.06E-06
    22 Broy./Diag. 0.10E+00    4.0     0.00000007      -126.5623407772  1.14E-07
    23 Broy./Diag. 0.10E+00    4.0     0.00000003      -126.5623409876 -2.10E-07
    24 Broy./Diag. 0.10E+00    4.0     0.00000004      -126.5623419150 -9.27E-07
    25 Broy./Diag. 0.10E+00    4.0     0.00000001      -126.5623422514 -3.36E-07
    26 Broy./Diag. 0.10E+00    4.0     0.00000001      -126.5623422370  1.44E-08
    27 Broy./Diag. 0.10E+00    4.0     7.3575E-09      -126.5623422266  1.03E-08
    28 Broy./Diag. 0.10E+00    4.0     2.9212E-10      -126.5623422343 -7.69E-09

  *** SCF run converged in    28 steps ***


  Electronic density on regular grids:        -19.9999999818        0.0000000182
  Core density on regular grids:               20.0000000000        0.0000000000
  Total charge density on r-space grids:        0.0000000182
  Total charge density g-space grids:           0.0000000182

  Overlap energy of the core charge distribution:               0.00000000000000
  Self energy of the core charge distribution:               -292.69341041574921
  Core Hamiltonian energy:                                     86.52855129961651
  Hartree energy:                                              96.81434505077726
  Exchange-correlation energy:                                -17.21172375525716
  Electronic entropic energy:                                  -0.00010441371348
  Fermi energy:                                                 0.19384683605952

  Total energy:                                              -126.56234223432607

 !-----------------------------------------------------------------------------!
                     Mulliken Population Analysis

 #  Atom  Element  Kind  Atomic population                           Net charge
       1     Mg       1          9.999951                              0.000049
       2     Mg       1         10.000049                             -0.000049
 # Total charge                             20.000000                  0.000000

 !-----------------------------------------------------------------------------!

 !-----------------------------------------------------------------------------!
                           Hirshfeld Charges

  #Atom  Element  Kind  Ref Charge     Population                    Net charge
      1       Mg     1      10.000         10.000                        -0.000
      2       Mg     1      10.000         10.000                         0.000

  Total Charge                                                            0.000
 !-----------------------------------------------------------------------------!

 KPOINTS| Band Structure Calculation
 KPOINTS| Number of k-point sets                                               1
 KPOINTS| Number of added MOs/bands                                           -1
 KPOINTS| Number of k-points in set    1                                     148
 KPOINTS| In units of b-vector [2pi/Bohr]
 KPOINTS| Special point     1 not specifi     0.000000     0.000000     0.000000
 KPOINTS| Special point     2 not specifi     0.500000     0.000000     0.000000
 KPOINTS| Special point     3 not specifi     0.333333     0.333333     0.000000
 KPOINTS| Special point     4 not specifi     0.000000     0.000000     0.000000
 KPOINTS| Time for k-point line                                            1.453

 ENERGY| Total FORCE_EVAL ( QS ) energy [hartree]           -126.562342234326067

 -------------------------------------------------------------------------------
 -                                                                             -
 -                                DBCSR STATISTICS                             -
 -                                                                             -
 -------------------------------------------------------------------------------
 COUNTER                                    TOTAL       BLAS       SMM       ACC
 flops inhomo. stacks                           0       0.0%      0.0%      0.0%
 flops total                         0.000000E+00       0.0%      0.0%      0.0%
 flops max/rank                      0.000000E+00       0.0%      0.0%      0.0%
 matmuls inhomo. stacks                         0       0.0%      0.0%      0.0%
 matmuls total                                  0       0.0%      0.0%      0.0%
 number of processed stacks                     0       0.0%      0.0%      0.0%
 average stack size                                     0.0       0.0       0.0
 marketing flops                     0.000000E+00
 -------------------------------------------------------------------------------
 -                                                                             -
 -                      DBCSR MESSAGE PASSING PERFORMANCE                      -
 -                                                                             -
 -------------------------------------------------------------------------------
 ROUTINE             CALLS      AVE VOLUME [Bytes]
 MP_Bcast                1                     12.
 MP_Allreduce           19                     21.
 MP_Alltoall        647760                    817.
 -------------------------------------------------------------------------------

 -------------------------------------------------------------------------------
 -                                                                             -
 -                                DBM STATISTICS                               -
 -                                                                             -
 -------------------------------------------------------------------------------
    M  x    N  x    K                                          COUNT     PERCENT
 -------------------------------------------------------------------------------

 -------------------------------------------------------------------------------
 -                                                                             -
 -                                GRID STATISTICS                              -
 -                                                                             -
 -------------------------------------------------------------------------------
 LP    KERNEL             BACKEND                              COUNT     PERCENT
 2     collocate general  CPU                                 489346      50.88%
 2     integrate general  CPU                                 472472      49.12%
 0     collocate general  CPU                                      4       0.00%
 0     integrate general  CPU                                      2       0.00%
 -------------------------------------------------------------------------------

 MEMORY| Estimated peak process memory [MiB]                                 324

 -------------------------------------------------------------------------------
 ----                             MULTIGRID INFO                            ----
 -------------------------------------------------------------------------------
 count for grid        1:          45640          cutoff [a.u.]          500.00
 count for grid        2:          11634          cutoff [a.u.]          166.67
 count for grid        3:          10692          cutoff [a.u.]           55.56
 count for grid        4:          17874          cutoff [a.u.]           18.52
 total gridlevel count  :          85840

 -------------------------------------------------------------------------------
 -                                                                             -
 -                         MESSAGE PASSING PERFORMANCE                         -
 -                                                                             -
 -------------------------------------------------------------------------------

 ROUTINE             CALLS      AVE VOLUME [Bytes]
 MP_Group                6
 MP_Bcast           262699                  16494.
 MP_Allreduce       175809                     16.
 MP_Sync                 4
 MP_Alltoall           509                2271500.
 MP_SendRecv           826                 134881.
 MP_ISendRecv          791                 132617.
 MP_Wait            180715
 MP_comm_split           4
 MP_ISend           191564                    103.
 MP_IRecv           305792                     67.
 -------------------------------------------------------------------------------


 -------------------------------------------------------------------------------
 -                                                                             -
 -                           R E F E R E N C E S                               -
 -                                                                             -
 -------------------------------------------------------------------------------
 
 CP2K version 2025.1 (Development Version), the CP2K developers group (2025).
 CP2K is freely available from https://www.cp2k.org/ .
 
 T. D. Kuehne, M. Iannuzzi, M. Del Ben, V. V. Rybkin, P. Seewald, F. Stein, T. 
 Laino, R. Z. Khaliullin, O. Schuett, F. Schiffmann, D. Golze, J. Wilhelm, S. 
 Chulkov, M. H. Bani-Hashemian, V. Weber, U. Borstnik, M. Taillefumier, A. S. 
 Jakobovits, A. Lazzaro, H. Pabst, T. Mueller, R. Schade, M. Guidon, S. 
 Andermatt, N. Holmberg, G. K. Schenter, A. Hehn, A. Bussy, F. Belleflamme, G. 
 Tabacchi, A. Gloess, M. Lass, I. Bethune, C. J. Mundy, C. Plessl, M. Watkins, 
 J. VandeVondele, M. Krack, J. Hutter.
 J. Chem. Phys. 152, 194103 (2020).
 CP2K: An electronic structure and molecular dynamics software package - 
 Quickstep: Efficient and accurate electronic structure calculations.
 https://doi.org/10.1063/5.0007045

 O. Schuett, P. Messmer, J. Hutter, J. VandeVondele.
 Electronic Structure Calculations on Graphics Processing Units, 173-190 (2016).
 GPU-Accelerated Sparse Matrix-Matrix Multiplication for Linear Scaling Density 
 Functional Theory.
 https://doi.org/10.1002/9781118670712.ch8

 J. Hutter, M. Iannuzzi, F. Schiffmann, J. VandeVondele.
 WIREs Comput Mol Sci. 4, 15-25 (2014).
 CP2K: atomistic simulations of condensed matter systems.
 https://doi.org/10.1002/wcms.1159

 U. Borstnik, J. VandeVondele, V. Weber, J. Hutter.
 Parallel Comput. 40, 47-58 (2014).
 Sparse matrix multiplication: The distributed block-compressed sparse row 
 library.
 https://doi.org/10.1016/j.parco.2014.03.012

 J. VandeVondele, J. Hutter.
 J. Chem. Phys. 127, 114105 (2007).
 Gaussian basis sets for accurate calculations on molecular systems in gas and 
 condensed phases.
 https://doi.org/10.1063/1.2770708

 J. VandeVondele, M. Krack, F. Mohamed, M. Parrinello, T. Chassaing, J. Hutter.
 Comput. Phys. Commun. 167, 103-128 (2005).
 QUICKSTEP: Fast and accurate density functional calculations using a mixed 
 Gaussian and plane waves approach.
 https://doi.org/10.1016/j.cpc.2004.12.014

 M. Krack.
 Theor. Chem. Acc. 114, 145-152 (2005).
 Pseudopotentials for H to Kr optimized for gradient-corrected 
 exchange-correlation functionals.
 https://doi.org/10.1007/s00214-005-0655-y

 M. Frigo, S. G. Johnson.
 Proc. IEEE 93, 216-231 (2005).
 The design and implementation of FFTW3.
 https://doi.org/10.1109/JPROC.2004.840301

 C. Hartwigsen, S. Goedecker, J. Hutter.
 Phys. Rev. B 58, 3641-3662 (1998).
 Relativistic separable dual-space Gaussian pseudopotentials from H to Rn.
 https://doi.org/10.1103/PhysRevB.58.3641

 G. Lippert, J. Hutter, M. Parrinello.
 Mol. Phys. 92, 477-487 (1997).
 A hybrid Gaussian and plane wave density functional scheme.
 https://doi.org/10.1080/002689797170220

 S. Goedecker, M. Teter, J. Hutter.
 Phys. Rev. B 54, 1703-1710 (1996).
 Separable dual-space Gaussian pseudopotentials.
 https://doi.org/10.1103/PhysRevB.54.1703

 J. P. Perdew, K. Burke, M. Ernzerhof.
 Phys. Rev. Lett. 77, 3865-3868 (1996).
 Generalized gradient approximation made simple.
 https://doi.org/10.1103/PhysRevLett.77.3865


 -------------------------------------------------------------------------------
 -                                                                             -
 -                                T I M I N G                                  -
 -                                                                             -
 -------------------------------------------------------------------------------
 SUBROUTINE                       CALLS  ASD         SELF TIME        TOTAL TIME
                                MAXIMUM       AVERAGE  MAXIMUM  AVERAGE  MAXIMUM
 CP2K                                 1  1.0    0.018    0.021  119.552  119.553
 qs_energies                          1  2.0    0.009    0.020  118.401  118.408
 scf_env_do_scf                       1  3.0    0.000    0.000  113.850  113.851
 scf_env_do_scf_inner_loop           28  4.0    0.051    0.055  113.850  113.850
 do_general_diag_kp                  29  5.9    0.153    0.190  100.601  101.846
 qs_scf_new_mos_kp                   28  5.0    0.000    0.000   99.185  100.425
 mp_alltoall_i22                 110448  8.7   64.780   79.606   64.780   79.606
 dbcsr_desymmetrize_deep          62688  7.4    0.895    1.049   50.906   61.307
 rskp_transform                   14632  6.9    8.926   48.241    8.926   48.241
 dbcsr_complete_redistribute      47760  8.2    1.388    1.675   31.547   35.927
 kpoint_density_transform            28  7.0    0.086    0.104   27.500   27.570
 copy_fm_to_dbcsr                 14336  8.0    0.081    0.094   22.104   26.253
 transform_dmat                    7168  8.0    4.157   22.445    4.157   22.445
 copy_dbcsr_to_fm                 33424  6.8    0.315    0.361   15.235   15.489
 qs_ks_update_qs_env                 28  5.0    0.000    0.000    4.075    9.473
 rebuild_ks_matrix                   28  6.0    0.000    0.000    2.460    7.858
 qs_ks_build_kohn_sham_matrix        28  7.0    0.097    0.099    2.460    7.858
 transfer_rs2pw                     118  8.0    0.001    0.002    6.138    7.551
 transfer_rs2pw_500                  31  8.9    0.045    0.049    6.098    7.504
 mp_sendrecv_dv                     826 10.0    6.080    7.489    6.080    7.489
 sum_up_and_integrate                28  8.0    0.000    0.000    1.482    6.843
 integrate_v_rspace                  28  9.0    0.023    0.117    1.481    6.842
 grid_integrate_task_list            28 10.0    1.235    6.541    1.235    6.541
 qs_rho_update_rho_low               29  5.0    0.000    0.000    6.489    6.521
 calculate_rho_elec                  29  6.0    0.013    0.019    6.488    6.521
 density_rs2pw                       29  7.0    0.001    0.001    5.249    6.422
 grid_collocate_task_list            29  7.0    1.226    6.191    1.226    6.191
 dbcsr_finalize                  144068  8.1    0.538    0.573    3.676    3.915
 mp_alltoall_d11v                331344  9.3    3.161    3.336    3.161    3.336
 cp_fm_start_copy_general         43600  7.3    0.464    0.746    3.146    3.198
 mp_cart_sub                      66850  8.8    2.725    2.747    2.725    2.747
 write_kpoints_restart               28  5.0    0.017    0.020    2.684    2.684
 cp_dbcsr_alloc_block_from_nbl    14730  5.0    0.464    2.317    0.488    2.380
 dbcsr_merge_all                  47760 10.2    1.346    1.599    2.070    2.316
 hybrid_alltoall_any              62688  8.4    0.236    0.270    2.083    2.219
 dbcsr_dot                       116481  8.0    0.459    0.542    2.060    2.188
 mp_alltoall_i11v                205968  8.9    1.881    1.931    1.881    1.931
 mp_sum_d                        117123  9.0    1.566    1.793    1.566    1.793
 qs_energies_init_hamiltonians        1  3.0    0.000    0.000    1.734    1.734
 evaluate_core_matrix_traces         28  6.0    0.000    0.000    1.614    1.614
 calculate_ptrace_kp                 56  7.0    0.087    0.098    1.614    1.614
 mp_cart_create                   33431  8.8    1.504    1.550    1.504    1.550
 dbcsr_copy                      132896  6.7    0.727    0.781    1.125    1.327
 build_core_hamiltonian_matrix        1  4.0    0.007    0.008    0.338    1.317
 mp_allgather_i                   87200  8.3    1.188    1.306    1.188    1.306
 qs_env_update_s_mstruct              1  4.0    0.000    0.000    1.079    1.246
 calculate_rho_core                   1  5.0    0.001    0.001    0.990    1.225
 dbcsr_create_new                289448  7.8    0.912    0.975    1.101    1.187
 mp_bcast_iv                     174554  8.3    1.024    1.172    1.024    1.172
 dbcsr_work_create               110448  8.7    0.647    0.669    0.949    1.032
 create_qs_kind_set                   1  2.0    0.000    0.000    1.006    1.007
 read_qs_kind                         1  3.0    0.614    0.620    1.006    1.006
 dbcsr_iterator_start            478291  8.7    0.835    0.845    0.957    0.997
 init_scf_run                         1  3.0    0.000    0.000    0.784    0.909
 scf_env_initial_rho_setup            1  4.0    0.000    0.000    0.784    0.909
 self_consistency_check              28  5.0    0.083    0.090    0.884    0.901
 cp_fm_write_unformatted           4160  6.0    0.744    0.814    0.749    0.835
 dbcsr_data_new                 1205785  9.6    0.565    0.828    0.565    0.828
 dbcsr_work_destroy_all          110448  9.7    0.515    0.525    0.778    0.790
 cp_sm_mix                        58240  6.0    0.142    0.197    0.725    0.746
 copy_dbcsr_to_fm_bc              33424  7.8    0.312    0.332    0.701    0.718
 mixing_allocate                      1  3.0    0.012    0.012    0.167    0.701
 calculate_first_density_matrix       1  5.0    0.001    0.001    0.541    0.665
 copy_fm_to_dbcsr_bc              14336  9.0    0.180    0.203    0.595    0.662
 dbcsr_iterator_stop             478291  8.7    0.540    0.548    0.642    0.662
 calculate_atomic_block_dm            1  6.0    0.001    0.001    0.537    0.661
 tree_to_linear_d                 47760 11.2    0.534    0.643    0.534    0.643
 dbcsr_data_release             1809452 10.0    0.574    0.608    0.574    0.608
 fft_wrap_pw1pw2                    509 10.0    0.004    0.004    0.536    0.569
 dbcsr_destroy                   172968  7.8    0.272    0.293    0.473    0.524
 fft_wrap_pw1pw2_500                338 11.3    0.029    0.030    0.490    0.521
 fft3d_ps                           509 12.0    0.161    0.164    0.450    0.483
 mp_max_d                         58242  7.0    0.444    0.479    0.444    0.479
 parser_read_line                134186  4.0    0.044    0.046    0.449    0.453
 parser_read_line_low               153  5.2    0.048    0.201    0.405    0.408
 broadcast_input_information        153  6.2    0.098    0.101    0.357    0.383
 build_overlap_matrix_low             1  5.0    0.014    0.020    0.091    0.368
 calculate_ecore_overlap              1  4.0    0.000    0.000    0.296    0.364
 build_kinetic_matrix_low             1  5.0    0.014    0.019    0.090    0.360
 mp_bcast_im                      87200  8.3    0.313    0.356    0.313    0.356
 qs_env_rebuild_rho                   1  5.0    0.000    0.000    0.083    0.350
 qs_rho_rebuild                       1  6.0    0.006    0.006    0.083    0.350
 dbcsr_copy_into_existing         16416  9.5    0.120    0.253    0.211    0.349
 quick_finalize                   62688  9.4    0.156    0.202    0.255    0.344
 qs_vxc_create                       28  8.0    0.000    0.001    0.340    0.340
 xc_vxc_pw_create                    28  9.0    0.013    0.013    0.339    0.340
 mp_sum_iv                           24  5.3    0.268    0.331    0.268    0.331
 qs_scf_ensure_work_matrices          1  3.0    0.000    0.000    0.268    0.331
 cp_cfm_geeig_canon                 933  6.9    0.005    0.006    0.310    0.321
 mp_waitall_1                    180715  8.3    0.148    0.298    0.148    0.298
 cp_cfm_heevd                      1866  7.9    0.002    0.002    0.287    0.297
 cp_cfm_heevd_base                 1866  8.9    0.285    0.295    0.285    0.295
 mp_alltoall_z22v                   509 14.0    0.251    0.286    0.251    0.286
 dbcsr_set                       206097  7.4    0.180    0.191    0.251    0.282
 mp_comm_free                    100317  8.8    0.225    0.270    0.225    0.270
 gspace_mixing                       27  5.0    0.010    0.010    0.268    0.268
 potential_pw2rs                     28 10.0    0.001    0.002    0.223    0.258
 xc_pw_derive                       168 11.0    0.000    0.001    0.222    0.224
 broyden_mixing                      27  6.0    0.212    0.217    0.219    0.220
 yz_to_x                            229 12.8    0.012    0.013    0.147    0.182
 xc_rho_set_and_dset_create          28 10.0    0.009    0.011    0.176    0.182
 mp_bcast_i_src                     612  7.2    0.148    0.175    0.148    0.175
 kpoint_set_mo_occupation            28  7.0    0.156    0.156    0.166    0.173
 dbcsr_iterator_seek             478291  9.7    0.121    0.165    0.121    0.165
 xc_pw_divergence                    28 10.0    0.000    0.000    0.148    0.152
 x_to_yz                            280 13.2    0.022    0.024    0.138    0.142
 dbcsr_make_index_exist          289448  8.8    0.124    0.139    0.124    0.139
 build_core_ppnl                      1  5.0    0.033    0.138    0.033    0.138
 dbcsr_sort_indices              139514 10.8    0.086    0.129    0.086    0.129
 transfer_pw2rs                     113 11.0    0.001    0.001    0.129    0.129
 dbcsr_reserve_blocks             29066  8.5    0.054    0.096    0.070    0.121
 mp_bcast_am_src                    153  7.2    0.095    0.101    0.109    0.114
 merge_index                      47760 11.2    0.094    0.104    0.094    0.104
 transfer_pw2rs_500                  29 11.9    0.050    0.056    0.092    0.097
 cp_fm_finish_copy_general        18068  7.8    0.048    0.059    0.068    0.096
 kpoint_density_matrices             28  7.0    0.007    0.007    0.091    0.093
 dbcsr_zero                      206097  8.4    0.071    0.091    0.071    0.091
 dbcsr_reserve_all_blocks         14336 10.0    0.020    0.025    0.072    0.090
 parallel_gemm_fm                  3584  8.0    0.003    0.003    0.084    0.085
 parallel_gemm_fm_gemm             3584  9.0    0.003    0.003    0.081    0.082
 mp_irecv_iv                     174400  8.3    0.010    0.079    0.010    0.079
 cp_fm_gemm                        3584 10.0    0.077    0.079    0.077    0.079
 dbcsr_switch_data_area           62688 10.4    0.057    0.057    0.073    0.074
 topology_control                     1  2.0    0.000    0.000    0.062    0.062
 mp_isend_dv                      44192  8.2    0.056    0.059    0.056    0.059
 xc_functional_eval                  28 11.0    0.000    0.000    0.052    0.059
 pbe_lda_eval                        28 12.0    0.052    0.059    0.052    0.059
 mp_isend_iv                      98248  8.3    0.015    0.056    0.015    0.056
 scf_post_calculation_gpw             1  3.0    0.000    0.000    0.056    0.056
 write_available_results              1  4.0    0.000    0.000    0.056    0.056
 write_mo_free_results                1  5.0    0.001    0.001    0.056    0.056
 cp_fm_cleanup_copy_general       31056  7.0    0.033    0.034    0.052    0.053
 build_core_ppl                       1  5.0    0.011    0.053    0.011    0.053
 read_cell_cif                        2  4.5    0.002    0.005    0.042    0.043
 dbcsr_distribution_new           47762  8.5    0.033    0.042    0.033    0.042
 dbcsr_get_data_size_used        110448  9.7    0.035    0.041    0.035    0.041
 mp_irecv_im2                     87200  8.3    0.005    0.039    0.005    0.039
 mp_sum_dv                          323  3.3    0.028    0.039    0.028    0.039
 coordinate_control                   1  3.0    0.001    0.001    0.037    0.037
 coordinate_control_READ_COORDI       1  4.0    0.000    0.000    0.037    0.037
 read_coordinate_cif                  1  5.0    0.002    0.002    0.037    0.037
 kpoint_init_cell_index               2  3.5    0.025    0.032    0.035    0.037
 dbcsr_make_dbcsr_index          139514 10.8    0.035    0.036    0.035    0.036
 qs_create_task_list                  1  5.0    0.000    0.000    0.006    0.035
 generate_qs_task_list                1  6.0    0.005    0.026    0.006    0.035
 mp_comm_size                    117467  9.0    0.029    0.034    0.029    0.034
 transfer_rs2pw_170                  29  9.0    0.007    0.008    0.027    0.033
 pw_scatter_p                       280 12.2    0.028    0.030    0.028    0.030
 mp_comm_rank                    117467  9.0    0.027    0.030    0.027    0.030
 pw_poisson_solve                    28  8.0    0.000    0.000    0.027    0.028
 transfer_pw2rs_170                  28 12.0    0.008    0.008    0.024    0.027
 fft_wrap_pw1pw2_170                 57 10.5    0.002    0.002    0.025    0.026
 qs_init_subsys                       1  2.0    0.001    0.001    0.026    0.026
 mp_irecv_dv                      44192  8.2    0.024    0.026    0.024    0.026
 mp_isend_im2                     49124  8.3    0.007    0.025    0.007    0.025
 dbcsr_data_copy_aa2              47760 10.9    0.017    0.025    0.017    0.025
 mp_isendrecv_dv                    791 13.0    0.012    0.024    0.012    0.024
 qs_env_setup                         1  3.0    0.000    0.000    0.023    0.024
 hirshfeld_integration                1  6.0    0.005    0.021    0.024    0.024
 qs_env_rebuild_pw_env                2  3.5    0.000    0.000    0.023    0.023
 pw_env_rebuild                       1  5.0    0.000    0.000    0.022    0.023
 calculate_hirshfeld_normalizat       1  6.0    0.004    0.017    0.021    0.021
 mp_recv_dv                       12480  7.0    0.003    0.021    0.003    0.021
 pw_grid_setup                        4  6.0    0.000    0.000    0.020    0.021
 pw_grid_setup_internal               4  7.0    0.001    0.001    0.020    0.020
 pw_gather_p                        229 11.8    0.015    0.017    0.015    0.017
 mp_sum_dm3                          28  8.0    0.010    0.017    0.010    0.017
 mp_sum_l                           429  2.1    0.011    0.017    0.011    0.017
 cp_cfm_gemm                       2799  7.9    0.015    0.016    0.015    0.016
 pw_integral_ab_c1d_c1d_gs           28  9.0    0.015    0.016    0.016    0.016
 restraint_control                    1  2.0    0.000    0.000    0.007    0.013
 mp_sum_i                             4  2.8    0.007    0.013    0.007    0.013
 pw_copy                            420 10.5    0.013    0.013    0.013    0.013
 mp_max_iv                            2  4.5    0.010    0.013    0.010    0.013
 -------------------------------------------------------------------------------

 The number of warnings for this run is : 1
 
 -------------------------------------------------------------------------------
  **** **** ******  **  PROGRAM ENDED AT                 2025-08-03 20:19:13.120
 ***** ** ***  *** **   PROGRAM RAN ON                              i04r10c03s06
 **    ****   ******    PROGRAM RAN BY                                   di38fab
 ***** **    ** ** **   PROGRAM PROCESS ID                               1321733
  **** **  *******  **  PROGRAM STOPPED IN /hppfs/scratch/04/di38fab/09_GTH/Delt
                                           a_Set/Mg/TZVP-MOLOPT-PBE-GTH/8x8x8
