Ag                                      
   1.00000000000000     
     4.164240    0.000000    0.000000
     0.000000    4.164240    0.000000
     0.000000    0.000000    4.164240
   Ag
     4
Direct
  0.000000  0.000000  0.000000
  0.000000  0.500000  0.500000
  0.500000  0.000000  0.500000
  0.500000  0.500000  0.000000
 
   36   36   36
  561.42      537.96      475.47      391.85      303.89      221.33      149.21      91.998      53.196      31.761    
  20.998      14.545      10.855      8.8437      7.6700      6.8756      6.3763      6.1724      6.1369      6.1724    
  6.3763      6.8756      7.6700      8.8437      10.855      14.545      20.998      31.761      53.196      91.998    
  149.21      221.33      303.89      391.85      475.47      537.96      537.96      515.86      456.81      377.33    
  293.07      213.45      143.73      88.574      51.410      30.996      20.636      14.378      10.798      8.8366    
  7.6849      6.9030      6.4109      6.2085      6.1724      6.2085      6.4109      6.9030      7.6849      8.8366    
  10.798      14.378      20.636      30.996      51.410      88.574      143.73      213.45      293.07      377.33    
  456.81      515.86      475.47      456.81      406.51      337.65      263.08      191.41      128.41      79.114    
  46.547      28.922      19.625      13.929      10.667      8.8620      7.7885      7.0581      6.6002      6.4109    
  6.3763      6.4109      6.6002      7.0581      7.7885      8.8620      10.667      13.929      19.625      28.922    
  46.547      79.114      128.41      191.41      263.08      337.65      406.51      456.81      391.85      377.33    
  337.65      281.98      220.01      159.44      106.38      65.817      39.909      26.064      18.180      13.330    
  10.553      9.0002      8.0694      7.4427      7.0581      6.9030      6.8756      6.9030      7.0581      7.4427    
  8.0694      9.0002      10.553      13.330      18.180      26.064      39.909      65.817      106.38      159.44    
  220.01      281.98      337.65      377.33      303.89      293.07      263.08      220.01      171.09      123.09    
  81.875      51.586      33.057      22.922      16.583      12.740      10.538      9.2960      8.5533      8.0694    
  7.7885      7.6849      7.6700      7.6849      7.7885      8.0694      8.5533      9.2960      10.538      12.740    
  16.583      22.922      33.057      51.586      81.875      123.09      171.09      220.01      263.08      293.07    
  221.33      213.45      191.41      159.44      123.09      88.081      59.194      39.079      27.131      19.836    
  15.119      12.307      10.703      9.8072      9.2960      9.0002      8.8620      8.8366      8.8437      8.8366    
  8.8620      9.0002      9.2960      9.8072      10.703      12.307      15.119      19.836      27.131      39.079    
  59.194      88.081      123.09      159.44      191.41      213.45      149.21      143.73      128.41      106.38    
  81.875      59.194      41.497      29.743      22.296      17.197      14.009      12.168      11.177      10.703    
  10.538      10.553      10.667      10.798      10.855      10.798      10.667      10.553      10.538      10.703    
  11.177      12.168      14.009      17.197      22.296      29.743      41.497      59.194      81.875      106.38    
  128.41      143.73      91.998      88.574      79.114      65.817      51.586      39.079      29.743      23.220    
  18.432      15.257      13.397      12.467      12.168      12.307      12.740      13.330      13.929      14.378    
  14.545      14.378      13.929      13.330      12.740      12.307      12.168      12.467      13.397      15.257    
  18.432      23.220      29.743      39.079      51.586      65.817      79.114      88.574      53.196      51.410    
  46.547      39.909      33.057      27.131      22.296      18.432      15.720      14.101      13.387      13.397    
  14.009      15.119      16.583      18.180      19.625      20.636      20.998      20.636      19.625      18.180    
  16.583      15.119      14.009      13.397      13.387      14.101      15.720      18.432      22.296      27.131    
  33.057      39.909      46.547      51.410      31.761      30.996      28.922      26.064      22.922      19.836    
  17.197      15.257      14.101      13.721      14.101      15.257      17.197      19.836      22.922      26.064    
  28.922      30.996      31.761      30.996      28.922      26.064      22.922      19.836      17.197      15.257    
  14.101      13.721      14.101      15.257      17.197      19.836      22.922      26.064      28.922      30.996    
  20.998      20.636      19.625      18.180      16.583      15.119      14.009      13.397      13.387      14.101    
  15.720      18.432      22.296      27.131      33.057      39.909      46.547      51.410      53.196      51.410    
  46.547      39.909      33.057      27.131      22.296      18.432      15.720      14.101      13.387      13.397    
  14.009      15.119      16.583      18.180      19.625      20.636      14.545      14.378      13.929      13.330    
  12.740      12.307      12.168      12.467      13.397      15.257      18.432      23.220      29.743      39.079    
  51.586      65.817      79.114      88.574      91.998      88.574      79.114      65.817      51.586      39.079    
  29.743      23.220      18.432      15.257      13.397      12.467      12.168      12.307      12.740      13.330    
  13.929      14.378      10.855      10.798      10.667      10.553      10.538      10.703      11.177      12.168    
  14.009      17.197      22.296      29.743      41.497      59.194      81.875      106.38      128.41      143.73    
  149.21      143.73      128.41      106.38      81.875      59.194      41.497      29.743      22.296      17.197    
  14.009      12.168      11.177      10.703      10.538      10.553      10.667      10.798      8.8437      8.8366    
  8.8620      9.0002      9.2960      9.8072      10.703      12.307      15.119      19.836      27.131      39.079    
  59.194      88.081      123.09      159.44      191.41      213.45      221.33      213.45      191.41      159.44    
  123.09      88.081      59.194      39.079      27.131      19.836      15.119      12.307      10.703      9.8072    
  9.2960      9.0002      8.8620      8.8366      7.6700      7.6849      7.7885      8.0694      8.5533      9.2960    
  10.538      12.740      16.583      22.922      33.057      51.586      81.875      123.09      171.09      220.01    
  263.08      293.07      303.89      293.07      263.08      220.01      171.09      123.09      81.875      51.586    
  33.057      22.922      16.583      12.740      10.538      9.2960      8.5533      8.0694      7.7885      7.6849    
  6.8756      6.9030      7.0581      7.4427      8.0694      9.0002      10.553      13.330      18.180      26.064    
  39.909      65.817      106.38      159.44      220.01      281.98      337.65      377.33      391.85      377.33    
  337.65      281.98      220.01      159.44      106.38      65.817      39.909      26.064      18.180      13.330    
  10.553      9.0002      8.0694      7.4427      7.0581      6.9030      6.3763      6.4109      6.6002      7.0581    
  7.7885      8.8620      10.667      13.929      19.625      28.922      46.547      79.114      128.41      191.41    
  263.08      337.65      406.51      456.81      475.47      456.81      406.51      337.65      263.08      191.41    
  128.41      79.114      46.547      28.922      19.625      13.929      10.667      8.8620      7.7885      7.0581    
  6.6002      6.4109      6.1724      6.2085      6.4109      6.9030      7.6849      8.8366      10.798      14.378    
  20.636      30.996      51.410      88.574      143.73      213.45      293.07      377.33      456.81      515.86    
  537.96      515.86      456.81      377.33      293.07      213.45      143.73      88.574      51.410      30.996    
  20.636      14.378      10.798      8.8366      7.6849      6.9030      6.4109      6.2085      6.1369      6.1724    
  6.3763      6.8756      7.6700      8.8437      10.855      14.545      20.998      31.761      53.196      91.998    
  149.21      221.33      303.89      391.85      475.47      537.96      561.42      537.96      475.47      391.85    
  303.89      221.33      149.21      91.998      53.196      31.761      20.998      14.545      10.855      8.8437    
  7.6700      6.8756      6.3763      6.1724      6.1724      6.2085      6.4109      6.9030      7.6849      8.8366    
  10.798      14.378      20.636      30.996      51.410      88.574      143.73      213.45      293.07      377.33    
  456.81      515.86      537.96      515.86      456.81      377.33      293.07      213.45      143.73      88.574    
  51.410      30.996      20.636      14.378      10.798      8.8366      7.6849      6.9030      6.4109      6.2085    
  6.3763      6.4109      6.6002      7.0581      7.7885      8.8620      10.667      13.929      19.625      28.922    
  46.547      79.114      128.41      191.41      263.08      337.65      406.51      456.81      475.47      456.81    
  406.51      337.65      263.08      191.41      128.41      79.114      46.547      28.922      19.625      13.929    
  10.667      8.8620      7.7885      7.0581      6.6002      6.4109      6.8756      6.9030      7.0581      7.4427    
  8.0694      9.0002      10.553      13.330      18.180      26.064      39.909      65.817      106.38      159.44    
  220.01      281.98      337.65      377.33      391.85      377.33      337.65      281.98      220.01      159.44    
  106.38      65.817      39.909      26.064      18.180      13.330      10.553      9.0002      8.0694      7.4427    
  7.0581      6.9030      7.6700      7.6849      7.7885      8.0694      8.5533      9.2960      10.538      12.740    
  16.583      22.922      33.057      51.586      81.875      123.09      171.09      220.01      263.08      293.07    
  303.89      293.07      263.08      220.01      171.09      123.09      81.875      51.586      33.057      22.922    
  16.583      12.740      10.538      9.2960      8.5533      8.0694      7.7885      7.6849      8.8437      8.8366    
  8.8620      9.0002      9.2960      9.8072      10.703      12.307      15.119      19.836      27.131      39.079    
  59.194      88.081      123.09      159.44      191.41      213.45      221.33      213.45      191.41      159.44    
  123.09      88.081      59.194      39.079      27.131      19.836      15.119      12.307      10.703      9.8072    
  9.2960      9.0002      8.8620      8.8366      10.855      10.798      10.667      10.553      10.538      10.703    
  11.177      12.168      14.009      17.197      22.296      29.743      41.497      59.194      81.875      106.38    
  128.41      143.73      149.21      143.73      128.41      106.38      81.875      59.194      41.497      29.743    
  22.296      17.197      14.009      12.168      11.177      10.703      10.538      10.553      10.667      10.798    
  14.545      14.378      13.929      13.330      12.740      12.307      12.168      12.467      13.397      15.257    
  18.432      23.220      29.743      39.079      51.586      65.817      79.114      88.574      91.998      88.574    
  79.114      65.817      51.586      39.079      29.743      23.220      18.432      15.257      13.397      12.467    
  12.168      12.307      12.740      13.330      13.929      14.378      20.998      20.636      19.625      18.180    
  16.583      15.119      14.009      13.397      13.387      14.101      15.720      18.432      22.296      27.131    
  33.057      39.909      46.547      51.410      53.196      51.410      46.547      39.909      33.057      27.131    
  22.296      18.432      15.720      14.101      13.387      13.397      14.009      15.119      16.583      18.180    
  19.625      20.636      31.761      30.996      28.922      26.064      22.922      19.836      17.197      15.257    
  14.101      13.721      14.101      15.257      17.197      19.836      22.922      26.064      28.922      30.996    
  31.761      30.996      28.922      26.064      22.922      19.836      17.197      15.257      14.101      13.721    
  14.101      15.257      17.197      19.836      22.922      26.064      28.922      30.996      53.196      51.410    
  46.547      39.909      33.057      27.131      22.296      18.432      15.720      14.101      13.387      13.397    
  14.009      15.119      16.583      18.180      19.625      20.636      20.998      20.636      19.625      18.180    
  16.583      15.119      14.009      13.397      13.387      14.101      15.720      18.432      22.296      27.131    
  33.057      39.909      46.547      51.410      91.998      88.574      79.114      65.817      51.586      39.079    
  29.743      23.220      18.432      15.257      13.397      12.467      12.168      12.307      12.740      13.330    
  13.929      14.378      14.545      14.378      13.929      13.330      12.740      12.307      12.168      12.467    
  13.397      15.257      18.432      23.220      29.743      39.079      51.586      65.817      79.114      88.574    
  149.21      143.73      128.41      106.38      81.875      59.194      41.497      29.743      22.296      17.197    
  14.009      12.168      11.177      10.703      10.538      10.553      10.667      10.798      10.855      10.798    
  10.667      10.553      10.538      10.703      11.177      12.168      14.009      17.197      22.296      29.743    
  41.497      59.194      81.875      106.38      128.41      143.73      221.33      213.45      191.41      159.44    
  123.09      88.081      59.194      39.079      27.131      19.836      15.119      12.307      10.703      9.8072    
  9.2960      9.0002      8.8620      8.8366      8.8437      8.8366      8.8620      9.0002      9.2960      9.8072    
  10.703      12.307      15.119      19.836      27.131      39.079      59.194      88.081      123.09      159.44    
  191.41      213.45      303.89      293.07      263.08      220.01      171.09      123.09      81.875      51.586    
  33.057      22.922      16.583      12.740      10.538      9.2960      8.5533      8.0694      7.7885      7.6849    
  7.6700      7.6849      7.7885      8.0694      8.5533      9.2960      10.538      12.740      16.583      22.922    
  33.057      51.586      81.875      123.09      171.09      220.01      263.08      293.07      391.85      377.33    
  337.65      281.98      220.01      159.44      106.38      65.817      39.909      26.064      18.180      13.330    
  10.553      9.0002      8.0694      7.4427      7.0581      6.9030      6.8756      6.9030      7.0581      7.4427    
  8.0694      9.0002      10.553      13.330      18.180      26.064      39.909      65.817      106.38      159.44    
  220.01      281.98      337.65      377.33      475.47      456.81      406.51      337.65      263.08      191.41    
  128.41      79.114      46.547      28.922      19.625      13.929      10.667      8.8620      7.7885      7.0581    
  6.6002      6.4109      6.3763      6.4109      6.6002      7.0581      7.7885      8.8620      10.667      13.929    
  19.625      28.922      46.547      79.114      128.41      191.41      263.08      337.65      406.51      456.81    
  537.96      515.86      456.81      377.33      293.07      213.45      143.73      88.574      51.410      30.996    
  20.636      14.378      10.798      8.8366      7.6849      6.9030      6.4109      6.2085      6.1724      6.2085    
  6.4109      6.9030      7.6849      8.8366      10.798      14.378      20.636      30.996      51.410      88.574    
  143.73      213.45      293.07      377.33      456.81      515.86      537.96      515.86      456.81      377.33    
  293.07      213.45      143.73      88.574      51.410      30.996      20.636      14.378      10.798      8.8366    
  7.6849      6.9030      6.4109      6.2085      6.1724      6.2085      6.4109      6.9030      7.6849      8.8366    
  10.798      14.378      20.636      30.996      51.410      88.574      143.73      213.45      293.07      377.33    
  456.81      515.86      515.86      495.01      439.13      363.47      282.67      205.84      138.43      85.286    
  49.706      30.267      20.283      14.216      10.741      8.8298      7.6999      6.9306      6.4459      6.2451    
  6.2085      6.2451      6.4459      6.9306      7.6999      8.8298      10.741      14.216      20.283      30.267    
  49.706      85.286      138.43      205.84      282.67      363.47      439.13      495.01      456.81      439.13    
  391.32      325.51      253.79      184.54      123.66      76.209      45.073      28.285      19.300      13.779    
  10.614      8.8541      7.8015      7.0836      6.6333      6.4459      6.4109      6.4459      6.6333      7.0836    
  7.8015      8.8541      10.614      13.779      19.300      28.285      45.073      76.209      123.66      184.54    
  253.79      325.51      391.32      439.13      377.33      363.47      325.51      272.01      212.21      153.64    
  102.43      63.474      38.753      25.542      17.896      13.197      10.501      8.9878      8.0758      7.4609    
  7.0836      6.9306      6.9030      6.9306      7.0836      7.4609      8.0758      8.9878      10.501      13.197    
  17.896      25.542      38.753      63.474      102.43      153.64      212.21      272.01      325.51      363.47    
  293.07      282.67      253.79      212.21      164.91      118.55      78.871      49.881      32.233      22.494    
  16.346      12.623      10.486      9.2759      8.5491      8.0758      7.8015      7.6999      7.6849      7.6999    
  7.8015      8.0758      8.5491      9.2759      10.486      12.623      16.346      22.494      32.233      49.881    
  78.871      118.55      164.91      212.21      253.79      282.67      213.45      205.84      184.54      153.64    
  118.55      84.834      57.147      37.969      26.568      19.498      14.928      12.204      10.648      9.7750    
  9.2759      8.9878      8.8541      8.8298      8.8366      8.8298      8.8541      8.9878      9.2759      9.7750    
  10.648      12.204      14.928      19.498      26.568      37.969      57.147      84.834      118.55      153.64    
  184.54      205.84      143.73      138.43      123.66      102.43      78.871      57.147      40.271      29.074    
  21.883      16.941      13.855      12.072      11.110      10.648      10.486      10.501      10.614      10.741    
  10.798      10.741      10.614      10.501      10.486      10.648      11.110      12.072      13.855      16.941    
  21.883      29.074      40.271      57.147      78.871      102.43      123.66      138.43      88.574      85.286    
  76.209      63.474      49.881      37.969      29.074      22.779      18.138      15.066      13.266      12.364    
  12.072      12.204      12.623      13.197      13.779      14.216      14.378      14.216      13.779      13.197    
  12.623      12.204      12.072      12.364      13.266      15.066      18.138      22.779      29.074      37.969    
  49.881      63.474      76.209      85.286      51.410      49.706      45.073      38.753      32.233      26.568    
  21.883      18.138      15.515      13.950      13.258      13.266      13.855      14.928      16.346      17.896    
  19.300      20.283      20.636      20.283      19.300      17.896      16.346      14.928      13.855      13.266    
  13.258      13.950      15.515      18.138      21.883      26.568      32.233      38.753      45.073      49.706    
  30.996      30.267      28.285      25.542      22.494      19.498      16.941      15.066      13.950      13.583    
  13.950      15.066      16.941      19.498      22.494      25.542      28.285      30.267      30.996      30.267    
  28.285      25.542      22.494      19.498      16.941      15.066      13.950      13.583      13.950      15.066    
  16.941      19.498      22.494      25.542      28.285      30.267      20.636      20.283      19.300      17.896    
  16.346      14.928      13.855      13.266      13.258      13.950      15.515      18.138      21.883      26.568    
  32.233      38.753      45.073      49.706      51.410      49.706      45.073      38.753      32.233      26.568    
  21.883      18.138      15.515      13.950      13.258      13.266      13.855      14.928      16.346      17.896    
  19.300      20.283      14.378      14.216      13.779      13.197      12.623      12.204      12.072      12.364    
  13.266      15.066      18.138      22.779      29.074      37.969      49.881      63.474      76.209      85.286    
  88.574      85.286      76.209      63.474      49.881      37.969      29.074      22.779      18.138      15.066    
  13.266      12.364      12.072      12.204      12.623      13.197      13.779      14.216      10.798      10.741    
  10.614      10.501      10.486      10.648      11.110      12.072      13.855      16.941      21.883      29.074    
  40.271      57.147      78.871      102.43      123.66      138.43      143.73      138.43      123.66      102.43    
  78.871      57.147      40.271      29.074      21.883      16.941      13.855      12.072      11.110      10.648    
  10.486      10.501      10.614      10.741      8.8366      8.8298      8.8541      8.9878      9.2759      9.7750    
  10.648      12.204      14.928      19.498      26.568      37.969      57.147      84.834      118.55      153.64    
  184.54      205.84      213.45      205.84      184.54      153.64      118.55      84.834      57.147      37.969    
  26.568      19.498      14.928      12.204      10.648      9.7750      9.2759      8.9878      8.8541      8.8298    
  7.6849      7.6999      7.8015      8.0758      8.5491      9.2759      10.486      12.623      16.346      22.494    
  32.233      49.881      78.871      118.55      164.91      212.21      253.79      282.67      293.07      282.67    
  253.79      212.21      164.91      118.55      78.871      49.881      32.233      22.494      16.346      12.623    
  10.486      9.2759      8.5491      8.0758      7.8015      7.6999      6.9030      6.9306      7.0836      7.4609    
  8.0758      8.9878      10.501      13.197      17.896      25.542      38.753      63.474      102.43      153.64    
  212.21      272.01      325.51      363.47      377.33      363.47      325.51      272.01      212.21      153.64    
  102.43      63.474      38.753      25.542      17.896      13.197      10.501      8.9878      8.0758      7.4609    
  7.0836      6.9306      6.4109      6.4459      6.6333      7.0836      7.8015      8.8541      10.614      13.779    
  19.300      28.285      45.073      76.209      123.66      184.54      253.79      325.51      391.32      439.13    
  456.81      439.13      391.32      325.51      253.79      184.54      123.66      76.209      45.073      28.285    
  19.300      13.779      10.614      8.8541      7.8015      7.0836      6.6333      6.4459      6.2085      6.2451    
  6.4459      6.9306      7.6999      8.8298      10.741      14.216      20.283      30.267      49.706      85.286    
  138.43      205.84      282.67      363.47      439.13      495.01      515.86      495.01      439.13      363.47    
  282.67      205.84      138.43      85.286      49.706      30.267      20.283      14.216      10.741      8.8298    
  7.6999      6.9306      6.4459      6.2451      6.1724      6.2085      6.4109      6.9030      7.6849      8.8366    
  10.798      14.378      20.636      30.996      51.410      88.574      143.73      213.45      293.07      377.33    
  456.81      515.86      537.96      515.86      456.81      377.33      293.07      213.45      143.73      88.574    
  51.410      30.996      20.636      14.378      10.798      8.8366      7.6849      6.9030      6.4109      6.2085    
  6.2085      6.2451      6.4459      6.9306      7.6999      8.8298      10.741      14.216      20.283      30.267    
  49.706      85.286      138.43      205.84      282.67      363.47      439.13      495.01      515.86      495.01    
  439.13      363.47      282.67      205.84      138.43      85.286      49.706      30.267      20.283      14.216    
  10.741      8.8298      7.6999      6.9306      6.4459      6.2451      6.4109      6.4459      6.6333      7.0836    
  7.8015      8.8541      10.614      13.779      19.300      28.285      45.073      76.209      123.66      184.54    
  253.79      325.51      391.32      439.13      456.81      439.13      391.32      325.51      253.79      184.54    
  123.66      76.209      45.073      28.285      19.300      13.779      10.614      8.8541      7.8015      7.0836    
  6.6333      6.4459      6.9030      6.9306      7.0836      7.4609      8.0758      8.9878      10.501      13.197    
  17.896      25.542      38.753      63.474      102.43      153.64      212.21      272.01      325.51      363.47    
  377.33      363.47      325.51      272.01      212.21      153.64      102.43      63.474      38.753      25.542    
  17.896      13.197      10.501      8.9878      8.0758      7.4609      7.0836      6.9306      7.6849      7.6999    
  7.8015      8.0758      8.5491      9.2759      10.486      12.623      16.346      22.494      32.233      49.881    
  78.871      118.55      164.91      212.21      253.79      282.67      293.07      282.67      253.79      212.21    
  164.91      118.55      78.871      49.881      32.233      22.494      16.346      12.623      10.486      9.2759    
  8.5491      8.0758      7.8015      7.6999      8.8366      8.8298      8.8541      8.9878      9.2759      9.7750    
  10.648      12.204      14.928      19.498      26.568      37.969      57.147      84.834      118.55      153.64    
  184.54      205.84      213.45      205.84      184.54      153.64      118.55      84.834      57.147      37.969    
  26.568      19.498      14.928      12.204      10.648      9.7750      9.2759      8.9878      8.8541      8.8298    
  10.798      10.741      10.614      10.501      10.486      10.648      11.110      12.072      13.855      16.941    
  21.883      29.074      40.271      57.147      78.871      102.43      123.66      138.43      143.73      138.43    
  123.66      102.43      78.871      57.147      40.271      29.074      21.883      16.941      13.855      12.072    
  11.110      10.648      10.486      10.501      10.614      10.741      14.378      14.216      13.779      13.197    
  12.623      12.204      12.072      12.364      13.266      15.066      18.138      22.779      29.074      37.969    
  49.881      63.474      76.209      85.286      88.574      85.286      76.209      63.474      49.881      37.969    
  29.074      22.779      18.138      15.066      13.266      12.364      12.072      12.204      12.623      13.197    
  13.779      14.216      20.636      20.283      19.300      17.896      16.346      14.928      13.855      13.266    
  13.258      13.950      15.515      18.138      21.883      26.568      32.233      38.753      45.073      49.706    
  51.410      49.706      45.073      38.753      32.233      26.568      21.883      18.138      15.515      13.950    
  13.258      13.266      13.855      14.928      16.346      17.896      19.300      20.283      30.996      30.267    
  28.285      25.542      22.494      19.498      16.941      15.066      13.950      13.583      13.950      15.066    
  16.941      19.498      22.494      25.542      28.285      30.267      30.996      30.267      28.285      25.542    
  22.494      19.498      16.941      15.066      13.950      13.583      13.950      15.066      16.941      19.498    
  22.494      25.542      28.285      30.267      51.410      49.706      45.073      38.753      32.233      26.568    
  21.883      18.138      15.515      13.950      13.258      13.266      13.855      14.928      16.346      17.896    
  19.300      20.283      20.636      20.283      19.300      17.896      16.346      14.928      13.855      13.266    
  13.258      13.950      15.515      18.138      21.883      26.568      32.233      38.753      45.073      49.706    
  88.574      85.286      76.209      63.474      49.881      37.969      29.074      22.779      18.138      15.066    
  13.266      12.364      12.072      12.204      12.623      13.197      13.779      14.216      14.378      14.216    
  13.779      13.197      12.623      12.204      12.072      12.364      13.266      15.066      18.138      22.779    
  29.074      37.969      49.881      63.474      76.209      85.286      143.73      138.43      123.66      102.43    
  78.871      57.147      40.271      29.074      21.883      16.941      13.855      12.072      11.110      10.648    
  10.486      10.501      10.614      10.741      10.798      10.741      10.614      10.501      10.486      10.648    
  11.110      12.072      13.855      16.941      21.883      29.074      40.271      57.147      78.871      102.43    
  123.66      138.43      213.45      205.84      184.54      153.64      118.55      84.834      57.147      37.969    
  26.568      19.498      14.928      12.204      10.648      9.7750      9.2759      8.9878      8.8541      8.8298    
  8.8366      8.8298      8.8541      8.9878      9.2759      9.7750      10.648      12.204      14.928      19.498    
  26.568      37.969      57.147      84.834      118.55      153.64      184.54      205.84      293.07      282.67    