Ag                                      
   1.00000000000000     
     4.164240    0.000000    0.000000
     0.000000    4.164240    0.000000
     0.000000    0.000000    4.164240
   Ag
     4
Direct
  0.000000  0.000000  0.000000
  0.000000  0.500000  0.500000
  0.500000  0.000000  0.500000
  0.500000  0.500000  0.000000
 
   36   36   36
 0.56142353074E+03 0.53796437601E+03 0.47546679299E+03 0.39184590482E+03 0.30388614908E+03
 0.22132766153E+03 0.14920935789E+03 0.91998304606E+02 0.53196429935E+02 0.31760785688E+02
 0.20998389861E+02 0.14545471307E+02 0.10855229009E+02 0.88436736020E+01 0.76699553136E+01
 0.68755848372E+01 0.63762774296E+01 0.61724164338E+01 0.61368934502E+01 0.61724164338E+01
 0.63762774296E+01 0.68755848372E+01 0.76699553136E+01 0.88436736020E+01 0.10855229009E+02
 0.14545471307E+02 0.20998389861E+02 0.31760785688E+02 0.53196429935E+02 0.91998304606E+02
 0.14920935789E+03 0.22132766153E+03 0.30388614908E+03 0.39184590482E+03 0.47546679299E+03
 0.53796437601E+03 0.53796437601E+03 0.51586346875E+03 0.45680952104E+03 0.37732982644E+03
 0.29307149534E+03 0.21344727779E+03 0.14372503173E+03 0.88573981600E+02 0.51409554615E+02
 0.30996251453E+02 0.20635539910E+02 0.14378154636E+02 0.10797550785E+02 0.88366366045E+01
 0.76849352317E+01 0.69030206078E+01 0.64109314053E+01 0.62085249499E+01 0.61724164338E+01
 0.62085249499E+01 0.64109314053E+01 0.69030206078E+01 0.76849352317E+01 0.88366366045E+01
 0.10797550785E+02 0.14378154636E+02 0.20635539910E+02 0.30996251453E+02 0.51409554615E+02
 0.88573981600E+02 0.14372503173E+03 0.21344727779E+03 0.29307149534E+03 0.37732982644E+03
 0.45680952104E+03 0.51586346875E+03 0.47546679299E+03 0.45680952104E+03 0.40651197395E+03
 0.33765337805E+03 0.26308084558E+03 0.19140923313E+03 0.12841368471E+03 0.79114398571E+02
 0.46547432870E+02 0.28922008849E+02 0.19625300891E+02 0.13929118729E+02 0.10666892977E+02
 0.88619750889E+01 0.77885030729E+01 0.70581393310E+01 0.66002190634E+01 0.64109314053E+01
 0.63762774296E+01 0.64109314053E+01 0.66002190634E+01 0.70581393310E+01 0.77885030729E+01
 0.88619750889E+01 0.10666892977E+02 0.13929118729E+02 0.19625300891E+02 0.28922008849E+02
 0.46547432870E+02 0.79114398571E+02 0.12841368471E+03 0.19140923313E+03 0.26308084558E+03
 0.33765337805E+03 0.40651197395E+03 0.45680952104E+03 0.39184590482E+03 0.37732982644E+03
 0.33765337805E+03 0.28197723583E+03 0.22000800289E+03 0.15943614663E+03 0.10638147305E+03
 0.65816832039E+02 0.39908508311E+02 0.26064246174E+02 0.18179512982E+02 0.13330335188E+02
 0.10552845928E+02 0.90001677518E+01 0.80693990250E+01 0.74427007207E+01 0.70581393310E+01
 0.69030206078E+01 0.68755848372E+01 0.69030206078E+01 0.70581393310E+01 0.74427007207E+01
 0.80693990250E+01 0.90001677518E+01 0.10552845928E+02 0.13330335188E+02 0.18179512982E+02
 0.26064246174E+02 0.39908508311E+02 0.65816832039E+02 0.10638147305E+03 0.15943614663E+03
 0.22000800289E+03 0.28197723583E+03 0.33765337805E+03 0.37732982644E+03 0.30388614908E+03
 0.29307149534E+03 0.26308084558E+03 0.22000800289E+03 0.17108724627E+03 0.12309236432E+03
 0.81875416546E+02 0.51585965430E+02 0.33057395138E+02 0.22922185235E+02 0.16582999216E+02
 0.12739782317E+02 0.10537831561E+02 0.92960268679E+01 0.85532603474E+01 0.80693990250E+01
 0.77885030729E+01 0.76849352317E+01 0.76699553136E+01 0.76849352317E+01 0.77885030729E+01
 0.80693990250E+01 0.85532603474E+01 0.92960268679E+01 0.10537831561E+02 0.12739782317E+02
 0.16582999216E+02 0.22922185235E+02 0.33057395138E+02 0.51585965430E+02 0.81875416546E+02
 0.12309236432E+03 0.17108724627E+03 0.22000800289E+03 0.26308084558E+03 0.29307149534E+03
 0.22132766153E+03 0.21344727779E+03 0.19140923313E+03 0.15943614663E+03 0.12309236432E+03
 0.88080925840E+02 0.59194212639E+02 0.39079400724E+02 0.27131191609E+02 0.19836126458E+02
 0.15118720204E+02 0.12306867164E+02 0.10703452142E+02 0.98071917101E+01 0.92960268679E+01
 0.90001677518E+01 0.88619750889E+01 0.88366366045E+01 0.88436736020E+01 0.88366366045E+01
 0.88619750889E+01 0.90001677518E+01 0.92960268679E+01 0.98071917101E+01 0.10703452142E+02
 0.12306867164E+02 0.15118720204E+02 0.19836126458E+02 0.27131191609E+02 0.39079400724E+02
 0.59194212639E+02 0.88080925840E+02 0.12309236432E+03 0.15943614663E+03 0.19140923313E+03
 0.21344727779E+03 0.14920935789E+03 0.14372503173E+03 0.12841368471E+03 0.10638147305E+03
 0.81875416546E+02 0.59194212639E+02 0.41497129531E+02 0.29743199813E+02 0.22296125635E+02
 0.17197206870E+02 0.14008704676E+02 0.12168458818E+02 0.11177336017E+02 0.10703452142E+02
 0.10537831561E+02 0.10552845928E+02 0.10666892977E+02 0.10797550785E+02 0.10855229009E+02
 0.10797550785E+02 0.10666892977E+02 0.10552845928E+02 0.10537831561E+02 0.10703452142E+02
 0.11177336017E+02 0.12168458818E+02 0.14008704676E+02 0.17197206870E+02 0.22296125635E+02
 0.29743199813E+02 0.41497129531E+02 0.59194212639E+02 0.81875416546E+02 0.10638147305E+03
 0.12841368471E+03 0.14372503173E+03 0.91998304606E+02 0.88573981600E+02 0.79114398571E+02
 0.65816832039E+02 0.51585965430E+02 0.39079400724E+02 0.29743199813E+02 0.23219927630E+02
 0.18432045326E+02 0.15256881178E+02 0.13397455486E+02 0.12467491047E+02 0.12168458818E+02
 0.12306867164E+02 0.12739782317E+02 0.13330335188E+02 0.13929118729E+02 0.14378154636E+02
 0.14545471307E+02 0.14378154636E+02 0.13929118729E+02 0.13330335188E+02 0.12739782317E+02
 0.12306867164E+02 0.12168458818E+02 0.12467491047E+02 0.13397455486E+02 0.15256881178E+02
 0.18432045326E+02 0.23219927630E+02 0.29743199813E+02 0.39079400724E+02 0.51585965430E+02
 0.65816832039E+02 0.79114398571E+02 0.88573981600E+02 0.53196429935E+02 0.51409554615E+02
 0.46547432870E+02 0.39908508311E+02 0.33057395138E+02 0.27131191609E+02 0.22296125635E+02
 0.18432045326E+02 0.15719764875E+02 0.14100971269E+02 0.13387081438E+02 0.13397455486E+02
 0.14008704676E+02 0.15118720204E+02 0.16582999216E+02 0.18179512982E+02 0.19625300891E+02
 0.20635539910E+02 0.20998389861E+02 0.20635539910E+02 0.19625300891E+02 0.18179512982E+02
 0.16582999216E+02 0.15118720204E+02 0.14008704676E+02 0.13397455486E+02 0.13387081438E+02
 0.14100971269E+02 0.15719764875E+02 0.18432045326E+02 0.22296125635E+02 0.27131191609E+02
 0.33057395138E+02 0.39908508311E+02 0.46547432870E+02 0.51409554615E+02 0.31760785688E+02
 0.30996251453E+02 0.28922008849E+02 0.26064246174E+02 0.22922185235E+02 0.19836126458E+02
 0.17197206870E+02 0.15256881178E+02 0.14100971269E+02 0.13720870327E+02 0.14100971269E+02
 0.15256881178E+02 0.17197206870E+02 0.19836126458E+02 0.22922185235E+02 0.26064246174E+02
 0.28922008849E+02 0.30996251453E+02 0.31760785688E+02 0.30996251453E+02 0.28922008849E+02
 0.26064246174E+02 0.22922185235E+02 0.19836126458E+02 0.17197206870E+02 0.15256881178E+02
 0.14100971269E+02 0.13720870327E+02 0.14100971269E+02 0.15256881178E+02 0.17197206870E+02
 0.19836126458E+02 0.22922185235E+02 0.26064246174E+02 0.28922008849E+02 0.30996251453E+02
 0.20998389861E+02 0.20635539910E+02 0.19625300891E+02 0.18179512982E+02 0.16582999216E+02
 0.15118720204E+02 0.14008704676E+02 0.13397455486E+02 0.13387081438E+02 0.14100971269E+02
 0.15719764875E+02 0.18432045326E+02 0.22296125635E+02 0.27131191609E+02 0.33057395138E+02
 0.39908508311E+02 0.46547432870E+02 0.51409554615E+02 0.53196429935E+02 0.51409554615E+02
 0.46547432870E+02 0.39908508311E+02 0.33057395138E+02 0.27131191609E+02 0.22296125635E+02
 0.18432045326E+02 0.15719764875E+02 0.14100971269E+02 0.13387081438E+02 0.13397455486E+02
 0.14008704676E+02 0.15118720204E+02 0.16582999216E+02 0.18179512982E+02 0.19625300891E+02
 0.20635539910E+02 0.14545471307E+02 0.14378154636E+02 0.13929118729E+02 0.13330335188E+02
 0.12739782317E+02 0.12306867164E+02 0.12168458818E+02 0.12467491047E+02 0.13397455486E+02
 0.15256881178E+02 0.18432045326E+02 0.23219927630E+02 0.29743199813E+02 0.39079400724E+02
 0.51585965430E+02 0.65816832039E+02 0.79114398571E+02 0.88573981600E+02 0.91998304606E+02
 0.88573981600E+02 0.79114398571E+02 0.65816832039E+02 0.51585965430E+02 0.39079400724E+02
 0.29743199813E+02 0.23219927630E+02 0.18432045326E+02 0.15256881178E+02 0.13397455486E+02
 0.12467491047E+02 0.12168458818E+02 0.12306867164E+02 0.12739782317E+02 0.13330335188E+02
 0.13929118729E+02 0.14378154636E+02 0.10855229009E+02 0.10797550785E+02 0.10666892977E+02
 0.10552845928E+02 0.10537831561E+02 0.10703452142E+02 0.11177336017E+02 0.12168458818E+02
 0.14008704676E+02 0.17197206870E+02 0.22296125635E+02 0.29743199813E+02 0.41497129531E+02
 0.59194212639E+02 0.81875416546E+02 0.10638147305E+03 0.12841368471E+03 0.14372503173E+03
 0.14920935789E+03 0.14372503173E+03 0.12841368471E+03 0.10638147305E+03 0.81875416546E+02
 0.59194212639E+02 0.41497129531E+02 0.29743199813E+02 0.22296125635E+02 0.17197206870E+02
 0.14008704676E+02 0.12168458818E+02 0.11177336017E+02 0.10703452142E+02 0.10537831561E+02
 0.10552845928E+02 0.10666892977E+02 0.10797550785E+02 0.88436736020E+01 0.88366366045E+01
 0.88619750889E+01 0.90001677518E+01 0.92960268679E+01 0.98071917101E+01 0.10703452142E+02
 0.12306867164E+02 0.15118720204E+02 0.19836126458E+02 0.27131191609E+02 0.39079400724E+02
 0.59194212639E+02 0.88080925840E+02 0.12309236432E+03 0.15943614663E+03 0.19140923313E+03
 0.21344727779E+03 0.22132766153E+03 0.21344727779E+03 0.19140923313E+03 0.15943614663E+03
 0.12309236432E+03 0.88080925840E+02 0.59194212639E+02 0.39079400724E+02 0.27131191609E+02
 0.19836126458E+02 0.15118720204E+02 0.12306867164E+02 0.10703452142E+02 0.98071917101E+01
 0.92960268679E+01 0.90001677518E+01 0.88619750889E+01 0.88366366045E+01 0.76699553136E+01
 0.76849352317E+01 0.77885030729E+01 0.80693990250E+01 0.85532603474E+01 0.92960268679E+01
 0.10537831561E+02 0.12739782317E+02 0.16582999216E+02 0.22922185235E+02 0.33057395138E+02
 0.51585965430E+02 0.81875416546E+02 0.12309236432E+03 0.17108724627E+03 0.22000800289E+03
 0.26308084558E+03 0.29307149534E+03 0.30388614908E+03 0.29307149534E+03 0.26308084558E+03
 0.22000800289E+03 0.17108724627E+03 0.12309236432E+03 0.81875416546E+02 0.51585965430E+02
 0.33057395138E+02 0.22922185235E+02 0.16582999216E+02 0.12739782317E+02 0.10537831561E+02
 0.92960268679E+01 0.85532603474E+01 0.80693990250E+01 0.77885030729E+01 0.76849352317E+01
 0.68755848372E+01 0.69030206078E+01 0.70581393310E+01 0.74427007207E+01 0.80693990250E+01
 0.90001677518E+01 0.10552845928E+02 0.13330335188E+02 0.18179512982E+02 0.26064246174E+02
 0.39908508311E+02 0.65816832039E+02 0.10638147305E+03 0.15943614663E+03 0.22000800289E+03
 0.28197723583E+03 0.33765337805E+03 0.37732982644E+03 0.39184590482E+03 0.37732982644E+03
 0.33765337805E+03 0.28197723583E+03 0.22000800289E+03 0.15943614663E+03 0.10638147305E+03
 0.65816832039E+02 0.39908508311E+02 0.26064246174E+02 0.18179512982E+02 0.13330335188E+02
 0.10552845928E+02 0.90001677518E+01 0.80693990250E+01 0.74427007207E+01 0.70581393310E+01
 0.69030206078E+01 0.63762774296E+01 0.64109314053E+01 0.66002190634E+01 0.70581393310E+01
 0.77885030729E+01 0.88619750889E+01 0.10666892977E+02 0.13929118729E+02 0.19625300891E+02
 0.28922008849E+02 0.46547432870E+02 0.79114398571E+02 0.12841368471E+03 0.19140923313E+03
 0.26308084558E+03 0.33765337805E+03 0.40651197395E+03 0.45680952104E+03 0.47546679299E+03
 0.45680952104E+03 0.40651197395E+03 0.33765337805E+03 0.26308084558E+03 0.19140923313E+03
 0.12841368471E+03 0.79114398571E+02 0.46547432870E+02 0.28922008849E+02 0.19625300891E+02
 0.13929118729E+02 0.10666892977E+02 0.88619750889E+01 0.77885030729E+01 0.70581393310E+01
 0.66002190634E+01 0.64109314053E+01 0.61724164338E+01 0.62085249499E+01 0.64109314053E+01
 0.69030206078E+01 0.76849352317E+01 0.88366366045E+01 0.10797550785E+02 0.14378154636E+02
 0.20635539910E+02 0.30996251453E+02 0.51409554615E+02 0.88573981600E+02 0.14372503173E+03
 0.21344727779E+03 0.29307149534E+03 0.37732982644E+03 0.45680952104E+03 0.51586346875E+03
 0.53796437601E+03 0.51586346875E+03 0.45680952104E+03 0.37732982644E+03 0.29307149534E+03
 0.21344727779E+03 0.14372503173E+03 0.88573981600E+02 0.51409554615E+02 0.30996251453E+02
 0.20635539910E+02 0.14378154636E+02 0.10797550785E+02 0.88366366045E+01 0.76849352317E+01
 0.69030206078E+01 0.64109314053E+01 0.62085249499E+01 0.61368934502E+01 0.61724164338E+01
 0.63762774296E+01 0.68755848372E+01 0.76699553136E+01 0.88436736020E+01 0.10855229009E+02
 0.14545471307E+02 0.20998389861E+02 0.31760785688E+02 0.53196429935E+02 0.91998304606E+02
 0.14920935789E+03 0.22132766153E+03 0.30388614908E+03 0.39184590482E+03 0.47546679299E+03
 0.53796437601E+03 0.56142353074E+03 0.53796437601E+03 0.47546679299E+03 0.39184590482E+03
 0.30388614908E+03 0.22132766153E+03 0.14920935789E+03 0.91998304606E+02 0.53196429935E+02
 0.31760785688E+02 0.20998389861E+02 0.14545471307E+02 0.10855229009E+02 0.88436736020E+01
 0.76699553136E+01 0.68755848372E+01 0.63762774296E+01 0.61724164338E+01 0.61724164338E+01
 0.62085249499E+01 0.64109314053E+01 0.69030206078E+01 0.76849352317E+01 0.88366366045E+01
 0.10797550785E+02 0.14378154636E+02 0.20635539910E+02 0.30996251453E+02 0.51409554615E+02
 0.88573981600E+02 0.14372503173E+03 0.21344727779E+03 0.29307149534E+03 0.37732982644E+03
 0.45680952104E+03 0.51586346875E+03 0.53796437601E+03 0.51586346875E+03 0.45680952104E+03
 0.37732982644E+03 0.29307149534E+03 0.21344727779E+03 0.14372503173E+03 0.88573981600E+02
 0.51409554615E+02 0.30996251453E+02 0.20635539910E+02 0.14378154636E+02 0.10797550785E+02
 0.88366366045E+01 0.76849352317E+01 0.69030206078E+01 0.64109314053E+01 0.62085249499E+01
 0.63762774296E+01 0.64109314053E+01 0.66002190634E+01 0.70581393310E+01 0.77885030729E+01
 0.88619750889E+01 0.10666892977E+02 0.13929118729E+02 0.19625300891E+02 0.28922008849E+02
 0.46547432870E+02 0.79114398571E+02 0.12841368471E+03 0.19140923313E+03 0.26308084558E+03
 0.33765337805E+03 0.40651197395E+03 0.45680952104E+03 0.47546679299E+03 0.45680952104E+03
 0.40651197395E+03 0.33765337805E+03 0.26308084558E+03 0.19140923313E+03 0.12841368471E+03
 0.79114398571E+02 0.46547432870E+02 0.28922008849E+02 0.19625300891E+02 0.13929118729E+02
 0.10666892977E+02 0.88619750889E+01 0.77885030729E+01 0.70581393310E+01 0.66002190634E+01
 0.64109314053E+01 0.68755848372E+01 0.69030206078E+01 0.70581393310E+01 0.74427007207E+01
 0.80693990250E+01 0.90001677518E+01 0.10552845928E+02 0.13330335188E+02 0.18179512982E+02
 0.26064246174E+02 0.39908508311E+02 0.65816832039E+02 0.10638147305E+03 0.15943614663E+03
 0.22000800289E+03 0.28197723583E+03 0.33765337805E+03 0.37732982644E+03 0.39184590482E+03
 0.37732982644E+03 0.33765337805E+03 0.28197723583E+03 0.22000800289E+03 0.15943614663E+03
 0.10638147305E+03 0.65816832039E+02 0.39908508311E+02 0.26064246174E+02 0.18179512982E+02
 0.13330335188E+02 0.10552845928E+02 0.90001677518E+01 0.80693990250E+01 0.74427007207E+01
 0.70581393310E+01 0.69030206078E+01 0.76699553136E+01 0.76849352317E+01 0.77885030729E+01
 0.80693990250E+01 0.85532603474E+01 0.92960268679E+01 0.10537831561E+02 0.12739782317E+02
 0.16582999216E+02 0.22922185235E+02 0.33057395138E+02 0.51585965430E+02 0.81875416546E+02
 0.12309236432E+03 0.17108724627E+03 0.22000800289E+03 0.26308084558E+03 0.29307149534E+03
 0.30388614908E+03 0.29307149534E+03 0.26308084558E+03 0.22000800289E+03 0.17108724627E+03
 0.12309236432E+03 0.81875416546E+02 0.51585965430E+02 0.33057395138E+02 0.22922185235E+02
 0.16582999216E+02 0.12739782317E+02 0.10537831561E+02 0.92960268679E+01 0.85532603474E+01
 0.80693990250E+01 0.77885030729E+01 0.76849352317E+01 0.88436736020E+01 0.88366366045E+01
 0.88619750889E+01 0.90001677518E+01 0.92960268679E+01 0.98071917101E+01 0.10703452142E+02
 0.12306867164E+02 0.15118720204E+02 0.19836126458E+02 0.27131191609E+02 0.39079400724E+02
 0.59194212639E+02 0.88080925840E+02 0.12309236432E+03 0.15943614663E+03 0.19140923313E+03
 0.21344727779E+03 0.22132766153E+03 0.21344727779E+03 0.19140923313E+03 0.15943614663E+03
 0.12309236432E+03 0.88080925840E+02 0.59194212639E+02 0.39079400724E+02 0.27131191609E+02
 0.19836126458E+02 0.15118720204E+02 0.12306867164E+02 0.10703452142E+02 0.98071917101E+01
 0.92960268679E+01 0.90001677518E+01 0.88619750889E+01 0.88366366045E+01 0.10855229009E+02
 0.10797550785E+02 0.10666892977E+02 0.10552845928E+02 0.10537831561E+02 0.10703452142E+02
 0.11177336017E+02 0.12168458818E+02 0.14008704676E+02 0.17197206870E+02 0.22296125635E+02
 0.29743199813E+02 0.41497129531E+02 0.59194212639E+02 0.81875416546E+02 0.10638147305E+03
 0.12841368471E+03 0.14372503173E+03 0.14920935789E+03 0.14372503173E+03 0.12841368471E+03
 0.10638147305E+03 0.81875416546E+02 0.59194212639E+02 0.41497129531E+02 0.29743199813E+02
 0.22296125635E+02 0.17197206870E+02 0.14008704676E+02 0.12168458818E+02 0.11177336017E+02
 0.10703452142E+02 0.10537831561E+02 0.10552845928E+02 0.10666892977E+02 0.10797550785E+02
 0.14545471307E+02 0.14378154636E+02 0.13929118729E+02 0.13330335188E+02 0.12739782317E+02
 0.12306867164E+02 0.12168458818E+02 0.12467491047E+02 0.13397455486E+02 0.15256881178E+02
 0.18432045326E+02 0.23219927630E+02 0.29743199813E+02 0.39079400724E+02 0.51585965430E+02
 0.65816832039E+02 0.79114398571E+02 0.88573981600E+02 0.91998304606E+02 0.88573981600E+02
 0.79114398571E+02 0.65816832039E+02 0.51585965430E+02 0.39079400724E+02 0.29743199813E+02
 0.23219927630E+02 0.18432045326E+02 0.15256881178E+02 0.13397455486E+02 0.12467491047E+02
 0.12168458818E+02 0.12306867164E+02 0.12739782317E+02 0.13330335188E+02 0.13929118729E+02
 0.14378154636E+02 0.20998389861E+02 0.20635539910E+02 0.19625300891E+02 0.18179512982E+02
 0.16582999216E+02 0.15118720204E+02 0.14008704676E+02 0.13397455486E+02 0.13387081438E+02
 0.14100971269E+02 0.15719764875E+02 0.18432045326E+02 0.22296125635E+02 0.27131191609E+02
 0.33057395138E+02 0.39908508311E+02 0.46547432870E+02 0.51409554615E+02 0.53196429935E+02
 0.51409554615E+02 0.46547432870E+02 0.39908508311E+02 0.33057395138E+02 0.27131191609E+02
 0.22296125635E+02 0.18432045326E+02 0.15719764875E+02 0.14100971269E+02 0.13387081438E+02
 0.13397455486E+02 0.14008704676E+02 0.15118720204E+02 0.16582999216E+02 0.18179512982E+02
 0.19625300891E+02 0.20635539910E+02 0.31760785688E+02 0.30996251453E+02 0.28922008849E+02
 0.26064246174E+02 0.22922185235E+02 0.19836126458E+02 0.17197206870E+02 0.15256881178E+02
 0.14100971269E+02 0.13720870327E+02 0.14100971269E+02 0.15256881178E+02 0.17197206870E+02
 0.19836126458E+02 0.22922185235E+02 0.26064246174E+02 0.28922008849E+02 0.30996251453E+02
 0.31760785688E+02 0.30996251453E+02 0.28922008849E+02 0.26064246174E+02 0.22922185235E+02
 0.19836126458E+02 0.17197206870E+02 0.15256881178E+02 0.14100971269E+02 0.13720870327E+02
 0.14100971269E+02 0.15256881178E+02 0.17197206870E+02 0.19836126458E+02 0.22922185235E+02
 0.26064246174E+02 0.28922008849E+02 0.30996251453E+02 0.53196429935E+02 0.51409554615E+02
 0.46547432870E+02 0.39908508311E+02 0.33057395138E+02 0.27131191609E+02 0.22296125635E+02
 0.18432045326E+02 0.15719764875E+02 0.14100971269E+02 0.13387081438E+02 0.13397455486E+02
 0.14008704676E+02 0.15118720204E+02 0.16582999216E+02 0.18179512982E+02 0.19625300891E+02
 0.20635539910E+02 0.20998389861E+02 0.20635539910E+02 0.19625300891E+02 0.18179512982E+02
 0.16582999216E+02 0.15118720204E+02 0.14008704676E+02 0.13397455486E+02 0.13387081438E+02
 0.14100971269E+02 0.15719764875E+02 0.18432045326E+02 0.22296125635E+02 0.27131191609E+02
 0.33057395138E+02 0.39908508311E+02 0.46547432870E+02 0.51409554615E+02 0.91998304606E+02
 0.88573981600E+02 0.79114398571E+02 0.65816832039E+02 0.51585965430E+02 0.39079400724E+02
 0.29743199813E+02 0.23219927630E+02 0.18432045326E+02 0.15256881178E+02 0.13397455486E+02
 0.12467491047E+02 0.12168458818E+02 0.12306867164E+02 0.12739782317E+02 0.13330335188E+02
 0.13929118729E+02 0.14378154636E+02 0.14545471307E+02 0.14378154636E+02 0.13929118729E+02
 0.13330335188E+02 0.12739782317E+02 0.12306867164E+02 0.12168458818E+02 0.12467491047E+02
 0.13397455486E+02 0.15256881178E+02 0.18432045326E+02 0.23219927630E+02 0.29743199813E+02
 0.39079400724E+02 0.51585965430E+02 0.65816832039E+02 0.79114398571E+02 0.88573981600E+02
 0.14920935789E+03 0.14372503173E+03 0.12841368471E+03 0.10638147305E+03 0.81875416546E+02
 0.59194212639E+02 0.41497129531E+02 0.29743199813E+02 0.22296125635E+02 0.17197206870E+02
 0.14008704676E+02 0.12168458818E+02 0.11177336017E+02 0.10703452142E+02 0.10537831561E+02
 0.10552845928E+02 0.10666892977E+02 0.10797550785E+02 0.10855229009E+02 0.10797550785E+02
 0.10666892977E+02 0.10552845928E+02 0.10537831561E+02 0.10703452142E+02 0.11177336017E+02
 0.12168458818E+02 0.14008704676E+02 0.17197206870E+02 0.22296125635E+02 0.29743199813E+02
 0.41497129531E+02 0.59194212639E+02 0.81875416546E+02 0.10638147305E+03 0.12841368471E+03
 0.14372503173E+03 0.22132766153E+03 0.21344727779E+03 0.19140923313E+03 0.15943614663E+03
 0.12309236432E+03 0.88080925840E+02 0.59194212639E+02 0.39079400724E+02 0.27131191609E+02
 0.19836126458E+02 0.15118720204E+02 0.12306867164E+02 0.10703452142E+02 0.98071917101E+01
 0.92960268679E+01 0.90001677518E+01 0.88619750889E+01 0.88366366045E+01 0.88436736020E+01
 0.88366366045E+01 0.88619750889E+01 0.90001677518E+01 0.92960268679E+01 0.98071917101E+01
 0.10703452142E+02 0.12306867164E+02 0.15118720204E+02 0.19836126458E+02 0.27131191609E+02
 0.39079400724E+02 0.59194212639E+02 0.88080925840E+02 0.12309236432E+03 0.15943614663E+03
 0.19140923313E+03 0.21344727779E+03 0.30388614908E+03 0.29307149534E+03 0.26308084558E+03
 0.22000800289E+03 0.17108724627E+03 0.12309236432E+03 0.81875416546E+02 0.51585965430E+02
 0.33057395138E+02 0.22922185235E+02 0.16582999216E+02 0.12739782317E+02 0.10537831561E+02
 0.92960268679E+01 0.85532603474E+01 0.80693990250E+01 0.77885030729E+01 0.76849352317E+01
 0.76699553136E+01 0.76849352317E+01 0.77885030729E+01 0.80693990250E+01 0.85532603474E+01
 0.92960268679E+01 0.10537831561E+02 0.12739782317E+02 0.16582999216E+02 0.22922185235E+02
 0.33057395138E+02 0.51585965430E+02 0.81875416546E+02 0.12309236432E+03 0.17108724627E+03
 0.22000800289E+03 0.26308084558E+03 0.29307149534E+03 0.39184590482E+03 0.37732982644E+03
 0.33765337805E+03 0.28197723583E+03 0.22000800289E+03 0.15943614663E+03 0.10638147305E+03
 0.65816832039E+02 0.39908508311E+02 0.26064246174E+02 0.18179512982E+02 0.13330335188E+02
 0.10552845928E+02 0.90001677518E+01 0.80693990250E+01 0.74427007207E+01 0.70581393310E+01
 0.69030206078E+01 0.68755848372E+01 0.69030206078E+01 0.70581393310E+01 0.74427007207E+01
 0.80693990250E+01 0.90001677518E+01 0.10552845928E+02 0.13330335188E+02 0.18179512982E+02
 0.26064246174E+02 0.39908508311E+02 0.65816832039E+02 0.10638147305E+03 0.15943614663E+03
 0.22000800289E+03 0.28197723583E+03 0.33765337805E+03 0.37732982644E+03 0.47546679299E+03
 0.45680952104E+03 0.40651197395E+03 0.33765337805E+03 0.26308084558E+03 0.19140923313E+03
 0.12841368471E+03 0.79114398571E+02 0.46547432870E+02 0.28922008849E+02 0.19625300891E+02
 0.13929118729E+02 0.10666892977E+02 0.88619750889E+01 0.77885030729E+01 0.70581393310E+01
 0.66002190634E+01 0.64109314053E+01 0.63762774296E+01 0.64109314053E+01 0.66002190634E+01
 0.70581393310E+01 0.77885030729E+01 0.88619750889E+01 0.10666892977E+02 0.13929118729E+02
 0.19625300891E+02 0.28922008849E+02 0.46547432870E+02 0.79114398571E+02 0.12841368471E+03
 0.19140923313E+03 0.26308084558E+03 0.33765337805E+03 0.40651197395E+03 0.45680952104E+03
 0.53796437601E+03 0.51586346875E+03 0.45680952104E+03 0.37732982644E+03 0.29307149534E+03
 0.21344727779E+03 0.14372503173E+03 0.88573981600E+02 0.51409554615E+02 0.30996251453E+02
 0.20635539910E+02 0.14378154636E+02 0.10797550785E+02 0.88366366045E+01 0.76849352317E+01
 0.69030206078E+01 0.64109314053E+01 0.62085249499E+01 0.61724164338E+01 0.62085249499E+01
 0.64109314053E+01 0.69030206078E+01 0.76849352317E+01 0.88366366045E+01 0.10797550785E+02
 0.14378154636E+02 0.20635539910E+02 0.30996251453E+02 0.51409554615E+02 0.88573981600E+02
 0.14372503173E+03 0.21344727779E+03 0.29307149534E+03 0.37732982644E+03 0.45680952104E+03
 0.51586346875E+03 0.53796437601E+03 0.51586346875E+03 0.45680952104E+03 0.37732982644E+03
 0.29307149534E+03 0.21344727779E+03 0.14372503173E+03 0.88573981600E+02 0.51409554615E+02
 0.30996251453E+02 0.20635539910E+02 0.14378154636E+02 0.10797550785E+02 0.88366366045E+01
 0.76849352317E+01 0.69030206078E+01 0.64109314053E+01 0.62085249499E+01 0.61724164338E+01
 0.62085249499E+01 0.64109314053E+01 0.69030206078E+01 0.76849352317E+01 0.88366366045E+01
 0.10797550785E+02 0.14378154636E+02 0.20635539910E+02 0.30996251453E+02 0.51409554615E+02
 0.88573981600E+02 0.14372503173E+03 0.21344727779E+03 0.29307149534E+03 0.37732982644E+03
 0.45680952104E+03 0.51586346875E+03 0.51586346875E+03 0.49501084496E+03 0.43912629799E+03
 0.36347423714E+03 0.28267139213E+03 0.20583532951E+03 0.13843129048E+03 0.85285573140E+02
 0.49705653775E+02 0.30267054618E+02 0.20282586686E+02 0.14215522293E+02 0.10741327565E+02
 0.88298080691E+01 0.76999367653E+01 0.69306139129E+01 0.64459191856E+01 0.62451384880E+01
 0.62085249499E+01 0.62451384880E+01 0.64459191856E+01 0.69306139129E+01 0.76999367653E+01
 0.88298080691E+01 0.10741327565E+02 0.14215522293E+02 0.20282586686E+02 0.30267054618E+02
 0.49705653775E+02 0.85285573140E+02 0.13843129048E+03 0.20583532951E+03 0.28267139213E+03
 0.36347423714E+03 0.43912629799E+03 0.49501084496E+03 0.45680952104E+03 0.43912629799E+03
 0.39131604759E+03 0.32550891660E+03 0.25378588693E+03 0.18453988435E+03 0.12365904184E+03
 0.76209342645E+02 0.45072550398E+02 0.28285441092E+02 0.19300279301E+02 0.13778946073E+02
 0.10613588552E+02 0.88541045484E+01 0.78014645857E+01 0.70836406186E+01 0.66332832609E+01
 0.64459191856E+01 0.64109314053E+01 0.64459191856E+01 0.66332832609E+01 0.70836406186E+01
 0.78014645857E+01 0.88541045484E+01 0.10613588552E+02 0.13778946073E+02 0.19300279301E+02
 0.28285441092E+02 0.45072550398E+02 0.76209342645E+02 0.12365904184E+03 0.18453988435E+03
 0.25378588693E+03 0.32550891660E+03 0.39131604759E+03 0.43912629799E+03 0.37732982644E+03
 0.36347423714E+03 0.32550891660E+03 0.27200810383E+03 0.21220663417E+03 0.15363889171E+03
 0.10242877504E+03 0.63473603256E+02 0.38753089405E+02 0.25541765669E+02 0.17895604402E+02
 0.13196817958E+02 0.10501493404E+02 0.89878242287E+01 0.80757661352E+01 0.74608891906E+01
 0.70836406186E+01 0.69306139129E+01 0.69030206078E+01 0.69306139129E+01 0.70836406186E+01
 0.74608891906E+01 0.80757661352E+01 0.89878242287E+01 0.10501493404E+02 0.13196817958E+02
 0.17895604402E+02 0.25541765669E+02 0.38753089405E+02 0.63473603256E+02 0.10242877504E+03
 0.15363889171E+03 0.21220663417E+03 0.27200810383E+03 0.32550891660E+03 0.36347423714E+03
 0.29307149534E+03 0.28267139213E+03 0.25378588693E+03 0.21220663417E+03 0.16491186004E+03
 0.11854664029E+03 0.78870810089E+02 0.49880512921E+02 0.32233059254E+02 0.22494040662E+02
 0.16346455502E+02 0.12623405360E+02 0.10486287082E+02 0.92758987179E+01 0.85490880769E+01
 0.80757661352E+01 0.78014645857E+01 0.76999367653E+01 0.76849352317E+01 0.76999367653E+01
 0.78014645857E+01 0.80757661352E+01 0.85490880769E+01 0.92758987179E+01 0.10486287082E+02
 0.12623405360E+02 0.16346455502E+02 0.22494040662E+02 0.32233059254E+02 0.49880512921E+02
 0.78870810089E+02 0.11854664029E+03 0.16491186004E+03 0.21220663417E+03 0.25378588693E+03
 0.28267139213E+03 0.21344727779E+03 0.20583532951E+03 0.18453988435E+03 0.15363889171E+03
 0.11854664029E+03 0.84833953211E+02 0.57147493971E+02 0.37968538176E+02 0.26567832369E+02
 0.19497719169E+02 0.14928033836E+02 0.12204459622E+02 0.10648110981E+02 0.97750051473E+01
 0.92758987179E+01 0.89878242287E+01 0.88541045484E+01 0.88298080691E+01 0.88366366045E+01
 0.88298080691E+01 0.88541045484E+01 0.89878242287E+01 0.92758987179E+01 0.97750051473E+01
 0.10648110981E+02 0.12204459622E+02 0.14928033836E+02 0.19497719169E+02 0.26567832369E+02
 0.37968538176E+02 0.57147493971E+02 0.84833953211E+02 0.11854664029E+03 0.15363889171E+03
 0.18453988435E+03 0.20583532951E+03 0.14372503173E+03 0.13843129048E+03 0.12365904184E+03
 0.10242877504E+03 0.78870810089E+02 0.57147493971E+02 0.40271006329E+02 0.29073629687E+02
 0.21883004799E+02 0.16941484078E+02 0.13855073886E+02 0.12072368646E+02 0.11109951314E+02
 0.10648110981E+02 0.10486287082E+02 0.10501493404E+02 0.10613588552E+02 0.10741327565E+02
 0.10797550785E+02 0.10741327565E+02 0.10613588552E+02 0.10501493404E+02 0.10486287082E+02
 0.10648110981E+02 0.11109951314E+02 0.12072368646E+02 0.13855073886E+02 0.16941484078E+02
 0.21883004799E+02 0.29073629687E+02 0.40271006329E+02 0.57147493971E+02 0.78870810089E+02
 0.10242877504E+03 0.12365904184E+03 0.13843129048E+03 0.88573981600E+02 0.85285573140E+02
 0.76209342645E+02 0.63473603256E+02 0.49880512921E+02 0.37968538176E+02 0.29073629687E+02
 0.22779333212E+02 0.18138110745E+02 0.15065648745E+02 0.13266135705E+02 0.12364322500E+02
 0.12072368646E+02 0.12204459622E+02 0.12623405360E+02 0.13196817958E+02 0.13778946073E+02
 0.14215522293E+02 0.14378154636E+02 0.14215522293E+02 0.13778946073E+02 0.13196817958E+02
 0.12623405360E+02 0.12204459622E+02 0.12072368646E+02 0.12364322500E+02 0.13266135705E+02
 0.15065648745E+02 0.18138110745E+02 0.22779333212E+02 0.29073629687E+02 0.37968538176E+02
 0.49880512921E+02 0.63473603256E+02 0.76209342645E+02 0.85285573140E+02 0.51409554615E+02
 0.49705653775E+02 0.45072550398E+02 0.38753089405E+02 0.32233059254E+02 0.26567832369E+02
 0.21883004799E+02 0.18138110745E+02 0.15514717587E+02 0.13949763522E+02 0.13258376611E+02
 0.13266135705E+02 0.13855073886E+02 0.14928033836E+02 0.16346455502E+02 0.17895604402E+02
 0.19300279301E+02 0.20282586686E+02 0.20635539910E+02 0.20282586686E+02 0.19300279301E+02
 0.17895604402E+02 0.16346455502E+02 0.14928033836E+02 0.13855073886E+02 0.13266135705E+02
 0.13258376611E+02 0.13949763522E+02 0.15514717587E+02 0.18138110745E+02 0.21883004799E+02
 0.26567832369E+02 0.32233059254E+02 0.38753089405E+02 0.45072550398E+02 0.49705653775E+02
 0.30996251453E+02 0.30267054618E+02 0.28285441092E+02 0.25541765669E+02 0.22494040662E+02