   4   4   0   0
  0.1805291E+02  0.4164240E-09  0.4164240E-09  0.4164240E-09  0.5000000E-15
  1.000000000000000E-004
  CAR 
 Ag                                      
     37.76184423     -1.48134012  301      7.72908412      1.00000000
     -1.481  0.0000E+00  0.0000E+00
     -1.351  0.0000E+00  0.0000E+00
     -1.220  0.0000E+00  0.0000E+00
     -1.089  0.0000E+00  0.0000E+00
     -0.958  0.0000E+00  0.0000E+00
     -0.827  0.0000E+00  0.0000E+00
     -0.696  0.0000E+00  0.0000E+00
     -0.566  0.0000E+00  0.0000E+00
     -0.435  0.0000E+00  0.0000E+00
     -0.304  0.0000E+00  0.0000E+00
     -0.173  0.0000E+00  0.0000E+00
     -0.042  0.0000E+00  0.0000E+00
      0.088  0.6237E-11  0.8159E-12
      0.219  0.8247E-04  0.1079E-04
      0.350  0.2270E-01  0.2981E-02
      0.481  0.1474E+00  0.2227E-01
      0.612  0.1536E+00  0.4236E-01
      0.742  0.3594E+00  0.8937E-01
      0.873  0.1934E+00  0.1147E+00
      1.004  0.4607E+00  0.1749E+00
      1.135  0.3575E+00  0.2217E+00
      1.266  0.5342E+00  0.2916E+00
      1.396  0.4982E+00  0.3568E+00
      1.527  0.8160E+00  0.4635E+00
      1.658  0.1565E+01  0.6682E+00
      1.789  0.5903E+01  0.1440E+01
      1.920  0.9185E+01  0.2642E+01
      2.051  0.1262E+02  0.4292E+01
      2.181  0.1618E+02  0.6409E+01
      2.312  0.1340E+02  0.8163E+01
      2.443  0.1048E+02  0.9534E+01
      2.574  0.9172E+01  0.1073E+02
      2.705  0.1033E+02  0.1208E+02
      2.835  0.1212E+02  0.1367E+02
      2.966  0.1153E+02  0.1518E+02
      3.097  0.1150E+02  0.1668E+02
      3.228  0.1565E+02  0.1873E+02
      3.359  0.1908E+02  0.2123E+02
      3.489  0.1460E+02  0.2314E+02
      3.620  0.1098E+02  0.2457E+02
      3.751  0.1134E+02  0.2606E+02
      3.882  0.1358E+02  0.2783E+02
      4.013  0.1393E+02  0.2965E+02
      4.144  0.1419E+02  0.3151E+02
      4.274  0.1119E+02  0.3297E+02
      4.405  0.1173E+02  0.3451E+02
      4.536  0.1213E+02  0.3609E+02
      4.667  0.1589E+02  0.3817E+02
      4.798  0.1793E+02  0.4052E+02
      4.928  0.6255E+01  0.4134E+02
      5.059  0.5570E+00  0.4141E+02
      5.190  0.1256E+01  0.4157E+02
      5.321  0.1479E+01  0.4177E+02
      5.452  0.5286E+00  0.4184E+02
      5.582  0.4498E+00  0.4189E+02
      5.713  0.6668E+00  0.4198E+02
      5.844  0.1773E+01  0.4221E+02
      5.975  0.1075E+01  0.4235E+02
      6.106  0.4650E+00  0.4242E+02
      6.236  0.5274E+00  0.4248E+02
      6.367  0.8399E+00  0.4259E+02
      6.498  0.1510E+01  0.4279E+02
      6.629  0.1072E+01  0.4293E+02
      6.760  0.6500E+00  0.4302E+02
      6.891  0.1065E+01  0.4316E+02
      7.021  0.5516E+00  0.4323E+02
      7.152  0.1211E+01  0.4339E+02
      7.283  0.1356E+01  0.4356E+02
      7.414  0.1224E+01  0.4372E+02
      7.545  0.1192E+01  0.4388E+02
      7.675  0.6572E+00  0.4397E+02
      7.806  0.6248E+00  0.4405E+02
      7.937  0.1280E+01  0.4422E+02
      8.068  0.1736E+01  0.4444E+02
      8.199  0.1249E+01  0.4461E+02
      8.329  0.9280E+00  0.4473E+02
      8.460  0.6335E+00  0.4481E+02
      8.591  0.1475E+01  0.4500E+02
      8.722  0.6147E+00  0.4508E+02
      8.853  0.1248E+01  0.4525E+02
      8.984  0.1153E+01  0.4540E+02
      9.114  0.1504E+01  0.4559E+02
      9.245  0.8510E+00  0.4571E+02
      9.376  0.4864E+00  0.4577E+02
      9.507  0.1582E+01  0.4598E+02
      9.638  0.8174E+00  0.4608E+02
      9.768  0.1275E+01  0.4625E+02
      9.899  0.9800E+00  0.4638E+02
     10.030  0.1033E+01  0.4651E+02
     10.161  0.1189E+01  0.4667E+02
     10.292  0.5491E+00  0.4674E+02
     10.422  0.5411E+00  0.4681E+02
     10.553  0.8390E+00  0.4692E+02
     10.684  0.1113E+01  0.4707E+02
     10.815  0.9594E+00  0.4719E+02
     10.946  0.8678E+00  0.4731E+02
     11.076  0.7703E+00  0.4741E+02
     11.207  0.1087E+01  0.4755E+02
     11.338  0.2153E+01  0.4783E+02
     11.469  0.7055E+00  0.4792E+02
     11.600  0.1437E+01  0.4811E+02
     11.731  0.1438E+01  0.4830E+02
     11.861  0.1459E+01  0.4849E+02
     11.992  0.1662E+01  0.4871E+02
     12.123  0.1550E+01  0.4891E+02
     12.254  0.9563E+00  0.4903E+02
     12.385  0.4717E+00  0.4910E+02
     12.515  0.1532E+01  0.4930E+02
     12.646  0.1820E+01  0.4953E+02
     12.777  0.7904E+00  0.4964E+02
     12.908  0.1634E+01  0.4985E+02
     13.039  0.6894E+00  0.4994E+02
     13.169  0.1094E+01  0.5008E+02
     13.300  0.1360E+01  0.5026E+02
     13.431  0.1250E+01  0.5043E+02
     13.562  0.8388E+00  0.5054E+02
     13.693  0.1334E+01  0.5071E+02
     13.824  0.1183E+01  0.5087E+02
     13.954  0.1148E+01  0.5102E+02
     14.085  0.1781E+01  0.5125E+02
     14.216  0.1499E+01  0.5144E+02
     14.347  0.6678E+00  0.5153E+02
     14.478  0.1465E+01  0.5172E+02
     14.608  0.2775E+01  0.5209E+02
     14.739  0.2298E+01  0.5239E+02
     14.870  0.1458E+01  0.5258E+02
     15.001  0.1219E+01  0.5274E+02
     15.132  0.6528E+00  0.5282E+02
     15.262  0.2287E+01  0.5312E+02
     15.393  0.2451E+01  0.5344E+02
     15.524  0.1820E+01  0.5368E+02
     15.655  0.1560E+01  0.5388E+02
     15.786  0.1236E+01  0.5405E+02
     15.916  0.1976E+01  0.5430E+02
     16.047  0.2080E+01  0.5458E+02
     16.178  0.1261E+01  0.5474E+02
     16.309  0.1761E+01  0.5497E+02
     16.440  0.1744E+01  0.5520E+02
     16.571  0.2385E+01  0.5551E+02
     16.701  0.1838E+01  0.5575E+02
     16.832  0.2436E+01  0.5607E+02
     16.963  0.1464E+01  0.5626E+02
     17.094  0.1579E+01  0.5647E+02
     17.225  0.1648E+01  0.5668E+02
     17.355  0.1554E+01  0.5689E+02
     17.486  0.2593E+01  0.5723E+02
     17.617  0.2435E+01  0.5755E+02
     17.748  0.1896E+01  0.5779E+02
     17.879  0.1762E+01  0.5802E+02
     18.009  0.2278E+01  0.5832E+02
     18.140  0.1684E+01  0.5854E+02
     18.271  0.3183E+01  0.5896E+02
     18.402  0.2094E+01  0.5923E+02
     18.533  0.2920E+01  0.5962E+02
     18.663  0.1532E+01  0.5982E+02
     18.794  0.2393E+01  0.6013E+02
     18.925  0.1869E+01  0.6037E+02
     19.056  0.2118E+01  0.6065E+02
     19.187  0.2767E+01  0.6101E+02
     19.318  0.1248E+01  0.6118E+02
     19.448  0.2084E+01  0.6145E+02
     19.579  0.2184E+01  0.6173E+02
     19.710  0.2197E+01  0.6202E+02
     19.841  0.1755E+01  0.6225E+02
     19.972  0.3539E+01  0.6271E+02
     20.102  0.1525E+01  0.6291E+02
     20.233  0.1776E+01  0.6315E+02
     20.364  0.2020E+01  0.6341E+02
     20.495  0.1906E+01  0.6366E+02
     20.626  0.2623E+01  0.6400E+02
     20.756  0.2138E+01  0.6428E+02
     20.887  0.1372E+01  0.6446E+02
     21.018  0.7872E+00  0.6456E+02
     21.149  0.1820E+01  0.6480E+02
     21.280  0.2150E+01  0.6508E+02
     21.411  0.1886E+01  0.6533E+02
     21.541  0.2625E+01  0.6567E+02
     21.672  0.1819E+01  0.6591E+02
     21.803  0.1768E+01  0.6614E+02
     21.934  0.2378E+01  0.6645E+02
     22.065  0.2267E+01  0.6675E+02
     22.195  0.5947E+00  0.6683E+02
     22.326  0.2301E+01  0.6713E+02
     22.457  0.2072E+01  0.6740E+02
     22.588  0.1427E+01  0.6759E+02
     22.719  0.1163E+01  0.6774E+02
     22.849  0.1312E+01  0.6791E+02
     22.980  0.2220E+01  0.6820E+02
     23.111  0.2597E+01  0.6854E+02
     23.242  0.2375E+01  0.6885E+02
     23.373  0.1023E+01  0.6899E+02
     23.503  0.1730E+01  0.6921E+02
     23.634  0.1777E+01  0.6944E+02
     23.765  0.2344E+01  0.6975E+02
     23.896  0.3084E+01  0.7015E+02
     24.027  0.3832E+01  0.7066E+02
     24.158  0.2871E+01  0.7103E+02
     24.288  0.2629E+01  0.7138E+02
     24.419  0.6058E+01  0.7217E+02
     24.550  0.5485E+01  0.7289E+02
     24.681  0.3392E+01  0.7333E+02
     24.812  0.1961E+01  0.7359E+02
     24.942  0.2919E+01  0.7397E+02
     25.073  0.1604E+01  0.7418E+02
     25.204  0.4877E+01  0.7481E+02
     25.335  0.5043E+01  0.7547E+02
     25.466  0.3311E+01  0.7591E+02
     25.596  0.2077E+01  0.7618E+02
     25.727  0.1872E+01  0.7642E+02
     25.858  0.2677E+01  0.7677E+02
     25.989  0.3489E+01  0.7723E+02
     26.120  0.1169E+01  0.7738E+02
     26.251  0.2100E+01  0.7766E+02
     26.381  0.2496E+01  0.7798E+02
     26.512  0.3706E+01  0.7847E+02
     26.643  0.3126E+01  0.7888E+02
     26.774  0.1843E+01  0.7912E+02
     26.905  0.2293E+01  0.7942E+02
     27.035  0.1585E+01  0.7963E+02
     27.166  0.1247E+01  0.7979E+02
     27.297  0.1768E+01  0.8002E+02
     27.428  0.1388E+01  0.8020E+02
     27.559  0.1226E+01  0.8036E+02
     27.689  0.1567E+01  0.8057E+02
     27.820  0.2326E+01  0.8087E+02
     27.951  0.1265E+01  0.8104E+02
     28.082  0.2187E+01  0.8132E+02
     28.213  0.1180E+01  0.8148E+02
     28.343  0.9938E+00  0.8161E+02
     28.474  0.6801E+00  0.8170E+02
     28.605  0.1472E+01  0.8189E+02
     28.736  0.1828E+01  0.8213E+02
     28.867  0.1650E+01  0.8234E+02
     28.998  0.1765E+01  0.8258E+02
     29.128  0.1847E+01  0.8282E+02
     29.259  0.1996E+01  0.8308E+02
     29.390  0.2316E+01  0.8338E+02
     29.521  0.2462E+01  0.8370E+02
     29.652  0.1847E+01  0.8394E+02
     29.782  0.2413E+01  0.8426E+02
     29.913  0.3045E+01  0.8466E+02
     30.044  0.3980E+01  0.8518E+02
     30.175  0.3501E+01  0.8564E+02
     30.306  0.3666E+01  0.8612E+02
     30.436  0.3865E+01  0.8662E+02
     30.567  0.3639E+01  0.8710E+02
     30.698  0.1709E+01  0.8732E+02
     30.829  0.2845E+01  0.8769E+02
     30.960  0.1743E+01  0.8792E+02
     31.091  0.1878E+01  0.8817E+02
     31.221  0.2536E+01  0.8850E+02
     31.352  0.3238E+01  0.8892E+02
     31.483  0.3198E+01  0.8934E+02
     31.614  0.1943E+01  0.8960E+02
     31.745  0.2410E+01  0.8991E+02
     31.875  0.2593E+01  0.9025E+02
     32.006  0.1767E+01  0.9048E+02
     32.137  0.2640E+01  0.9083E+02
     32.268  0.4987E+01  0.9148E+02
     32.399  0.3258E+01  0.9191E+02
     32.529  0.3161E+01  0.9232E+02
     32.660  0.3861E+01  0.9282E+02
     32.791  0.2329E+01  0.9313E+02
     32.922  0.4959E+01  0.9378E+02
     33.053  0.3208E+01  0.9420E+02
     33.183  0.2522E+01  0.9453E+02
     33.314  0.2381E+01  0.9484E+02
     33.445  0.1975E+01  0.9510E+02
     33.576  0.1776E+01  0.9533E+02
     33.707  0.1546E+01  0.9553E+02
     33.838  0.3925E+00  0.9558E+02
     33.968  0.7221E+00  0.9568E+02
     34.099  0.7791E+00  0.9578E+02
     34.230  0.3295E+00  0.9582E+02
     34.361  0.4287E+00  0.9588E+02
     34.492  0.1901E-01  0.9588E+02
     34.622  0.6174E-03  0.9588E+02
     34.753  0.1750E+00  0.9590E+02
     34.884  0.3678E-01  0.9591E+02
     35.015  0.2366E-01  0.9591E+02
     35.146  0.2053E+00  0.9594E+02
     35.276  0.1728E+00  0.9596E+02
     35.407  0.2139E+00  0.9599E+02
     35.538  0.5022E-01  0.9600E+02
     35.669  0.2427E-01  0.9600E+02
     35.800  0.1436E-05  0.9600E+02
     35.930  0.7896E-03  0.9600E+02
     36.061  0.7976E-02  0.9600E+02
     36.192  0.8206E-04  0.9600E+02
     36.323  0.6237E-11  0.9600E+02
     36.454  0.0000E+00  0.9600E+02
     36.585  0.0000E+00  0.9600E+02
     36.715  0.0000E+00  0.9600E+02
     36.846  0.0000E+00  0.9600E+02
     36.977  0.0000E+00  0.9600E+02
     37.108  0.0000E+00  0.9600E+02
     37.239  0.0000E+00  0.9600E+02
     37.369  0.0000E+00  0.9600E+02
     37.500  0.0000E+00  0.9600E+02
     37.631  0.0000E+00  0.9600E+02
     37.762  0.0000E+00  0.9600E+02
