 vasp.6.4.3 19Mar24 (build Jun 26 2024 13:02:28) complex                        
  
 executed on             LinuxIFC date 2025.08.08  18:31:47
 running   48 mpi-ranks, on    4 nodes
 distrk:  each k-point on   48 cores,    1 groups
 distr:  one band on NCORE=   1 cores,   48 groups


--------------------------------------------------------------------------------------------------------


 INCAR:
   ENCUT = 324.7972
   IBRION = -1
   ISMEAR = 0
   ISYM = 2
   LCHARG = True
   LWAVE = True
   SIGMA = 0.05
   SYSTEM = Ag

 POTCAR:  PAW_PBE Ag 02Apr2005                    
 -----------------------------------------------------------------------------
|                                                                             |
|           W    W    AA    RRRRR   N    N  II  N    N   GGGG   !!!           |
|           W    W   A  A   R    R  NN   N  II  NN   N  G    G  !!!           |
|           W    W  A    A  R    R  N N  N  II  N N  N  G       !!!           |
|           W WW W  AAAAAA  RRRRR   N  N N  II  N  N N  G  GGG   !            |
|           WW  WW  A    A  R   R   N   NN  II  N   NN  G    G                |
|           W    W  A    A  R    R  N    N  II  N    N   GGGG   !!!           |
|                                                                             |
|     For optimal performance we recommend to set                             |
|       NCORE = 2 up to number-of-cores-per-socket                            |
|     NCORE specifies how many cores store one orbital (NPAR=cpu/NCORE).      |
|     This setting can greatly improve the performance of VASP for DFT.       |
|     The default, NCORE=1 might be grossly inefficient on modern             |
|     multi-core architectures or massively parallel machines. Do your        |
|     own testing! More info at https://www.vasp.at/wiki/index.php/NCORE      |
|     Unfortunately you need to use the default for GW and RPA                |
|     calculations (for HF NCORE is supported but not extensively tested      |
|     yet).                                                                   |
|                                                                             |
 -----------------------------------------------------------------------------

 POTCAR:  PAW_PBE Ag 02Apr2005                    
   VRHFIN =Ag : s1 d10                                                                              
   LEXCH  = PE                                                                                      
   EATOM  =  1037.2675 eV,   76.2370 Ry                                                             
                                                                                                    
   TITEL  = PAW_PBE Ag 02Apr2005                                                                    
   LULTRA =        F    use ultrasoft PP ?                                                          
   IUNSCR =        1    unscreen: 0-lin 1-nonlin 2-no                                               
   RPACOR =    2.000    partial core radius                                                         
   POMASS =  107.868; ZVAL   =   11.000    mass and valenz                                          
   RCORE  =    2.500    outmost cutoff radius                                                       
   RWIGS  =    2.840; RWIGS  =    1.503    wigner-seitz radius (au A)                               
   ENMAX  =  249.844; ENMIN  =  187.383 eV                                                          
   ICORE  =        3    local potential                                                             
   LCOR   =        T    correct aug charges                                                         
   LPAW   =        T    paw PP                                                                      
   EAUG   =  412.496                                                                                
   DEXC   =    0.000                                                                                
   RMAX   =    2.560    core radius for proj-oper                                                   
   RAUG   =    1.300    factor for augmentation sphere                                              
   RDEP   =    2.576    radius for radial grids                                                     
   RDEPT  =    2.072    core radius for aug-charge                                                  
                                                                                                    
   Atomic configuration                                                                             
   12 entries                                                                                       
     n  l   j            E        occ.                                                              
     1  0  0.50    -25324.9161   2.0000                                                             
     2  0  0.50     -3728.5341   2.0000                                                             
     2  1  1.50     -3344.0404   6.0000                                                             
     3  0  0.50      -683.5581   2.0000                                                             
     3  1  1.50      -557.3225   6.0000                                                             
     3  2  2.50      -358.3853  10.0000                                                             
     4  0  0.50       -95.0341   2.0000                                                             
     4  1  1.50       -58.5511   6.0000                                                             
     4  2  2.50        -7.4440  10.0000                                                             
     5  0  0.50        -4.4045   1.0000                                                             
     5  1  0.50        -1.3606   0.0000                                                             
     4  3  2.50        -1.3606   0.0000                                                             
   Description                                                                                      
     l       E           TYP  RCUT    TYP  RCUT                                                     
     2     -7.4439781     23  2.400                                                                 
     2     -8.8045607     23  2.400                                                                 
     0     -4.4044681     23  2.400                                                                 
     0      1.9520038     23  2.400                                                                 
     1     -1.3605826     23  2.500                                                                 
     1     27.2116520     23  2.500                                                                 
     3     -4.0817478     23  2.400                                                                 
  local pseudopotential read in
  partial core-charges read in
  partial kinetic energy density read in
  atomic valenz-charges read in
  non local Contribution for L=           2  read in
    real space projection operators read in
  non local Contribution for L=           2  read in
    real space projection operators read in
  non local Contribution for L=           0  read in
    real space projection operators read in
  non local Contribution for L=           0  read in
    real space projection operators read in
  non local Contribution for L=           1  read in
    real space projection operators read in
  non local Contribution for L=           1  read in
    real space projection operators read in
    PAW grid and wavefunctions read in
 
   number of l-projection  operators is LMAX  =           6
   number of lm-projection operators is LMMAX =          18
 
PAW_PBE Ag 02Apr2005                    :
 energy of atom  1       EATOM=-1037.2675
 kinetic energy error for atom=    0.0422 (will be added to EATOM!!)
 
 
 POSCAR: Ag4
  positions in direct lattice
  No initial velocities read in


 exchange-correlation table for PE
   RHO(1)=    0.500       N(1)  =     2000
   RHO(2)=  100.500       N(2)  =     4000
 


--------------------------------------------------------------------------------------------------------


 ion  position               nearest neighbor table
   1  0.000  0.000  0.000-   2 2.94   3 2.94   2 2.94   3 2.94   2 2.94   4 2.94   2 2.94   3 2.94
                             4 2.94   3 2.94   4 2.94   4 2.94
   2  0.000  0.500  0.500-   1 2.94   4 2.94   1 2.94   4 2.94   1 2.94   3 2.94   1 2.94   3 2.94
                             4 2.94   4 2.94   3 2.94   3 2.94
   3  0.500  0.000  0.500-   1 2.94   4 2.94   1 2.94   4 2.94   2 2.94   4 2.94   4 2.94   1 2.94
                             2 2.94   1 2.94   2 2.94   2 2.94
   4  0.500  0.500  0.000-   2 2.94   3 2.94   2 2.94   3 2.94   1 2.94   3 2.94   3 2.94   1 2.94
                             2 2.94   2 2.94   1 2.94   1 2.94
 
  LATTYP: Found a simple cubic cell.
 ALAT       =     4.1642400000
  
  Lattice vectors:
  
 A1 = (   4.1642400000,   0.0000000000,   0.0000000000)
 A2 = (   0.0000000000,   4.1642400000,   0.0000000000)
 A3 = (   0.0000000000,   0.0000000000,   4.1642400000)


Analysis of symmetry for initial positions (statically):
=====================================================================
 Subroutine PRICEL returns following result:
 
  LATTYP: Found a face centered cubic cell.
 ALAT       =     4.1642400000
  
  Lattice vectors:
  
 A1 = (   2.0821200000,  -2.0821200000,   0.0000000000)
 A2 = (   2.0821200000,   0.0000000000,   2.0821200000)
 A3 = (   0.0000000000,  -2.0821200000,   2.0821200000)
 
   4 primitive cells build up your supercell.
 

 Routine SETGRP: Setting up the symmetry group for a 
 simple cubic supercell.


 Subroutine GETGRP returns: Found 48 space group operations
 (whereof 48 operations were pure point group operations)
 out of a pool of 48 trial point group operations.


The static configuration has the point symmetry O_h .


Analysis of symmetry for dynamics (positions and initial velocities):
=====================================================================
 Subroutine PRICEL returns following result:
 
  LATTYP: Found a face centered cubic cell.
 ALAT       =     4.1642400000
  
  Lattice vectors:
  
 A1 = (   2.0821200000,  -2.0821200000,   0.0000000000)
 A2 = (   2.0821200000,   0.0000000000,   2.0821200000)
 A3 = (   0.0000000000,  -2.0821200000,   2.0821200000)
 
   4 primitive cells build up your supercell.
 

 Routine SETGRP: Setting up the symmetry group for a 
 simple cubic supercell.


 Subroutine GETGRP returns: Found 48 space group operations
 (whereof 48 operations were pure point group operations)
 out of a pool of 48 trial point group operations.


The dynamic configuration has the point symmetry O_h .


 Subroutine INISYM returns: Found 48 space group operations
 (whereof 48 operations are pure point group operations),
 and found     4 'primitive' translations


----------------------------------------------------------------------------------------

                                     Primitive cell                                     

  volume of cell :      18.0529

  direct lattice vectors                    reciprocal lattice vectors
     2.082120000 -2.082120000  0.000000000     0.240139857 -0.240139857 -0.240139857
     2.082120000  0.000000000  2.082120000     0.240139857  0.240139857  0.240139857
     0.000000000 -2.082120000  2.082120000    -0.240139857 -0.240139857  0.240139857

  length of vectors
     2.944562342  2.944562342  2.944562342     0.415934434  0.415934434  0.415934434

  position of ions in fractional coordinates (direct lattice)
     0.000000000  0.000000000  0.000000000

  ion indices of the primitive-cell ions
   primitive index   ion index
                 1           1

----------------------------------------------------------------------------------------

 
 
 KPOINTS: Automatic kpoint scheme                 

Automatic generation of k-mesh.
 Grid dimensions read from file:
 generate k-points for:   12   12   12

 Generating k-lattice:

  Cartesian coordinates                     Fractional coordinates (reciprocal lattice)
     0.020011655 -0.000000000  0.000000000     0.083333333 -0.000000000  0.000000000
     0.000000000  0.020011655  0.000000000     0.000000000  0.083333333  0.000000000
    -0.000000000 -0.000000000  0.020011655    -0.000000000 -0.000000000  0.083333333

  Length of vectors
     0.020011655  0.020011655  0.020011655

  Shift w.r.t. Gamma in fractional coordinates (k-lattice)
     0.000000000  0.000000000  0.000000000

 
 Subroutine IBZKPT returns following result:
 ===========================================
 
 Found     84 irreducible k-points:
 
 Following reciprocal coordinates:
            Coordinates               Weight
  0.000000  0.000000  0.000000      1.000000
  0.083333  0.000000  0.000000      6.000000
  0.166667  0.000000  0.000000      6.000000
  0.250000  0.000000  0.000000      6.000000
  0.333333  0.000000  0.000000      6.000000
  0.416667 -0.000000  0.000000      6.000000
  0.500000  0.000000  0.000000      3.000000
  0.083333  0.083333  0.000000     12.000000
  0.166667  0.083333  0.000000     24.000000
  0.250000  0.083333  0.000000     24.000000
  0.333333  0.083333  0.000000     24.000000
  0.416667  0.083333  0.000000     24.000000
  0.500000  0.083333  0.000000     12.000000
  0.166667  0.166667  0.000000     12.000000
  0.250000  0.166667  0.000000     24.000000
  0.333333  0.166667  0.000000     24.000000
  0.416667  0.166667  0.000000     24.000000
  0.500000  0.166667  0.000000     12.000000
  0.250000  0.250000  0.000000     12.000000
  0.333333  0.250000  0.000000     24.000000
  0.416667  0.250000  0.000000     24.000000
  0.500000  0.250000  0.000000     12.000000
  0.333333  0.333333  0.000000     12.000000
  0.416667  0.333333  0.000000     24.000000
  0.500000  0.333333  0.000000     12.000000
  0.416667  0.416667  0.000000     12.000000
  0.500000  0.416667  0.000000     12.000000
  0.500000  0.500000  0.000000      3.000000
  0.083333  0.083333  0.083333      8.000000
  0.166667  0.083333  0.083333     24.000000
  0.250000  0.083333  0.083333     24.000000
  0.333333  0.083333  0.083333     24.000000
  0.416667  0.083333  0.083333     24.000000
  0.500000  0.083333  0.083333     12.000000
  0.166667  0.166667  0.083333     24.000000
  0.250000  0.166667  0.083333     48.000000
  0.333333  0.166667  0.083333     48.000000
  0.416667  0.166667  0.083333     48.000000
  0.500000  0.166667  0.083333     24.000000
  0.250000  0.250000  0.083333     24.000000
  0.333333  0.250000  0.083333     48.000000
  0.416667  0.250000  0.083333     48.000000
  0.500000  0.250000  0.083333     24.000000
  0.333333  0.333333  0.083333     24.000000
  0.416667  0.333333  0.083333     48.000000
  0.500000  0.333333  0.083333     24.000000
  0.416667  0.416667  0.083333     24.000000
  0.500000  0.416667  0.083333     24.000000
  0.500000  0.500000  0.083333      6.000000
  0.166667  0.166667  0.166667      8.000000
  0.250000  0.166667  0.166667     24.000000
  0.333333  0.166667  0.166667     24.000000
  0.416667  0.166667  0.166667     24.000000
  0.500000  0.166667  0.166667     12.000000
  0.250000  0.250000  0.166667     24.000000
  0.333333  0.250000  0.166667     48.000000
  0.416667  0.250000  0.166667     48.000000
  0.500000  0.250000  0.166667     24.000000
  0.333333  0.333333  0.166667     24.000000
  0.416667  0.333333  0.166667     48.000000
  0.500000  0.333333  0.166667     24.000000
  0.416667  0.416667  0.166667     24.000000
  0.500000  0.416667  0.166667     24.000000
  0.500000  0.500000  0.166667      6.000000
  0.250000  0.250000  0.250000      8.000000
  0.333333  0.250000  0.250000     24.000000
  0.416667  0.250000  0.250000     24.000000
  0.500000  0.250000  0.250000     12.000000
  0.333333  0.333333  0.250000     24.000000
  0.416667  0.333333  0.250000     48.000000
  0.500000  0.333333  0.250000     24.000000
  0.416667  0.416667  0.250000     24.000000
  0.500000  0.416667  0.250000     24.000000
  0.500000  0.500000  0.250000      6.000000
  0.333333  0.333333  0.333333      8.000000
  0.416667  0.333333  0.333333     24.000000
  0.500000  0.333333  0.333333     12.000000
  0.416667  0.416667  0.333333     24.000000
  0.500000  0.416667  0.333333     24.000000
  0.500000  0.500000  0.333333      6.000000
  0.416667  0.416667  0.416667      8.000000
  0.500000  0.416667  0.416667     12.000000
  0.500000  0.500000  0.416667      6.000000
  0.500000  0.500000  0.500000      1.000000
 
 Following cartesian coordinates:
            Coordinates               Weight
  0.000000  0.000000  0.000000      1.000000
  0.020012 -0.000000  0.000000      6.000000
  0.040023 -0.000000  0.000000      6.000000
  0.060035 -0.000000  0.000000      6.000000
  0.080047 -0.000000  0.000000      6.000000
  0.100058 -0.000000  0.000000      6.000000
  0.120070 -0.000000  0.000000      3.000000
  0.020012  0.020012  0.000000     12.000000
  0.040023  0.020012  0.000000     24.000000
  0.060035  0.020012  0.000000     24.000000
  0.080047  0.020012  0.000000     24.000000
  0.100058  0.020012  0.000000     24.000000
  0.120070  0.020012  0.000000     12.000000
  0.040023  0.040023  0.000000     12.000000
  0.060035  0.040023  0.000000     24.000000
  0.080047  0.040023  0.000000     24.000000
  0.100058  0.040023  0.000000     24.000000
  0.120070  0.040023  0.000000     12.000000
  0.060035  0.060035  0.000000     12.000000
  0.080047  0.060035  0.000000     24.000000
  0.100058  0.060035  0.000000     24.000000
  0.120070  0.060035  0.000000     12.000000
  0.080047  0.080047  0.000000     12.000000
  0.100058  0.080047  0.000000     24.000000
  0.120070  0.080047  0.000000     12.000000
  0.100058  0.100058  0.000000     12.000000
  0.120070  0.100058  0.000000     12.000000
  0.120070  0.120070  0.000000      3.000000
  0.020012  0.020012  0.020012      8.000000
  0.040023  0.020012  0.020012     24.000000
  0.060035  0.020012  0.020012     24.000000
  0.080047  0.020012  0.020012     24.000000
  0.100058  0.020012  0.020012     24.000000
  0.120070  0.020012  0.020012     12.000000
  0.040023  0.040023  0.020012     24.000000
  0.060035  0.040023  0.020012     48.000000
  0.080047  0.040023  0.020012     48.000000
  0.100058  0.040023  0.020012     48.000000
  0.120070  0.040023  0.020012     24.000000
  0.060035  0.060035  0.020012     24.000000
  0.080047  0.060035  0.020012     48.000000
  0.100058  0.060035  0.020012     48.000000
  0.120070  0.060035  0.020012     24.000000
  0.080047  0.080047  0.020012     24.000000
  0.100058  0.080047  0.020012     48.000000
  0.120070  0.080047  0.020012     24.000000
  0.100058  0.100058  0.020012     24.000000
  0.120070  0.100058  0.020012     24.000000
  0.120070  0.120070  0.020012      6.000000
  0.040023  0.040023  0.040023      8.000000
  0.060035  0.040023  0.040023     24.000000
  0.080047  0.040023  0.040023     24.000000
  0.100058  0.040023  0.040023     24.000000
  0.120070  0.040023  0.040023     12.000000
  0.060035  0.060035  0.040023     24.000000
  0.080047  0.060035  0.040023     48.000000
  0.100058  0.060035  0.040023     48.000000
  0.120070  0.060035  0.040023     24.000000
  0.080047  0.080047  0.040023     24.000000
  0.100058  0.080047  0.040023     48.000000
  0.120070  0.080047  0.040023     24.000000
  0.100058  0.100058  0.040023     24.000000
  0.120070  0.100058  0.040023     24.000000
  0.120070  0.120070  0.040023      6.000000
  0.060035  0.060035  0.060035      8.000000
  0.080047  0.060035  0.060035     24.000000
  0.100058  0.060035  0.060035     24.000000
  0.120070  0.060035  0.060035     12.000000
  0.080047  0.080047  0.060035     24.000000
  0.100058  0.080047  0.060035     48.000000
  0.120070  0.080047  0.060035     24.000000
  0.100058  0.100058  0.060035     24.000000
  0.120070  0.100058  0.060035     24.000000
  0.120070  0.120070  0.060035      6.000000
  0.080047  0.080047  0.080047      8.000000
  0.100058  0.080047  0.080047     24.000000
  0.120070  0.080047  0.080047     12.000000
  0.100058  0.100058  0.080047     24.000000
  0.120070  0.100058  0.080047     24.000000
  0.120070  0.120070  0.080047      6.000000
  0.100058  0.100058  0.100058      8.000000
  0.120070  0.100058  0.100058     12.000000
  0.120070  0.120070  0.100058      6.000000
  0.120070  0.120070  0.120070      1.000000
 
 
 Subroutine IBZKPT_HF returns following result:
 ==============================================
 
 Found   1728 k-points in 1st BZ
 the following   1728 k-points will be used (e.g. in the exchange kernel)
 Following reciprocal coordinates:   # in IRBZ
  0.000000  0.000000  0.000000    0.00057870   1 t-inv F
  0.083333  0.000000  0.000000    0.00057870   2 t-inv F
  0.166667  0.000000  0.000000    0.00057870   3 t-inv F
  0.250000  0.000000  0.000000    0.00057870   4 t-inv F
  0.333333  0.000000  0.000000    0.00057870   5 t-inv F
  0.416667 -0.000000  0.000000    0.00057870   6 t-inv F
  0.500000  0.000000  0.000000    0.00057870   7 t-inv F
  0.083333  0.083333  0.000000    0.00057870   8 t-inv F
  0.166667  0.083333  0.000000    0.00057870   9 t-inv F
  0.250000  0.083333  0.000000    0.00057870  10 t-inv F
  0.333333  0.083333  0.000000    0.00057870  11 t-inv F
  0.416667  0.083333  0.000000    0.00057870  12 t-inv F
  0.500000  0.083333  0.000000    0.00057870  13 t-inv F
  0.166667  0.166667  0.000000    0.00057870  14 t-inv F
  0.250000  0.166667  0.000000    0.00057870  15 t-inv F
  0.333333  0.166667  0.000000    0.00057870  16 t-inv F
  0.416667  0.166667  0.000000    0.00057870  17 t-inv F
  0.500000  0.166667  0.000000    0.00057870  18 t-inv F
  0.250000  0.250000  0.000000    0.00057870  19 t-inv F
  0.333333  0.250000  0.000000    0.00057870  20 t-inv F
  0.416667  0.250000  0.000000    0.00057870  21 t-inv F
  0.500000  0.250000  0.000000    0.00057870  22 t-inv F
  0.333333  0.333333  0.000000    0.00057870  23 t-inv F
  0.416667  0.333333  0.000000    0.00057870  24 t-inv F
  0.500000  0.333333  0.000000    0.00057870  25 t-inv F
  0.416667  0.416667  0.000000    0.00057870  26 t-inv F
  0.500000  0.416667  0.000000    0.00057870  27 t-inv F
  0.500000  0.500000  0.000000    0.00057870  28 t-inv F
  0.083333  0.083333  0.083333    0.00057870  29 t-inv F
  0.166667  0.083333  0.083333    0.00057870  30 t-inv F
  0.250000  0.083333  0.083333    0.00057870  31 t-inv F
  0.333333  0.083333  0.083333    0.00057870  32 t-inv F
  0.416667  0.083333  0.083333    0.00057870  33 t-inv F
  0.500000  0.083333  0.083333    0.00057870  34 t-inv F
  0.166667  0.166667  0.083333    0.00057870  35 t-inv F
  0.250000  0.166667  0.083333    0.00057870  36 t-inv F
  0.333333  0.166667  0.083333    0.00057870  37 t-inv F
  0.416667  0.166667  0.083333    0.00057870  38 t-inv F
  0.500000  0.166667  0.083333    0.00057870  39 t-inv F
  0.250000  0.250000  0.083333    0.00057870  40 t-inv F
  0.333333  0.250000  0.083333    0.00057870  41 t-inv F
  0.416667  0.250000  0.083333    0.00057870  42 t-inv F
  0.500000  0.250000  0.083333    0.00057870  43 t-inv F
  0.333333  0.333333  0.083333    0.00057870  44 t-inv F
  0.416667  0.333333  0.083333    0.00057870  45 t-inv F
  0.500000  0.333333  0.083333    0.00057870  46 t-inv F
  0.416667  0.416667  0.083333    0.00057870  47 t-inv F
  0.500000  0.416667  0.083333    0.00057870  48 t-inv F
  0.500000  0.500000  0.083333    0.00057870  49 t-inv F
  0.166667  0.166667  0.166667    0.00057870  50 t-inv F
  0.250000  0.166667  0.166667    0.00057870  51 t-inv F
  0.333333  0.166667  0.166667    0.00057870  52 t-inv F
  0.416667  0.166667  0.166667    0.00057870  53 t-inv F
  0.500000  0.166667  0.166667    0.00057870  54 t-inv F
  0.250000  0.250000  0.166667    0.00057870  55 t-inv F
  0.333333  0.250000  0.166667    0.00057870  56 t-inv F
  0.416667  0.250000  0.166667    0.00057870  57 t-inv F
  0.500000  0.250000  0.166667    0.00057870  58 t-inv F
  0.333333  0.333333  0.166667    0.00057870  59 t-inv F
  0.416667  0.333333  0.166667    0.00057870  60 t-inv F
  0.500000  0.333333  0.166667    0.00057870  61 t-inv F
  0.416667  0.416667  0.166667    0.00057870  62 t-inv F
  0.500000  0.416667  0.166667    0.00057870  63 t-inv F
  0.500000  0.500000  0.166667    0.00057870  64 t-inv F
  0.250000  0.250000  0.250000    0.00057870  65 t-inv F
  0.333333  0.250000  0.250000    0.00057870  66 t-inv F
  0.416667  0.250000  0.250000    0.00057870  67 t-inv F
  0.500000  0.250000  0.250000    0.00057870  68 t-inv F
  0.333333  0.333333  0.250000    0.00057870  69 t-inv F
  0.416667  0.333333  0.250000    0.00057870  70 t-inv F
  0.500000  0.333333  0.250000    0.00057870  71 t-inv F
  0.416667  0.416667  0.250000    0.00057870  72 t-inv F
  0.500000  0.416667  0.250000    0.00057870  73 t-inv F
  0.500000  0.500000  0.250000    0.00057870  74 t-inv F
  0.333333  0.333333  0.333333    0.00057870  75 t-inv F
  0.416667  0.333333  0.333333    0.00057870  76 t-inv F
  0.500000  0.333333  0.333333    0.00057870  77 t-inv F
  0.416667  0.416667  0.333333    0.00057870  78 t-inv F
  0.500000  0.416667  0.333333    0.00057870  79 t-inv F
  0.500000  0.500000  0.333333    0.00057870  80 t-inv F
  0.416667  0.416667  0.416667    0.00057870  81 t-inv F
  0.500000  0.416667  0.416667    0.00057870  82 t-inv F
  0.500000  0.500000  0.416667    0.00057870  83 t-inv F
  0.500000  0.500000  0.500000    0.00057870  84 t-inv F
 -0.083333 -0.000000  0.000000    0.00057870   2 t-inv F
  0.000000  0.083333  0.000000    0.00057870   2 t-inv F
  0.000000 -0.083333 -0.000000    0.00057870   2 t-inv F
  0.000000  0.000000  0.083333    0.00057870   2 t-inv F
 -0.000000  0.000000 -0.083333    0.00057870   2 t-inv F
 -0.166667 -0.000000  0.000000    0.00057870   3 t-inv F
  0.000000  0.166667  0.000000    0.00057870   3 t-inv F
  0.000000 -0.166667 -0.000000    0.00057870   3 t-inv F
  0.000000  0.000000  0.166667    0.00057870   3 t-inv F
 -0.000000  0.000000 -0.166667    0.00057870   3 t-inv F
 -0.250000 -0.000000  0.000000    0.00057870   4 t-inv F
  0.000000  0.250000  0.000000    0.00057870   4 t-inv F
  0.000000 -0.250000 -0.000000    0.00057870   4 t-inv F
  0.000000  0.000000  0.250000    0.00057870   4 t-inv F
 -0.000000  0.000000 -0.250000    0.00057870   4 t-inv F
 -0.333333 -0.000000  0.000000    0.00057870   5 t-inv F
  0.000000  0.333333  0.000000    0.00057870   5 t-inv F
  0.000000 -0.333333 -0.000000    0.00057870   5 t-inv F
  0.000000  0.000000  0.333333    0.00057870   5 t-inv F
 -0.000000  0.000000 -0.333333    0.00057870   5 t-inv F
 -0.416667  0.000000  0.000000    0.00057870   6 t-inv F
  0.000000  0.416667 -0.000000    0.00057870   6 t-inv F
  0.000000 -0.416667  0.000000    0.00057870   6 t-inv F
 -0.000000  0.000000  0.416667    0.00057870   6 t-inv F
  0.000000  0.000000 -0.416667    0.00057870   6 t-inv F
  0.000000  0.500000  0.000000    0.00057870   7 t-inv F
  0.000000  0.000000  0.500000    0.00057870   7 t-inv F
 -0.083333 -0.083333  0.000000    0.00057870   8 t-inv F
  0.000000  0.083333  0.083333    0.00057870   8 t-inv F
  0.000000 -0.083333 -0.083333    0.00057870   8 t-inv F
  0.083333  0.000000  0.083333    0.00057870   8 t-inv F
 -0.083333  0.000000 -0.083333    0.00057870   8 t-inv F
 -0.083333  0.083333  0.000000    0.00057870   8 t-inv F
  0.083333 -0.083333  0.000000    0.00057870   8 t-inv F
 -0.083333  0.000000  0.083333    0.00057870   8 t-inv F
  0.083333  0.000000 -0.083333    0.00057870   8 t-inv F
  0.000000 -0.083333  0.083333    0.00057870   8 t-inv F
  0.000000  0.083333 -0.083333    0.00057870   8 t-inv F
 -0.166667 -0.083333  0.000000    0.00057870   9 t-inv F
  0.000000  0.166667  0.083333    0.00057870   9 t-inv F
  0.000000 -0.166667 -0.083333    0.00057870   9 t-inv F
  0.083333  0.000000  0.166667    0.00057870   9 t-inv F
 -0.083333  0.000000 -0.166667    0.00057870   9 t-inv F
 -0.083333  0.166667  0.000000    0.00057870   9 t-inv F
  0.083333 -0.166667  0.000000    0.00057870   9 t-inv F
 -0.166667  0.000000  0.083333    0.00057870   9 t-inv F
  0.166667  0.000000 -0.083333    0.00057870   9 t-inv F
  0.000000  0.083333  0.166667    0.00057870   9 t-inv F
  0.000000 -0.083333 -0.166667    0.00057870   9 t-inv F
  0.000000 -0.166667  0.083333    0.00057870   9 t-inv F
  0.000000  0.166667 -0.083333    0.00057870   9 t-inv F
 -0.083333  0.000000  0.166667    0.00057870   9 t-inv F
  0.083333  0.000000 -0.166667    0.00057870   9 t-inv F
  0.166667  0.000000  0.083333    0.00057870   9 t-inv F
 -0.166667  0.000000 -0.083333    0.00057870   9 t-inv F
  0.000000 -0.083333  0.166667    0.00057870   9 t-inv F
  0.000000  0.083333 -0.166667    0.00057870   9 t-inv F
  0.166667 -0.083333  0.000000    0.00057870   9 t-inv F
 -0.166667  0.083333  0.000000    0.00057870   9 t-inv F
  0.083333  0.166667  0.000000    0.00057870   9 t-inv F
 -0.083333 -0.166667  0.000000    0.00057870   9 t-inv F
 -0.250000 -0.083333  0.000000    0.00057870  10 t-inv F
  0.000000  0.250000  0.083333    0.00057870  10 t-inv F
  0.000000 -0.250000 -0.083333    0.00057870  10 t-inv F
  0.083333  0.000000  0.250000    0.00057870  10 t-inv F
 -0.083333  0.000000 -0.250000    0.00057870  10 t-inv F
 -0.083333  0.250000  0.000000    0.00057870  10 t-inv F
  0.083333 -0.250000  0.000000    0.00057870  10 t-inv F
 -0.250000  0.000000  0.083333    0.00057870  10 t-inv F
  0.250000  0.000000 -0.083333    0.00057870  10 t-inv F
  0.000000  0.083333  0.250000    0.00057870  10 t-inv F
  0.000000 -0.083333 -0.250000    0.00057870  10 t-inv F
  0.000000 -0.250000  0.083333    0.00057870  10 t-inv F
  0.000000  0.250000 -0.083333    0.00057870  10 t-inv F
 -0.083333  0.000000  0.250000    0.00057870  10 t-inv F
  0.083333  0.000000 -0.250000    0.00057870  10 t-inv F
  0.250000  0.000000  0.083333    0.00057870  10 t-inv F
 -0.250000  0.000000 -0.083333    0.00057870  10 t-inv F
  0.000000 -0.083333  0.250000    0.00057870  10 t-inv F
  0.000000  0.083333 -0.250000    0.00057870  10 t-inv F
  0.250000 -0.083333  0.000000    0.00057870  10 t-inv F
 -0.250000  0.083333  0.000000    0.00057870  10 t-inv F
  0.083333  0.250000  0.000000    0.00057870  10 t-inv F
 -0.083333 -0.250000  0.000000    0.00057870  10 t-inv F
 -0.333333 -0.083333  0.000000    0.00057870  11 t-inv F
  0.000000  0.333333  0.083333    0.00057870  11 t-inv F
  0.000000 -0.333333 -0.083333    0.00057870  11 t-inv F
  0.083333  0.000000  0.333333    0.00057870  11 t-inv F
 -0.083333  0.000000 -0.333333    0.00057870  11 t-inv F
 -0.083333  0.333333  0.000000    0.00057870  11 t-inv F
  0.083333 -0.333333  0.000000    0.00057870  11 t-inv F
 -0.333333  0.000000  0.083333    0.00057870  11 t-inv F
  0.333333  0.000000 -0.083333    0.00057870  11 t-inv F
  0.000000  0.083333  0.333333    0.00057870  11 t-inv F
  0.000000 -0.083333 -0.333333    0.00057870  11 t-inv F
  0.000000 -0.333333  0.083333    0.00057870  11 t-inv F
  0.000000  0.333333 -0.083333    0.00057870  11 t-inv F
 -0.083333  0.000000  0.333333    0.00057870  11 t-inv F
  0.083333  0.000000 -0.333333    0.00057870  11 t-inv F
  0.333333  0.000000  0.083333    0.00057870  11 t-inv F
 -0.333333  0.000000 -0.083333    0.00057870  11 t-inv F
  0.000000 -0.083333  0.333333    0.00057870  11 t-inv F
  0.000000  0.083333 -0.333333    0.00057870  11 t-inv F
  0.333333 -0.083333  0.000000    0.00057870  11 t-inv F
 -0.333333  0.083333  0.000000    0.00057870  11 t-inv F
  0.083333  0.333333  0.000000    0.00057870  11 t-inv F
 -0.083333 -0.333333  0.000000    0.00057870  11 t-inv F
 -0.416667 -0.083333  0.000000    0.00057870  12 t-inv F
  0.000000  0.416667  0.083333    0.00057870  12 t-inv F
  0.000000 -0.416667 -0.083333    0.00057870  12 t-inv F
  0.083333  0.000000  0.416667    0.00057870  12 t-inv F
 -0.083333  0.000000 -0.416667    0.00057870  12 t-inv F
 -0.083333  0.416667  0.000000    0.00057870  12 t-inv F
  0.083333 -0.416667  0.000000    0.00057870  12 t-inv F
 -0.416667  0.000000  0.083333    0.00057870  12 t-inv F
  0.416667  0.000000 -0.083333    0.00057870  12 t-inv F
  0.000000  0.083333  0.416667    0.00057870  12 t-inv F
  0.000000 -0.083333 -0.416667    0.00057870  12 t-inv F
  0.000000 -0.416667  0.083333    0.00057870  12 t-inv F
  0.000000  0.416667 -0.083333    0.00057870  12 t-inv F
 -0.083333  0.000000  0.416667    0.00057870  12 t-inv F
  0.083333  0.000000 -0.416667    0.00057870  12 t-inv F
  0.416667  0.000000  0.083333    0.00057870  12 t-inv F
 -0.416667  0.000000 -0.083333    0.00057870  12 t-inv F
  0.000000 -0.083333  0.416667    0.00057870  12 t-inv F
  0.000000  0.083333 -0.416667    0.00057870  12 t-inv F
  0.416667 -0.083333  0.000000    0.00057870  12 t-inv F
 -0.416667  0.083333  0.000000    0.00057870  12 t-inv F
  0.083333  0.416667  0.000000    0.00057870  12 t-inv F
 -0.083333 -0.416667  0.000000    0.00057870  12 t-inv F
 -0.500000 -0.083333  0.000000    0.00057870  13 t-inv F
  0.000000  0.500000  0.083333    0.00057870  13 t-inv F
  0.000000 -0.500000 -0.083333    0.00057870  13 t-inv F
  0.083333  0.000000  0.500000    0.00057870  13 t-inv F
 -0.083333  0.000000 -0.500000    0.00057870  13 t-inv F
 -0.083333  0.500000  0.000000    0.00057870  13 t-inv F
  0.083333 -0.500000  0.000000    0.00057870  13 t-inv F
 -0.500000  0.000000  0.083333    0.00057870  13 t-inv F
  0.500000  0.000000 -0.083333    0.00057870  13 t-inv F
  0.000000  0.083333  0.500000    0.00057870  13 t-inv F
  0.000000 -0.083333 -0.500000    0.00057870  13 t-inv F
 -0.166667 -0.166667  0.000000    0.00057870  14 t-inv F
  0.000000  0.166667  0.166667    0.00057870  14 t-inv F
  0.000000 -0.166667 -0.166667    0.00057870  14 t-inv F
  0.166667  0.000000  0.166667    0.00057870  14 t-inv F
 -0.166667  0.000000 -0.166667    0.00057870  14 t-inv F
 -0.166667  0.166667  0.000000    0.00057870  14 t-inv F
  0.166667 -0.166667  0.000000    0.00057870  14 t-inv F
 -0.166667  0.000000  0.166667    0.00057870  14 t-inv F
  0.166667  0.000000 -0.166667    0.00057870  14 t-inv F
  0.000000 -0.166667  0.166667    0.00057870  14 t-inv F
  0.000000  0.166667 -0.166667    0.00057870  14 t-inv F
 -0.250000 -0.166667  0.000000    0.00057870  15 t-inv F
  0.000000  0.250000  0.166667    0.00057870  15 t-inv F
  0.000000 -0.250000 -0.166667    0.00057870  15 t-inv F
  0.166667  0.000000  0.250000    0.00057870  15 t-inv F
 -0.166667  0.000000 -0.250000    0.00057870  15 t-inv F
 -0.166667  0.250000  0.000000    0.00057870  15 t-inv F
  0.166667 -0.250000  0.000000    0.00057870  15 t-inv F
 -0.250000  0.000000  0.166667    0.00057870  15 t-inv F
  0.250000  0.000000 -0.166667    0.00057870  15 t-inv F
  0.000000  0.166667  0.250000    0.00057870  15 t-inv F
  0.000000 -0.166667 -0.250000    0.00057870  15 t-inv F
  0.000000 -0.250000  0.166667    0.00057870  15 t-inv F
  0.000000  0.250000 -0.166667    0.00057870  15 t-inv F
 -0.166667  0.000000  0.250000    0.00057870  15 t-inv F
  0.166667  0.000000 -0.250000    0.00057870  15 t-inv F
  0.250000  0.000000  0.166667    0.00057870  15 t-inv F
 -0.250000  0.000000 -0.166667    0.00057870  15 t-inv F
  0.000000 -0.166667  0.250000    0.00057870  15 t-inv F
  0.000000  0.166667 -0.250000    0.00057870  15 t-inv F
  0.250000 -0.166667  0.000000    0.00057870  15 t-inv F
 -0.250000  0.166667  0.000000    0.00057870  15 t-inv F
  0.166667  0.250000  0.000000    0.00057870  15 t-inv F
 -0.166667 -0.250000  0.000000    0.00057870  15 t-inv F
 -0.333333 -0.166667  0.000000    0.00057870  16 t-inv F
  0.000000  0.333333  0.166667    0.00057870  16 t-inv F
  0.000000 -0.333333 -0.166667    0.00057870  16 t-inv F
  0.166667  0.000000  0.333333    0.00057870  16 t-inv F
 -0.166667  0.000000 -0.333333    0.00057870  16 t-inv F
 -0.166667  0.333333  0.000000    0.00057870  16 t-inv F
  0.166667 -0.333333  0.000000    0.00057870  16 t-inv F
 -0.333333  0.000000  0.166667    0.00057870  16 t-inv F
  0.333333  0.000000 -0.166667    0.00057870  16 t-inv F
  0.000000  0.166667  0.333333    0.00057870  16 t-inv F
  0.000000 -0.166667 -0.333333    0.00057870  16 t-inv F
  0.000000 -0.333333  0.166667    0.00057870  16 t-inv F
  0.000000  0.333333 -0.166667    0.00057870  16 t-inv F
 -0.166667  0.000000  0.333333    0.00057870  16 t-inv F
  0.166667  0.000000 -0.333333    0.00057870  16 t-inv F
  0.333333  0.000000  0.166667    0.00057870  16 t-inv F
 -0.333333  0.000000 -0.166667    0.00057870  16 t-inv F
  0.000000 -0.166667  0.333333    0.00057870  16 t-inv F
  0.000000  0.166667 -0.333333    0.00057870  16 t-inv F
  0.333333 -0.166667  0.000000    0.00057870  16 t-inv F
 -0.333333  0.166667  0.000000    0.00057870  16 t-inv F
  0.166667  0.333333  0.000000    0.00057870  16 t-inv F
 -0.166667 -0.333333  0.000000    0.00057870  16 t-inv F
 -0.416667 -0.166667  0.000000    0.00057870  17 t-inv F
  0.000000  0.416667  0.166667    0.00057870  17 t-inv F
  0.000000 -0.416667 -0.166667    0.00057870  17 t-inv F
  0.166667  0.000000  0.416667    0.00057870  17 t-inv F
 -0.166667  0.000000 -0.416667    0.00057870  17 t-inv F
 -0.166667  0.416667  0.000000    0.00057870  17 t-inv F
  0.166667 -0.416667  0.000000    0.00057870  17 t-inv F
 -0.416667  0.000000  0.166667    0.00057870  17 t-inv F
  0.416667  0.000000 -0.166667    0.00057870  17 t-inv F
  0.000000  0.166667  0.416667    0.00057870  17 t-inv F
  0.000000 -0.166667 -0.416667    0.00057870  17 t-inv F
  0.000000 -0.416667  0.166667    0.00057870  17 t-inv F
  0.000000  0.416667 -0.166667    0.00057870  17 t-inv F
 -0.166667  0.000000  0.416667    0.00057870  17 t-inv F
  0.166667  0.000000 -0.416667    0.00057870  17 t-inv F
  0.416667  0.000000  0.166667    0.00057870  17 t-inv F
 -0.416667  0.000000 -0.166667    0.00057870  17 t-inv F
  0.000000 -0.166667  0.416667    0.00057870  17 t-inv F
  0.000000  0.166667 -0.416667    0.00057870  17 t-inv F
  0.416667 -0.166667  0.000000    0.00057870  17 t-inv F
 -0.416667  0.166667  0.000000    0.00057870  17 t-inv F
  0.166667  0.416667  0.000000    0.00057870  17 t-inv F
 -0.166667 -0.416667  0.000000    0.00057870  17 t-inv F
 -0.500000 -0.166667  0.000000    0.00057870  18 t-inv F
  0.000000  0.500000  0.166667    0.00057870  18 t-inv F
  0.000000 -0.500000 -0.166667    0.00057870  18 t-inv F
  0.166667  0.000000  0.500000    0.00057870  18 t-inv F
 -0.166667  0.000000 -0.500000    0.00057870  18 t-inv F
 -0.166667  0.500000  0.000000    0.00057870  18 t-inv F
  0.166667 -0.500000  0.000000    0.00057870  18 t-inv F
 -0.500000  0.000000  0.166667    0.00057870  18 t-inv F
  0.500000  0.000000 -0.166667    0.00057870  18 t-inv F
  0.000000  0.166667  0.500000    0.00057870  18 t-inv F
  0.000000 -0.166667 -0.500000    0.00057870  18 t-inv F
 -0.250000 -0.250000  0.000000    0.00057870  19 t-inv F
  0.000000  0.250000  0.250000    0.00057870  19 t-inv F
  0.000000 -0.250000 -0.250000    0.00057870  19 t-inv F
  0.250000  0.000000  0.250000    0.00057870  19 t-inv F
 -0.250000  0.000000 -0.250000    0.00057870  19 t-inv F
 -0.250000  0.250000  0.000000    0.00057870  19 t-inv F
  0.250000 -0.250000  0.000000    0.00057870  19 t-inv F
 -0.250000  0.000000  0.250000    0.00057870  19 t-inv F
  0.250000  0.000000 -0.250000    0.00057870  19 t-inv F
  0.000000 -0.250000  0.250000    0.00057870  19 t-inv F
  0.000000  0.250000 -0.250000    0.00057870  19 t-inv F
 -0.333333 -0.250000  0.000000    0.00057870  20 t-inv F
  0.000000  0.333333  0.250000    0.00057870  20 t-inv F
  0.000000 -0.333333 -0.250000    0.00057870  20 t-inv F
  0.250000  0.000000  0.333333    0.00057870  20 t-inv F
 -0.250000  0.000000 -0.333333    0.00057870  20 t-inv F
 -0.250000  0.333333  0.000000    0.00057870  20 t-inv F
  0.250000 -0.333333  0.000000    0.00057870  20 t-inv F
 -0.333333  0.000000  0.250000    0.00057870  20 t-inv F
  0.333333  0.000000 -0.250000    0.00057870  20 t-inv F
  0.000000  0.250000  0.333333    0.00057870  20 t-inv F
  0.000000 -0.250000 -0.333333    0.00057870  20 t-inv F
  0.000000 -0.333333  0.250000    0.00057870  20 t-inv F
  0.000000  0.333333 -0.250000    0.00057870  20 t-inv F
 -0.250000  0.000000  0.333333    0.00057870  20 t-inv F
  0.250000  0.000000 -0.333333    0.00057870  20 t-inv F
  0.333333  0.000000  0.250000    0.00057870  20 t-inv F
 -0.333333  0.000000 -0.250000    0.00057870  20 t-inv F
  0.000000 -0.250000  0.333333    0.00057870  20 t-inv F
  0.000000  0.250000 -0.333333    0.00057870  20 t-inv F
  0.333333 -0.250000  0.000000    0.00057870  20 t-inv F
 -0.333333  0.250000  0.000000    0.00057870  20 t-inv F
  0.250000  0.333333  0.000000    0.00057870  20 t-inv F
 -0.250000 -0.333333  0.000000    0.00057870  20 t-inv F
 -0.416667 -0.250000  0.000000    0.00057870  21 t-inv F
  0.000000  0.416667  0.250000    0.00057870  21 t-inv F
  0.000000 -0.416667 -0.250000    0.00057870  21 t-inv F
  0.250000  0.000000  0.416667    0.00057870  21 t-inv F
 -0.250000  0.000000 -0.416667    0.00057870  21 t-inv F
 -0.250000  0.416667  0.000000    0.00057870  21 t-inv F
  0.250000 -0.416667  0.000000    0.00057870  21 t-inv F
 -0.416667  0.000000  0.250000    0.00057870  21 t-inv F
  0.416667  0.000000 -0.250000    0.00057870  21 t-inv F
  0.000000  0.250000  0.416667    0.00057870  21 t-inv F
  0.000000 -0.250000 -0.416667    0.00057870  21 t-inv F
  0.000000 -0.416667  0.250000    0.00057870  21 t-inv F
  0.000000  0.416667 -0.250000    0.00057870  21 t-inv F
 -0.250000  0.000000  0.416667    0.00057870  21 t-inv F
  0.250000  0.000000 -0.416667    0.00057870  21 t-inv F
  0.416667  0.000000  0.250000    0.00057870  21 t-inv F
 -0.416667  0.000000 -0.250000    0.00057870  21 t-inv F
  0.000000 -0.250000  0.416667    0.00057870  21 t-inv F
  0.000000  0.250000 -0.416667    0.00057870  21 t-inv F
  0.416667 -0.250000  0.000000    0.00057870  21 t-inv F
 -0.416667  0.250000  0.000000    0.00057870  21 t-inv F
  0.250000  0.416667  0.000000    0.00057870  21 t-inv F
 -0.250000 -0.416667  0.000000    0.00057870  21 t-inv F
 -0.500000 -0.250000  0.000000    0.00057870  22 t-inv F
  0.000000  0.500000  0.250000    0.00057870  22 t-inv F
  0.000000 -0.500000 -0.250000    0.00057870  22 t-inv F
  0.250000  0.000000  0.500000    0.00057870  22 t-inv F
 -0.250000  0.000000 -0.500000    0.00057870  22 t-inv F
 -0.250000  0.500000  0.000000    0.00057870  22 t-inv F
  0.250000 -0.500000  0.000000    0.00057870  22 t-inv F
 -0.500000  0.000000  0.250000    0.00057870  22 t-inv F
  0.500000  0.000000 -0.250000    0.00057870  22 t-inv F
  0.000000  0.250000  0.500000    0.00057870  22 t-inv F
  0.000000 -0.250000 -0.500000    0.00057870  22 t-inv F
 -0.333333 -0.333333  0.000000    0.00057870  23 t-inv F
  0.000000  0.333333  0.333333    0.00057870  23 t-inv F
  0.000000 -0.333333 -0.333333    0.00057870  23 t-inv F
  0.333333  0.000000  0.333333    0.00057870  23 t-inv F
 -0.333333  0.000000 -0.333333    0.00057870  23 t-inv F
 -0.333333  0.333333  0.000000    0.00057870  23 t-inv F
  0.333333 -0.333333  0.000000    0.00057870  23 t-inv F
 -0.333333  0.000000  0.333333    0.00057870  23 t-inv F
  0.333333  0.000000 -0.333333    0.00057870  23 t-inv F
  0.000000 -0.333333  0.333333    0.00057870  23 t-inv F
  0.000000  0.333333 -0.333333    0.00057870  23 t-inv F
 -0.416667 -0.333333  0.000000    0.00057870  24 t-inv F
  0.000000  0.416667  0.333333    0.00057870  24 t-inv F
  0.000000 -0.416667 -0.333333    0.00057870  24 t-inv F
  0.333333  0.000000  0.416667    0.00057870  24 t-inv F
 -0.333333  0.000000 -0.416667    0.00057870  24 t-inv F
 -0.333333  0.416667  0.000000    0.00057870  24 t-inv F
  0.333333 -0.416667  0.000000    0.00057870  24 t-inv F
 -0.416667  0.000000  0.333333    0.00057870  24 t-inv F
  0.416667  0.000000 -0.333333    0.00057870  24 t-inv F
  0.000000  0.333333  0.416667    0.00057870  24 t-inv F
  0.000000 -0.333333 -0.416667    0.00057870  24 t-inv F
  0.000000 -0.416667  0.333333    0.00057870  24 t-inv F
  0.000000  0.416667 -0.333333    0.00057870  24 t-inv F
 -0.333333  0.000000  0.416667    0.00057870  24 t-inv F
  0.333333  0.000000 -0.416667    0.00057870  24 t-inv F
  0.416667  0.000000  0.333333    0.00057870  24 t-inv F
 -0.416667  0.000000 -0.333333    0.00057870  24 t-inv F
  0.000000 -0.333333  0.416667    0.00057870  24 t-inv F
  0.000000  0.333333 -0.416667    0.00057870  24 t-inv F
  0.416667 -0.333333  0.000000    0.00057870  24 t-inv F
 -0.416667  0.333333  0.000000    0.00057870  24 t-inv F
  0.333333  0.416667  0.000000    0.00057870  24 t-inv F
 -0.333333 -0.416667  0.000000    0.00057870  24 t-inv F
 -0.500000 -0.333333  0.000000    0.00057870  25 t-inv F
  0.000000  0.500000  0.333333    0.00057870  25 t-inv F
  0.000000 -0.500000 -0.333333    0.00057870  25 t-inv F
  0.333333  0.000000  0.500000    0.00057870  25 t-inv F
 -0.333333  0.000000 -0.500000    0.00057870  25 t-inv F
 -0.333333  0.500000  0.000000    0.00057870  25 t-inv F
  0.333333 -0.500000  0.000000    0.00057870  25 t-inv F
 -0.500000  0.000000  0.333333    0.00057870  25 t-inv F
  0.500000  0.000000 -0.333333    0.00057870  25 t-inv F
  0.000000  0.333333  0.500000    0.00057870  25 t-inv F
  0.000000 -0.333333 -0.500000    0.00057870  25 t-inv F
 -0.416667 -0.416667  0.000000    0.00057870  26 t-inv F
  0.000000  0.416667  0.416667    0.00057870  26 t-inv F
  0.000000 -0.416667 -0.416667    0.00057870  26 t-inv F
  0.416667  0.000000  0.416667    0.00057870  26 t-inv F
 -0.416667  0.000000 -0.416667    0.00057870  26 t-inv F
 -0.416667  0.416667  0.000000    0.00057870  26 t-inv F
  0.416667 -0.416667  0.000000    0.00057870  26 t-inv F
 -0.416667  0.000000  0.416667    0.00057870  26 t-inv F
  0.416667  0.000000 -0.416667    0.00057870  26 t-inv F
  0.000000 -0.416667  0.416667    0.00057870  26 t-inv F
  0.000000  0.416667 -0.416667    0.00057870  26 t-inv F
 -0.500000 -0.416667  0.000000    0.00057870  27 t-inv F
  0.000000  0.500000  0.416667    0.00057870  27 t-inv F
  0.000000 -0.500000 -0.416667    0.00057870  27 t-inv F
  0.416667  0.000000  0.500000    0.00057870  27 t-inv F
 -0.416667  0.000000 -0.500000    0.00057870  27 t-inv F
 -0.416667  0.500000  0.000000    0.00057870  27 t-inv F
  0.416667 -0.500000  0.000000    0.00057870  27 t-inv F
 -0.500000  0.000000  0.416667    0.00057870  27 t-inv F
  0.500000  0.000000 -0.416667    0.00057870  27 t-inv F
  0.000000  0.416667  0.500000    0.00057870  27 t-inv F
  0.000000 -0.416667 -0.500000    0.00057870  27 t-inv F
  0.000000  0.500000  0.500000    0.00057870  28 t-inv F
  0.500000  0.000000  0.500000    0.00057870  28 t-inv F
 -0.083333 -0.083333 -0.083333    0.00057870  29 t-inv F
 -0.083333  0.083333  0.083333    0.00057870  29 t-inv F
  0.083333 -0.083333 -0.083333    0.00057870  29 t-inv F
 -0.083333 -0.083333  0.083333    0.00057870  29 t-inv F
  0.083333  0.083333 -0.083333    0.00057870  29 t-inv F
  0.083333 -0.083333  0.083333    0.00057870  29 t-inv F
 -0.083333  0.083333 -0.083333    0.00057870  29 t-inv F
 -0.166667 -0.083333 -0.083333    0.00057870  30 t-inv F
  0.083333  0.166667  0.083333    0.00057870  30 t-inv F
 -0.083333 -0.166667 -0.083333    0.00057870  30 t-inv F
  0.083333  0.083333  0.166667    0.00057870  30 t-inv F
 -0.083333 -0.083333 -0.166667    0.00057870  30 t-inv F
 -0.083333  0.166667  0.083333    0.00057870  30 t-inv F
  0.083333 -0.166667 -0.083333    0.00057870  30 t-inv F
 -0.166667  0.083333  0.083333    0.00057870  30 t-inv F
  0.166667 -0.083333 -0.083333    0.00057870  30 t-inv F
 -0.083333  0.083333  0.166667    0.00057870  30 t-inv F
  0.083333 -0.083333 -0.166667    0.00057870  30 t-inv F
 -0.166667 -0.083333  0.083333    0.00057870  30 t-inv F
  0.166667  0.083333 -0.083333    0.00057870  30 t-inv F
 -0.083333 -0.166667  0.083333    0.00057870  30 t-inv F
  0.083333  0.166667 -0.083333    0.00057870  30 t-inv F
 -0.083333 -0.083333  0.166667    0.00057870  30 t-inv F
  0.083333  0.083333 -0.166667    0.00057870  30 t-inv F
  0.083333 -0.166667  0.083333    0.00057870  30 t-inv F
 -0.083333  0.166667 -0.083333    0.00057870  30 t-inv F
  0.166667 -0.083333  0.083333    0.00057870  30 t-inv F
 -0.166667  0.083333 -0.083333    0.00057870  30 t-inv F
  0.083333 -0.083333  0.166667    0.00057870  30 t-inv F
 -0.083333  0.083333 -0.166667    0.00057870  30 t-inv F
 -0.250000 -0.083333 -0.083333    0.00057870  31 t-inv F
  0.083333  0.250000  0.083333    0.00057870  31 t-inv F
 -0.083333 -0.250000 -0.083333    0.00057870  31 t-inv F
  0.083333  0.083333  0.250000    0.00057870  31 t-inv F
 -0.083333 -0.083333 -0.250000    0.00057870  31 t-inv F
 -0.083333  0.250000  0.083333    0.00057870  31 t-inv F
  0.083333 -0.250000 -0.083333    0.00057870  31 t-inv F
 -0.250000  0.083333  0.083333    0.00057870  31 t-inv F
  0.250000 -0.083333 -0.083333    0.00057870  31 t-inv F
 -0.083333  0.083333  0.250000    0.00057870  31 t-inv F
  0.083333 -0.083333 -0.250000    0.00057870  31 t-inv F
 -0.250000 -0.083333  0.083333    0.00057870  31 t-inv F
  0.250000  0.083333 -0.083333    0.00057870  31 t-inv F
 -0.083333 -0.250000  0.083333    0.00057870  31 t-inv F
  0.083333  0.250000 -0.083333    0.00057870  31 t-inv F
 -0.083333 -0.083333  0.250000    0.00057870  31 t-inv F
  0.083333  0.083333 -0.250000    0.00057870  31 t-inv F
  0.083333 -0.250000  0.083333    0.00057870  31 t-inv F
 -0.083333  0.250000 -0.083333    0.00057870  31 t-inv F
  0.250000 -0.083333  0.083333    0.00057870  31 t-inv F
 -0.250000  0.083333 -0.083333    0.00057870  31 t-inv F
  0.083333 -0.083333  0.250000    0.00057870  31 t-inv F
 -0.083333  0.083333 -0.250000    0.00057870  31 t-inv F
 -0.333333 -0.083333 -0.083333    0.00057870  32 t-inv F
  0.083333  0.333333  0.083333    0.00057870  32 t-inv F
 -0.083333 -0.333333 -0.083333    0.00057870  32 t-inv F
  0.083333  0.083333  0.333333    0.00057870  32 t-inv F
 -0.083333 -0.083333 -0.333333    0.00057870  32 t-inv F
 -0.083333  0.333333  0.083333    0.00057870  32 t-inv F
  0.083333 -0.333333 -0.083333    0.00057870  32 t-inv F
 -0.333333  0.083333  0.083333    0.00057870  32 t-inv F
  0.333333 -0.083333 -0.083333    0.00057870  32 t-inv F
 -0.083333  0.083333  0.333333    0.00057870  32 t-inv F
  0.083333 -0.083333 -0.333333    0.00057870  32 t-inv F
 -0.333333 -0.083333  0.083333    0.00057870  32 t-inv F
  0.333333  0.083333 -0.083333    0.00057870  32 t-inv F
 -0.083333 -0.333333  0.083333    0.00057870  32 t-inv F
  0.083333  0.333333 -0.083333    0.00057870  32 t-inv F
 -0.083333 -0.083333  0.333333    0.00057870  32 t-inv F
  0.083333  0.083333 -0.333333    0.00057870  32 t-inv F
  0.083333 -0.333333  0.083333    0.00057870  32 t-inv F
 -0.083333  0.333333 -0.083333    0.00057870  32 t-inv F
  0.333333 -0.083333  0.083333    0.00057870  32 t-inv F
 -0.333333  0.083333 -0.083333    0.00057870  32 t-inv F
  0.083333 -0.083333  0.333333    0.00057870  32 t-inv F
 -0.083333  0.083333 -0.333333    0.00057870  32 t-inv F
 -0.416667 -0.083333 -0.083333    0.00057870  33 t-inv F
  0.083333  0.416667  0.083333    0.00057870  33 t-inv F
 -0.083333 -0.416667 -0.083333    0.00057870  33 t-inv F
  0.083333  0.083333  0.416667    0.00057870  33 t-inv F
 -0.083333 -0.083333 -0.416667    0.00057870  33 t-inv F
 -0.083333  0.416667  0.083333    0.00057870  33 t-inv F
  0.083333 -0.416667 -0.083333    0.00057870  33 t-inv F
 -0.416667  0.083333  0.083333    0.00057870  33 t-inv F
  0.416667 -0.083333 -0.083333    0.00057870  33 t-inv F
 -0.083333  0.083333  0.416667    0.00057870  33 t-inv F
  0.083333 -0.083333 -0.416667    0.00057870  33 t-inv F
 -0.416667 -0.083333  0.083333    0.00057870  33 t-inv F
  0.416667  0.083333 -0.083333    0.00057870  33 t-inv F
 -0.083333 -0.416667  0.083333    0.00057870  33 t-inv F
  0.083333  0.416667 -0.083333    0.00057870  33 t-inv F
 -0.083333 -0.083333  0.416667    0.00057870  33 t-inv F
  0.083333  0.083333 -0.416667    0.00057870  33 t-inv F
  0.083333 -0.416667  0.083333    0.00057870  33 t-inv F
 -0.083333  0.416667 -0.083333    0.00057870  33 t-inv F
  0.416667 -0.083333  0.083333    0.00057870  33 t-inv F
 -0.416667  0.083333 -0.083333    0.00057870  33 t-inv F
  0.083333 -0.083333  0.416667    0.00057870  33 t-inv F
 -0.083333  0.083333 -0.416667    0.00057870  33 t-inv F
 -0.500000 -0.083333 -0.083333    0.00057870  34 t-inv F
  0.083333  0.500000  0.083333    0.00057870  34 t-inv F
 -0.083333 -0.500000 -0.083333    0.00057870  34 t-inv F
  0.083333  0.083333  0.500000    0.00057870  34 t-inv F
 -0.083333 -0.083333 -0.500000    0.00057870  34 t-inv F
 -0.083333  0.500000  0.083333    0.00057870  34 t-inv F
  0.083333 -0.500000 -0.083333    0.00057870  34 t-inv F
 -0.083333  0.083333  0.500000    0.00057870  34 t-inv F
  0.083333 -0.083333 -0.500000    0.00057870  34 t-inv F
 -0.500000 -0.083333  0.083333    0.00057870  34 t-inv F
  0.500000  0.083333 -0.083333    0.00057870  34 t-inv F
 -0.166667 -0.166667 -0.083333    0.00057870  35 t-inv F
  0.083333  0.166667  0.166667    0.00057870  35 t-inv F
 -0.083333 -0.166667 -0.166667    0.00057870  35 t-inv F
  0.166667  0.083333  0.166667    0.00057870  35 t-inv F
 -0.166667 -0.083333 -0.166667    0.00057870  35 t-inv F
 -0.166667  0.166667  0.083333    0.00057870  35 t-inv F
  0.166667 -0.166667 -0.083333    0.00057870  35 t-inv F
 -0.166667  0.083333  0.166667    0.00057870  35 t-inv F
  0.166667 -0.083333 -0.166667    0.00057870  35 t-inv F
 -0.083333  0.166667  0.166667    0.00057870  35 t-inv F
  0.083333 -0.166667 -0.166667    0.00057870  35 t-inv F
 -0.166667 -0.166667  0.083333    0.00057870  35 t-inv F
  0.166667  0.166667 -0.083333    0.00057870  35 t-inv F
 -0.083333 -0.166667  0.166667    0.00057870  35 t-inv F
  0.083333  0.166667 -0.166667    0.00057870  35 t-inv F
 -0.166667 -0.083333  0.166667    0.00057870  35 t-inv F
  0.166667  0.083333 -0.166667    0.00057870  35 t-inv F
  0.166667 -0.166667  0.083333    0.00057870  35 t-inv F
 -0.166667  0.166667 -0.083333    0.00057870  35 t-inv F
  0.166667 -0.083333  0.166667    0.00057870  35 t-inv F
 -0.166667  0.083333 -0.166667    0.00057870  35 t-inv F
  0.083333 -0.166667  0.166667    0.00057870  35 t-inv F
 -0.083333  0.166667 -0.166667    0.00057870  35 t-inv F
 -0.250000 -0.166667 -0.083333    0.00057870  36 t-inv F
  0.083333  0.250000  0.166667    0.00057870  36 t-inv F
 -0.083333 -0.250000 -0.166667    0.00057870  36 t-inv F
  0.166667  0.083333  0.250000    0.00057870  36 t-inv F
 -0.166667 -0.083333 -0.250000    0.00057870  36 t-inv F
 -0.166667  0.250000  0.083333    0.00057870  36 t-inv F
  0.166667 -0.250000 -0.083333    0.00057870  36 t-inv F
 -0.250000  0.083333  0.166667    0.00057870  36 t-inv F
  0.250000 -0.083333 -0.166667    0.00057870  36 t-inv F
 -0.083333  0.166667  0.250000    0.00057870  36 t-inv F
  0.083333 -0.166667 -0.250000    0.00057870  36 t-inv F
 -0.250000 -0.166667  0.083333    0.00057870  36 t-inv F
  0.250000  0.166667 -0.083333    0.00057870  36 t-inv F
 -0.083333 -0.250000  0.166667    0.00057870  36 t-inv F
  0.083333  0.250000 -0.166667    0.00057870  36 t-inv F
 -0.166667 -0.083333  0.250000    0.00057870  36 t-inv F
  0.166667  0.083333 -0.250000    0.00057870  36 t-inv F
  0.166667 -0.250000  0.083333    0.00057870  36 t-inv F
 -0.166667  0.250000 -0.083333    0.00057870  36 t-inv F
  0.250000 -0.083333  0.166667    0.00057870  36 t-inv F
 -0.250000  0.083333 -0.166667    0.00057870  36 t-inv F
  0.083333 -0.166667  0.250000    0.00057870  36 t-inv F
 -0.083333  0.166667 -0.250000    0.00057870  36 t-inv F
  0.083333 -0.250000 -0.166667    0.00057870  36 t-inv F
 -0.083333  0.250000  0.166667    0.00057870  36 t-inv F
  0.166667 -0.083333 -0.250000    0.00057870  36 t-inv F
 -0.166667  0.083333  0.250000    0.00057870  36 t-inv F
  0.250000 -0.166667 -0.083333    0.00057870  36 t-inv F
 -0.250000  0.166667  0.083333    0.00057870  36 t-inv F
  0.083333  0.166667 -0.250000    0.00057870  36 t-inv F
 -0.083333 -0.166667  0.250000    0.00057870  36 t-inv F
  0.166667  0.250000 -0.083333    0.00057870  36 t-inv F
 -0.166667 -0.250000  0.083333    0.00057870  36 t-inv F
  0.250000  0.083333 -0.166667    0.00057870  36 t-inv F
 -0.250000 -0.083333  0.166667    0.00057870  36 t-inv F
 -0.166667  0.083333 -0.250000    0.00057870  36 t-inv F
  0.166667 -0.083333  0.250000    0.00057870  36 t-inv F
 -0.250000  0.166667 -0.083333    0.00057870  36 t-inv F
  0.250000 -0.166667  0.083333    0.00057870  36 t-inv F
 -0.083333  0.250000 -0.166667    0.00057870  36 t-inv F
  0.083333 -0.250000  0.166667    0.00057870  36 t-inv F
 -0.250000 -0.083333 -0.166667    0.00057870  36 t-inv F
  0.250000  0.083333  0.166667    0.00057870  36 t-inv F
 -0.166667 -0.250000 -0.083333    0.00057870  36 t-inv F
  0.166667  0.250000  0.083333    0.00057870  36 t-inv F
 -0.083333 -0.166667 -0.250000    0.00057870  36 t-inv F
  0.083333  0.166667  0.250000    0.00057870  36 t-inv F
 -0.333333 -0.166667 -0.083333    0.00057870  37 t-inv F
  0.083333  0.333333  0.166667    0.00057870  37 t-inv F
 -0.083333 -0.333333 -0.166667    0.00057870  37 t-inv F
  0.166667  0.083333  0.333333    0.00057870  37 t-inv F
 -0.166667 -0.083333 -0.333333    0.00057870  37 t-inv F
 -0.166667  0.333333  0.083333    0.00057870  37 t-inv F
  0.166667 -0.333333 -0.083333    0.00057870  37 t-inv F
 -0.333333  0.083333  0.166667    0.00057870  37 t-inv F
  0.333333 -0.083333 -0.166667    0.00057870  37 t-inv F
 -0.083333  0.166667  0.333333    0.00057870  37 t-inv F
  0.083333 -0.166667 -0.333333    0.00057870  37 t-inv F
 -0.333333 -0.166667  0.083333    0.00057870  37 t-inv F
  0.333333  0.166667 -0.083333    0.00057870  37 t-inv F
 -0.083333 -0.333333  0.166667    0.00057870  37 t-inv F
  0.083333  0.333333 -0.166667    0.00057870  37 t-inv F
 -0.166667 -0.083333  0.333333    0.00057870  37 t-inv F
  0.166667  0.083333 -0.333333    0.00057870  37 t-inv F
  0.166667 -0.333333  0.083333    0.00057870  37 t-inv F
 -0.166667  0.333333 -0.083333    0.00057870  37 t-inv F
  0.333333 -0.083333  0.166667    0.00057870  37 t-inv F
 -0.333333  0.083333 -0.166667    0.00057870  37 t-inv F
  0.083333 -0.166667  0.333333    0.00057870  37 t-inv F
 -0.083333  0.166667 -0.333333    0.00057870  37 t-inv F
  0.083333 -0.333333 -0.166667    0.00057870  37 t-inv F
 -0.083333  0.333333  0.166667    0.00057870  37 t-inv F
  0.166667 -0.083333 -0.333333    0.00057870  37 t-inv F
 -0.166667  0.083333  0.333333    0.00057870  37 t-inv F
  0.333333 -0.166667 -0.083333    0.00057870  37 t-inv F
 -0.333333  0.166667  0.083333    0.00057870  37 t-inv F
  0.083333  0.166667 -0.333333    0.00057870  37 t-inv F
 -0.083333 -0.166667  0.333333    0.00057870  37 t-inv F
  0.166667  0.333333 -0.083333    0.00057870  37 t-inv F
 -0.166667 -0.333333  0.083333    0.00057870  37 t-inv F
  0.333333  0.083333 -0.166667    0.00057870  37 t-inv F
 -0.333333 -0.083333  0.166667    0.00057870  37 t-inv F
 -0.166667  0.083333 -0.333333    0.00057870  37 t-inv F
  0.166667 -0.083333  0.333333    0.00057870  37 t-inv F
 -0.333333  0.166667 -0.083333    0.00057870  37 t-inv F
  0.333333 -0.166667  0.083333    0.00057870  37 t-inv F
 -0.083333  0.333333 -0.166667    0.00057870  37 t-inv F
  0.083333 -0.333333  0.166667    0.00057870  37 t-inv F
 -0.333333 -0.083333 -0.166667    0.00057870  37 t-inv F
  0.333333  0.083333  0.166667    0.00057870  37 t-inv F
 -0.166667 -0.333333 -0.083333    0.00057870  37 t-inv F
  0.166667  0.333333  0.083333    0.00057870  37 t-inv F
 -0.083333 -0.166667 -0.333333    0.00057870  37 t-inv F
  0.083333  0.166667  0.333333    0.00057870  37 t-inv F
 -0.416667 -0.166667 -0.083333    0.00057870  38 t-inv F
  0.083333  0.416667  0.166667    0.00057870  38 t-inv F
 -0.083333 -0.416667 -0.166667    0.00057870  38 t-inv F
  0.166667  0.083333  0.416667    0.00057870  38 t-inv F
 -0.166667 -0.083333 -0.416667    0.00057870  38 t-inv F
 -0.166667  0.416667  0.083333    0.00057870  38 t-inv F
  0.166667 -0.416667 -0.083333    0.00057870  38 t-inv F
 -0.416667  0.083333  0.166667    0.00057870  38 t-inv F
  0.416667 -0.083333 -0.166667    0.00057870  38 t-inv F
 -0.083333  0.166667  0.416667    0.00057870  38 t-inv F
  0.083333 -0.166667 -0.416667    0.00057870  38 t-inv F
 -0.416667 -0.166667  0.083333    0.00057870  38 t-inv F
  0.416667  0.166667 -0.083333    0.00057870  38 t-inv F
 -0.083333 -0.416667  0.166667    0.00057870  38 t-inv F
  0.083333  0.416667 -0.166667    0.00057870  38 t-inv F
 -0.166667 -0.083333  0.416667    0.00057870  38 t-inv F
  0.166667  0.083333 -0.416667    0.00057870  38 t-inv F
  0.166667 -0.416667  0.083333    0.00057870  38 t-inv F
 -0.166667  0.416667 -0.083333    0.00057870  38 t-inv F
  0.416667 -0.083333  0.166667    0.00057870  38 t-inv F
 -0.416667  0.083333 -0.166667    0.00057870  38 t-inv F
  0.083333 -0.166667  0.416667    0.00057870  38 t-inv F
 -0.083333  0.166667 -0.416667    0.00057870  38 t-inv F
  0.083333 -0.416667 -0.166667    0.00057870  38 t-inv F
 -0.083333  0.416667  0.166667    0.00057870  38 t-inv F
  0.166667 -0.083333 -0.416667    0.00057870  38 t-inv F
 -0.166667  0.083333  0.416667    0.00057870  38 t-inv F
  0.416667 -0.166667 -0.083333    0.00057870  38 t-inv F
 -0.416667  0.166667  0.083333    0.00057870  38 t-inv F
  0.083333  0.166667 -0.416667    0.00057870  38 t-inv F
 -0.083333 -0.166667  0.416667    0.00057870  38 t-inv F
  0.166667  0.416667 -0.083333    0.00057870  38 t-inv F
 -0.166667 -0.416667  0.083333    0.00057870  38 t-inv F
  0.416667  0.083333 -0.166667    0.00057870  38 t-inv F
 -0.416667 -0.083333  0.166667    0.00057870  38 t-inv F
 -0.166667  0.083333 -0.416667    0.00057870  38 t-inv F
  0.166667 -0.083333  0.416667    0.00057870  38 t-inv F
 -0.416667  0.166667 -0.083333    0.00057870  38 t-inv F
  0.416667 -0.166667  0.083333    0.00057870  38 t-inv F
 -0.083333  0.416667 -0.166667    0.00057870  38 t-inv F
  0.083333 -0.416667  0.166667    0.00057870  38 t-inv F
 -0.416667 -0.083333 -0.166667    0.00057870  38 t-inv F
  0.416667  0.083333  0.166667    0.00057870  38 t-inv F
 -0.166667 -0.416667 -0.083333    0.00057870  38 t-inv F
  0.166667  0.416667  0.083333    0.00057870  38 t-inv F
 -0.083333 -0.166667 -0.416667    0.00057870  38 t-inv F
  0.083333  0.166667  0.416667    0.00057870  38 t-inv F
 -0.500000 -0.166667 -0.083333    0.00057870  39 t-inv F
  0.083333  0.500000  0.166667    0.00057870  39 t-inv F
 -0.083333 -0.500000 -0.166667    0.00057870  39 t-inv F
  0.166667  0.083333  0.500000    0.00057870  39 t-inv F
 -0.166667 -0.083333 -0.500000    0.00057870  39 t-inv F
 -0.166667  0.500000  0.083333    0.00057870  39 t-inv F
  0.166667 -0.500000 -0.083333    0.00057870  39 t-inv F
 -0.500000  0.083333  0.166667    0.00057870  39 t-inv F
  0.500000 -0.083333 -0.166667    0.00057870  39 t-inv F
 -0.083333  0.166667  0.500000    0.00057870  39 t-inv F
  0.083333 -0.166667 -0.500000    0.00057870  39 t-inv F
 -0.500000 -0.166667  0.083333    0.00057870  39 t-inv F
  0.500000  0.166667 -0.083333    0.00057870  39 t-inv F
 -0.083333 -0.500000  0.166667    0.00057870  39 t-inv F
  0.083333  0.500000 -0.166667    0.00057870  39 t-inv F
  0.166667 -0.500000  0.083333    0.00057870  39 t-inv F
 -0.166667  0.500000 -0.083333    0.00057870  39 t-inv F
  0.500000 -0.083333  0.166667    0.00057870  39 t-inv F
 -0.500000  0.083333 -0.166667    0.00057870  39 t-inv F
  0.166667 -0.083333 -0.500000    0.00057870  39 t-inv F
 -0.166667  0.083333  0.500000    0.00057870  39 t-inv F
  0.083333  0.166667 -0.500000    0.00057870  39 t-inv F
 -0.083333 -0.166667  0.500000    0.00057870  39 t-inv F
 -0.250000 -0.250000 -0.083333    0.00057870  40 t-inv F
  0.083333  0.250000  0.250000    0.00057870  40 t-inv F
 -0.083333 -0.250000 -0.250000    0.00057870  40 t-inv F
  0.250000  0.083333  0.250000    0.00057870  40 t-inv F
 -0.250000 -0.083333 -0.250000    0.00057870  40 t-inv F
 -0.250000  0.250000  0.083333    0.00057870  40 t-inv F
  0.250000 -0.250000 -0.083333    0.00057870  40 t-inv F
 -0.250000  0.083333  0.250000    0.00057870  40 t-inv F
  0.250000 -0.083333 -0.250000    0.00057870  40 t-inv F
 -0.083333  0.250000  0.250000    0.00057870  40 t-inv F
  0.083333 -0.250000 -0.250000    0.00057870  40 t-inv F
 -0.250000 -0.250000  0.083333    0.00057870  40 t-inv F
  0.250000  0.250000 -0.083333    0.00057870  40 t-inv F
 -0.083333 -0.250000  0.250000    0.00057870  40 t-inv F
  0.083333  0.250000 -0.250000    0.00057870  40 t-inv F
 -0.250000 -0.083333  0.250000    0.00057870  40 t-inv F
  0.250000  0.083333 -0.250000    0.00057870  40 t-inv F
  0.250000 -0.250000  0.083333    0.00057870  40 t-inv F
 -0.250000  0.250000 -0.083333    0.00057870  40 t-inv F
  0.250000 -0.083333  0.250000    0.00057870  40 t-inv F
 -0.250000  0.083333 -0.250000    0.00057870  40 t-inv F
  0.083333 -0.250000  0.250000    0.00057870  40 t-inv F
 -0.083333  0.250000 -0.250000    0.00057870  40 t-inv F
 -0.333333 -0.250000 -0.083333    0.00057870  41 t-inv F
  0.083333  0.333333  0.250000    0.00057870  41 t-inv F
 -0.083333 -0.333333 -0.250000    0.00057870  41 t-inv F
  0.250000  0.083333  0.333333    0.00057870  41 t-inv F
 -0.250000 -0.083333 -0.333333    0.00057870  41 t-inv F
 -0.250000  0.333333  0.083333    0.00057870  41 t-inv F
  0.250000 -0.333333 -0.083333    0.00057870  41 t-inv F
 -0.333333  0.083333  0.250000    0.00057870  41 t-inv F
  0.333333 -0.083333 -0.250000    0.00057870  41 t-inv F
 -0.083333  0.250000  0.333333    0.00057870  41 t-inv F
  0.083333 -0.250000 -0.333333    0.00057870  41 t-inv F
 -0.333333 -0.250000  0.083333    0.00057870  41 t-inv F
  0.333333  0.250000 -0.083333    0.00057870  41 t-inv F
 -0.083333 -0.333333  0.250000    0.00057870  41 t-inv F
  0.083333  0.333333 -0.250000    0.00057870  41 t-inv F
 -0.250000 -0.083333  0.333333    0.00057870  41 t-inv F
  0.250000  0.083333 -0.333333    0.00057870  41 t-inv F
  0.250000 -0.333333  0.083333    0.00057870  41 t-inv F
 -0.250000  0.333333 -0.083333    0.00057870  41 t-inv F
  0.333333 -0.083333  0.250000    0.00057870  41 t-inv F
 -0.333333  0.083333 -0.250000    0.00057870  41 t-inv F
  0.083333 -0.250000  0.333333    0.00057870  41 t-inv F
 -0.083333  0.250000 -0.333333    0.00057870  41 t-inv F
  0.083333 -0.333333 -0.250000    0.00057870  41 t-inv F
 -0.083333  0.333333  0.250000    0.00057870  41 t-inv F
  0.250000 -0.083333 -0.333333    0.00057870  41 t-inv F
 -0.250000  0.083333  0.333333    0.00057870  41 t-inv F
  0.333333 -0.250000 -0.083333    0.00057870  41 t-inv F
 -0.333333  0.250000  0.083333    0.00057870  41 t-inv F
  0.083333  0.250000 -0.333333    0.00057870  41 t-inv F
 -0.083333 -0.250000  0.333333    0.00057870  41 t-inv F
  0.250000  0.333333 -0.083333    0.00057870  41 t-inv F
 -0.250000 -0.333333  0.083333    0.00057870  41 t-inv F
  0.333333  0.083333 -0.250000    0.00057870  41 t-inv F
 -0.333333 -0.083333  0.250000    0.00057870  41 t-inv F
 -0.250000  0.083333 -0.333333    0.00057870  41 t-inv F
  0.250000 -0.083333  0.333333    0.00057870  41 t-inv F
 -0.333333  0.250000 -0.083333    0.00057870  41 t-inv F
  0.333333 -0.250000  0.083333    0.00057870  41 t-inv F
 -0.083333  0.333333 -0.250000    0.00057870  41 t-inv F
  0.083333 -0.333333  0.250000    0.00057870  41 t-inv F
 -0.333333 -0.083333 -0.250000    0.00057870  41 t-inv F
  0.333333  0.083333  0.250000    0.00057870  41 t-inv F
 -0.250000 -0.333333 -0.083333    0.00057870  41 t-inv F
  0.250000  0.333333  0.083333    0.00057870  41 t-inv F
 -0.083333 -0.250000 -0.333333    0.00057870  41 t-inv F
  0.083333  0.250000  0.333333    0.00057870  41 t-inv F
 -0.416667 -0.250000 -0.083333    0.00057870  42 t-inv F
  0.083333  0.416667  0.250000    0.00057870  42 t-inv F
 -0.083333 -0.416667 -0.250000    0.00057870  42 t-inv F
  0.250000  0.083333  0.416667    0.00057870  42 t-inv F
 -0.250000 -0.083333 -0.416667    0.00057870  42 t-inv F
 -0.250000  0.416667  0.083333    0.00057870  42 t-inv F
  0.250000 -0.416667 -0.083333    0.00057870  42 t-inv F
 -0.416667  0.083333  0.250000    0.00057870  42 t-inv F
  0.416667 -0.083333 -0.250000    0.00057870  42 t-inv F
 -0.083333  0.250000  0.416667    0.00057870  42 t-inv F
  0.083333 -0.250000 -0.416667    0.00057870  42 t-inv F
 -0.416667 -0.250000  0.083333    0.00057870  42 t-inv F
  0.416667  0.250000 -0.083333    0.00057870  42 t-inv F
 -0.083333 -0.416667  0.250000    0.00057870  42 t-inv F
  0.083333  0.416667 -0.250000    0.00057870  42 t-inv F
 -0.250000 -0.083333  0.416667    0.00057870  42 t-inv F
  0.250000  0.083333 -0.416667    0.00057870  42 t-inv F
  0.250000 -0.416667  0.083333    0.00057870  42 t-inv F
 -0.250000  0.416667 -0.083333    0.00057870  42 t-inv F
  0.416667 -0.083333  0.250000    0.00057870  42 t-inv F
 -0.416667  0.083333 -0.250000    0.00057870  42 t-inv F
  0.083333 -0.250000  0.416667    0.00057870  42 t-inv F
 -0.083333  0.250000 -0.416667    0.00057870  42 t-inv F
  0.083333 -0.416667 -0.250000    0.00057870  42 t-inv F
 -0.083333  0.416667  0.250000    0.00057870  42 t-inv F
  0.250000 -0.083333 -0.416667    0.00057870  42 t-inv F
 -0.250000  0.083333  0.416667    0.00057870  42 t-inv F
  0.416667 -0.250000 -0.083333    0.00057870  42 t-inv F
 -0.416667  0.250000  0.083333    0.00057870  42 t-inv F
  0.083333  0.250000 -0.416667    0.00057870  42 t-inv F
 -0.083333 -0.250000  0.416667    0.00057870  42 t-inv F
  0.250000  0.416667 -0.083333    0.00057870  42 t-inv F
 -0.250000 -0.416667  0.083333    0.00057870  42 t-inv F
  0.416667  0.083333 -0.250000    0.00057870  42 t-inv F
 -0.416667 -0.083333  0.250000    0.00057870  42 t-inv F
 -0.250000  0.083333 -0.416667    0.00057870  42 t-inv F
  0.250000 -0.083333  0.416667    0.00057870  42 t-inv F
 -0.416667  0.250000 -0.083333    0.00057870  42 t-inv F
  0.416667 -0.250000  0.083333    0.00057870  42 t-inv F
 -0.083333  0.416667 -0.250000    0.00057870  42 t-inv F
  0.083333 -0.416667  0.250000    0.00057870  42 t-inv F
 -0.416667 -0.083333 -0.250000    0.00057870  42 t-inv F
  0.416667  0.083333  0.250000    0.00057870  42 t-inv F
 -0.250000 -0.416667 -0.083333    0.00057870  42 t-inv F
  0.250000  0.416667  0.083333    0.00057870  42 t-inv F
 -0.083333 -0.250000 -0.416667    0.00057870  42 t-inv F
  0.083333  0.250000  0.416667    0.00057870  42 t-inv F
 -0.500000 -0.250000 -0.083333    0.00057870  43 t-inv F
  0.083333  0.500000  0.250000    0.00057870  43 t-inv F
 -0.083333 -0.500000 -0.250000    0.00057870  43 t-inv F
  0.250000  0.083333  0.500000    0.00057870  43 t-inv F
 -0.250000 -0.083333 -0.500000    0.00057870  43 t-inv F
 -0.250000  0.500000  0.083333    0.00057870  43 t-inv F
  0.250000 -0.500000 -0.083333    0.00057870  43 t-inv F
 -0.500000  0.083333  0.250000    0.00057870  43 t-inv F
  0.500000 -0.083333 -0.250000    0.00057870  43 t-inv F
 -0.083333  0.250000  0.500000    0.00057870  43 t-inv F
  0.083333 -0.250000 -0.500000    0.00057870  43 t-inv F
 -0.500000 -0.250000  0.083333    0.00057870  43 t-inv F
  0.500000  0.250000 -0.083333    0.00057870  43 t-inv F
 -0.083333 -0.500000  0.250000    0.00057870  43 t-inv F
  0.083333  0.500000 -0.250000    0.00057870  43 t-inv F
  0.250000 -0.500000  0.083333    0.00057870  43 t-inv F
 -0.250000  0.500000 -0.083333    0.00057870  43 t-inv F
  0.500000 -0.083333  0.250000    0.00057870  43 t-inv F
 -0.500000  0.083333 -0.250000    0.00057870  43 t-inv F
  0.250000 -0.083333 -0.500000    0.00057870  43 t-inv F
 -0.250000  0.083333  0.500000    0.00057870  43 t-inv F
  0.083333  0.250000 -0.500000    0.00057870  43 t-inv F
 -0.083333 -0.250000  0.500000    0.00057870  43 t-inv F
 -0.333333 -0.333333 -0.083333    0.00057870  44 t-inv F
  0.083333  0.333333  0.333333    0.00057870  44 t-inv F
 -0.083333 -0.333333 -0.333333    0.00057870  44 t-inv F
  0.333333  0.083333  0.333333    0.00057870  44 t-inv F
 -0.333333 -0.083333 -0.333333    0.00057870  44 t-inv F
 -0.333333  0.333333  0.083333    0.00057870  44 t-inv F
  0.333333 -0.333333 -0.083333    0.00057870  44 t-inv F
 -0.333333  0.083333  0.333333    0.00057870  44 t-inv F
  0.333333 -0.083333 -0.333333    0.00057870  44 t-inv F
 -0.083333  0.333333  0.333333    0.00057870  44 t-inv F
  0.083333 -0.333333 -0.333333    0.00057870  44 t-inv F
 -0.333333 -0.333333  0.083333    0.00057870  44 t-inv F
  0.333333  0.333333 -0.083333    0.00057870  44 t-inv F
 -0.083333 -0.333333  0.333333    0.00057870  44 t-inv F
  0.083333  0.333333 -0.333333    0.00057870  44 t-inv F
 -0.333333 -0.083333  0.333333    0.00057870  44 t-inv F
  0.333333  0.083333 -0.333333    0.00057870  44 t-inv F
  0.333333 -0.333333  0.083333    0.00057870  44 t-inv F
 -0.333333  0.333333 -0.083333    0.00057870  44 t-inv F
  0.333333 -0.083333  0.333333    0.00057870  44 t-inv F
 -0.333333  0.083333 -0.333333    0.00057870  44 t-inv F
  0.083333 -0.333333  0.333333    0.00057870  44 t-inv F
 -0.083333  0.333333 -0.333333    0.00057870  44 t-inv F
 -0.416667 -0.333333 -0.083333    0.00057870  45 t-inv F
  0.083333  0.416667  0.333333    0.00057870  45 t-inv F
 -0.083333 -0.416667 -0.333333    0.00057870  45 t-inv F
  0.333333  0.083333  0.416667    0.00057870  45 t-inv F
 -0.333333 -0.083333 -0.416667    0.00057870  45 t-inv F
 -0.333333  0.416667  0.083333    0.00057870  45 t-inv F
  0.333333 -0.416667 -0.083333    0.00057870  45 t-inv F
 -0.416667  0.083333  0.333333    0.00057870  45 t-inv F
  0.416667 -0.083333 -0.333333    0.00057870  45 t-inv F
 -0.083333  0.333333  0.416667    0.00057870  45 t-inv F
  0.083333 -0.333333 -0.416667    0.00057870  45 t-inv F
 -0.416667 -0.333333  0.083333    0.00057870  45 t-inv F
  0.416667  0.333333 -0.083333    0.00057870  45 t-inv F
 -0.083333 -0.416667  0.333333    0.00057870  45 t-inv F
  0.083333  0.416667 -0.333333    0.00057870  45 t-inv F
 -0.333333 -0.083333  0.416667    0.00057870  45 t-inv F
  0.333333  0.083333 -0.416667    0.00057870  45 t-inv F
  0.333333 -0.416667  0.083333    0.00057870  45 t-inv F
 -0.333333  0.416667 -0.083333    0.00057870  45 t-inv F
  0.416667 -0.083333  0.333333    0.00057870  45 t-inv F
 -0.416667  0.083333 -0.333333    0.00057870  45 t-inv F
  0.083333 -0.333333  0.416667    0.00057870  45 t-inv F
 -0.083333  0.333333 -0.416667    0.00057870  45 t-inv F
  0.083333 -0.416667 -0.333333    0.00057870  45 t-inv F
 -0.083333  0.416667  0.333333    0.00057870  45 t-inv F
  0.333333 -0.083333 -0.416667    0.00057870  45 t-inv F
 -0.333333  0.083333  0.416667    0.00057870  45 t-inv F
  0.416667 -0.333333 -0.083333    0.00057870  45 t-inv F
 -0.416667  0.333333  0.083333    0.00057870  45 t-inv F
  0.083333  0.333333 -0.416667    0.00057870  45 t-inv F
 -0.083333 -0.333333  0.416667    0.00057870  45 t-inv F
  0.333333  0.416667 -0.083333    0.00057870  45 t-inv F
 -0.333333 -0.416667  0.083333    0.00057870  45 t-inv F
  0.416667  0.083333 -0.333333    0.00057870  45 t-inv F
 -0.416667 -0.083333  0.333333    0.00057870  45 t-inv F
 -0.333333  0.083333 -0.416667    0.00057870  45 t-inv F
  0.333333 -0.083333  0.416667    0.00057870  45 t-inv F
 -0.416667  0.333333 -0.083333    0.00057870  45 t-inv F
  0.416667 -0.333333  0.083333    0.00057870  45 t-inv F
 -0.083333  0.416667 -0.333333    0.00057870  45 t-inv F
  0.083333 -0.416667  0.333333    0.00057870  45 t-inv F
 -0.416667 -0.083333 -0.333333    0.00057870  45 t-inv F
  0.416667  0.083333  0.333333    0.00057870  45 t-inv F
 -0.333333 -0.416667 -0.083333    0.00057870  45 t-inv F
  0.333333  0.416667  0.083333    0.00057870  45 t-inv F
 -0.083333 -0.333333 -0.416667    0.00057870  45 t-inv F
  0.083333  0.333333  0.416667    0.00057870  45 t-inv F
 -0.500000 -0.333333 -0.083333    0.00057870  46 t-inv F
  0.083333  0.500000  0.333333    0.00057870  46 t-inv F
 -0.083333 -0.500000 -0.333333    0.00057870  46 t-inv F
  0.333333  0.083333  0.500000    0.00057870  46 t-inv F
 -0.333333 -0.083333 -0.500000    0.00057870  46 t-inv F
 -0.333333  0.500000  0.083333    0.00057870  46 t-inv F
  0.333333 -0.500000 -0.083333    0.00057870  46 t-inv F
 -0.500000  0.083333  0.333333    0.00057870  46 t-inv F
  0.500000 -0.083333 -0.333333    0.00057870  46 t-inv F
 -0.083333  0.333333  0.500000    0.00057870  46 t-inv F
  0.083333 -0.333333 -0.500000    0.00057870  46 t-inv F
 -0.500000 -0.333333  0.083333    0.00057870  46 t-inv F
  0.500000  0.333333 -0.083333    0.00057870  46 t-inv F
 -0.083333 -0.500000  0.333333    0.00057870  46 t-inv F
  0.083333  0.500000 -0.333333    0.00057870  46 t-inv F
  0.333333 -0.500000  0.083333    0.00057870  46 t-inv F
 -0.333333  0.500000 -0.083333    0.00057870  46 t-inv F
  0.500000 -0.083333  0.333333    0.00057870  46 t-inv F
 -0.500000  0.083333 -0.333333    0.00057870  46 t-inv F
  0.333333 -0.083333 -0.500000    0.00057870  46 t-inv F
 -0.333333  0.083333  0.500000    0.00057870  46 t-inv F
  0.083333  0.333333 -0.500000    0.00057870  46 t-inv F
 -0.083333 -0.333333  0.500000    0.00057870  46 t-inv F
 -0.416667 -0.416667 -0.083333    0.00057870  47 t-inv F
  0.083333  0.416667  0.416667    0.00057870  47 t-inv F
 -0.083333 -0.416667 -0.416667    0.00057870  47 t-inv F
  0.416667  0.083333  0.416667    0.00057870  47 t-inv F
 -0.416667 -0.083333 -0.416667    0.00057870  47 t-inv F
 -0.416667  0.416667  0.083333    0.00057870  47 t-inv F
  0.416667 -0.416667 -0.083333    0.00057870  47 t-inv F
 -0.416667  0.083333  0.416667    0.00057870  47 t-inv F
  0.416667 -0.083333 -0.416667    0.00057870  47 t-inv F
 -0.083333  0.416667  0.416667    0.00057870  47 t-inv F
  0.083333 -0.416667 -0.416667    0.00057870  47 t-inv F
 -0.416667 -0.416667  0.083333    0.00057870  47 t-inv F
  0.416667  0.416667 -0.083333    0.00057870  47 t-inv F
 -0.083333 -0.416667  0.416667    0.00057870  47 t-inv F
  0.083333  0.416667 -0.416667    0.00057870  47 t-inv F
 -0.416667 -0.083333  0.416667    0.00057870  47 t-inv F
  0.416667  0.083333 -0.416667    0.00057870  47 t-inv F
  0.416667 -0.416667  0.083333    0.00057870  47 t-inv F
 -0.416667  0.416667 -0.083333    0.00057870  47 t-inv F
  0.416667 -0.083333  0.416667    0.00057870  47 t-inv F
 -0.416667  0.083333 -0.416667    0.00057870  47 t-inv F
  0.083333 -0.416667  0.416667    0.00057870  47 t-inv F
 -0.083333  0.416667 -0.416667    0.00057870  47 t-inv F
 -0.500000 -0.416667 -0.083333    0.00057870  48 t-inv F
  0.083333  0.500000  0.416667    0.00057870  48 t-inv F
 -0.083333 -0.500000 -0.416667    0.00057870  48 t-inv F
  0.416667  0.083333  0.500000    0.00057870  48 t-inv F
 -0.416667 -0.083333 -0.500000    0.00057870  48 t-inv F
 -0.416667  0.500000  0.083333    0.00057870  48 t-inv F
  0.416667 -0.500000 -0.083333    0.00057870  48 t-inv F
 -0.500000  0.083333  0.416667    0.00057870  48 t-inv F
  0.500000 -0.083333 -0.416667    0.00057870  48 t-inv F
 -0.083333  0.416667  0.500000    0.00057870  48 t-inv F
  0.083333 -0.416667 -0.500000    0.00057870  48 t-inv F
 -0.500000 -0.416667  0.083333    0.00057870  48 t-inv F
  0.500000  0.416667 -0.083333    0.00057870  48 t-inv F
 -0.083333 -0.500000  0.416667    0.00057870  48 t-inv F
  0.083333  0.500000 -0.416667    0.00057870  48 t-inv F
  0.416667 -0.500000  0.083333    0.00057870  48 t-inv F
 -0.416667  0.500000 -0.083333    0.00057870  48 t-inv F
  0.500000 -0.083333  0.416667    0.00057870  48 t-inv F
 -0.500000  0.083333 -0.416667    0.00057870  48 t-inv F
  0.416667 -0.083333 -0.500000    0.00057870  48 t-inv F
 -0.416667  0.083333  0.500000    0.00057870  48 t-inv F
  0.083333  0.416667 -0.500000    0.00057870  48 t-inv F
 -0.083333 -0.416667  0.500000    0.00057870  48 t-inv F
 -0.500000 -0.500000 -0.083333    0.00057870  49 t-inv F
  0.083333  0.500000  0.500000    0.00057870  49 t-inv F
 -0.083333 -0.500000 -0.500000    0.00057870  49 t-inv F
  0.500000  0.083333  0.500000    0.00057870  49 t-inv F
 -0.500000 -0.083333 -0.500000    0.00057870  49 t-inv F
 -0.166667 -0.166667 -0.166667    0.00057870  50 t-inv F
 -0.166667  0.166667  0.166667    0.00057870  50 t-inv F
  0.166667 -0.166667 -0.166667    0.00057870  50 t-inv F
 -0.166667 -0.166667  0.166667    0.00057870  50 t-inv F
[...]
      2       1.7396      2.00000
      3       1.8111      2.00000
      4       1.8111      2.00000
      5       2.9361      2.00000
      6       2.9361      2.00000
      7       3.0294      2.00000
      8       3.0294      2.00000
      9       3.1453      2.00000
     10       3.1453      2.00000
     11       3.2000      2.00000
     12       3.2000      2.00000
     13       4.2007      2.00000
     14       4.2007      2.00000
     15       4.3037      2.00000
     16       4.3037      2.00000
     17       4.6270      2.00000
     18       4.6270      2.00000
     19       4.6606      2.00000
     20       4.6606      2.00000
     21       6.6175      2.00000
     22       6.6175      2.00000
     23       8.0472      0.00000
     24       8.0472      0.00000
     25      11.2891      0.00000
     26      11.2891      0.00000
     27      12.5738      0.00000
     28      12.5738      0.00000
     29      21.9249      0.00000
     30      21.9249      0.00000
     31      22.6881      0.00000
     32      22.6881      0.00000
     33      23.1693      0.00000
     34      23.1693      0.00000
     35      24.0113      0.00000
     36      24.0113      0.00000
     37      24.5763      0.00000
     38      24.5763      0.00000
     39      25.1416      0.00000
     40      25.1416      0.00000
     41      30.0090      0.00000
     42      30.0090      0.00000
     43      30.2566      0.00000
     44      30.2566      0.00000
     45      30.4475      0.00000
     46      30.4475      0.00000
     47      31.2128      0.00000
     48      31.2128      0.00000

 k-point    80 :       0.5000    0.5000    0.3333
  band No.  band energies     occupation 
      1       1.7479      2.00000
      2       1.7479      2.00000
      3       1.7479      2.00000
      4       1.7479      2.00000
      5       3.0012      2.00000
      6       3.0012      2.00000
      7       3.0012      2.00000
      8       3.0012      2.00000
      9       3.1391      2.00000
     10       3.1391      2.00000
     11       3.1391      2.00000
     12       3.1391      2.00000
     13       4.3762      2.00000
     14       4.3762      2.00000
     15       4.3762      2.00000
     16       4.3762      2.00000
     17       4.5966      2.00000
     18       4.5966      2.00000
     19       4.5966      2.00000
     20       4.5966      2.00000
     21       7.2832      2.00000
     22       7.2832      2.00000
     23       7.2832      2.00000
     24       7.2832      2.00000
     25      11.8306      0.00000
     26      11.8306      0.00000
     27      11.8306      0.00000
     28      11.8306      0.00000
     29      22.3101      0.00000
     30      22.3101      0.00000
     31      22.3101      0.00000
     32      22.3101      0.00000
     33      23.8796      0.00000
     34      23.8796      0.00000
     35      23.8796      0.00000
     36      23.8796      0.00000
     37      24.9005      0.00000
     38      24.9005      0.00000
     39      24.9005      0.00000
     40      24.9005      0.00000
     41      30.1713      0.00000
     42      30.1713      0.00000
     43      30.1713      0.00000
     44      30.1713      0.00000
     45      30.4097      0.00000
     46      30.4097      0.00000
     47      30.4097      0.00000
     48      30.4097      0.00000

 k-point    81 :       0.4167    0.4167    0.4167
  band No.  band energies     occupation 
      1       1.6539      2.00000
      2       1.7297      2.00000
      3       1.7297      2.00000
      4       1.7297      2.00000
      5       2.9782      2.00000
      6       2.9782      2.00000
      7       2.9782      2.00000
      8       3.0773      2.00000
      9       3.0773      2.00000
     10       3.1403      2.00000
     11       3.1403      2.00000
     12       3.1403      2.00000
     13       4.3464      2.00000
     14       4.3464      2.00000
     15       4.3464      2.00000
     16       4.6207      2.00000
     17       4.6207      2.00000
     18       4.7226      2.00000
     19       4.7226      2.00000
     20       4.7226      2.00000
     21       6.2340      2.00000
     22       7.7317      0.94092
     23       7.7317      0.94092
     24       7.7317      0.94092
     25      11.2345      0.00000
     26      11.2345      0.00000
     27      11.2345      0.00000
     28      12.4922      0.00000
     29      22.5104      0.00000
     30      22.5104      0.00000
     31      22.5104      0.00000
     32      22.9652      0.00000
     33      24.0306      0.00000
     34      24.0306      0.00000
     35      24.0306      0.00000
     36      24.1366      0.00000
     37      24.1366      0.00000
     38      24.1366      0.00000
     39      25.2133      0.00000
     40      25.2133      0.00000
     41      29.7398      0.00000
     42      29.7398      0.00000
     43      30.4519      0.00000
     44      30.4519      0.00000
     45      30.4519      0.00000
     46      30.5298      0.00000
     47      30.5298      0.00000
     48      30.5298      0.00000

 k-point    82 :       0.5000    0.4167    0.4167
  band No.  band energies     occupation 
      1       1.6618      2.00000
      2       1.6618      2.00000
      3       1.6996      2.00000
      4       1.6996      2.00000
      5       2.9924      2.00000
      6       2.9924      2.00000
      7       3.0382      2.00000
      8       3.0382      2.00000
      9       3.0853      2.00000
     10       3.0853      2.00000
     11       3.1106      2.00000
     12       3.1106      2.00000
     13       4.4604      2.00000
     14       4.4604      2.00000
     15       4.5410      2.00000
     16       4.5410      2.00000
     17       4.7007      2.00000
     18       4.7007      2.00000
     19       4.7053      2.00000
     20       4.7053      2.00000
     21       6.9282      2.00000
     22       6.9282      2.00000
     23       7.8107      0.02099
     24       7.8107      0.02099
     25      10.9890      0.00000
     26      10.9890      0.00000
     27      11.7586      0.00000
     28      11.7586      0.00000
     29      22.5808      0.00000
     30      22.5808      0.00000
     31      22.8230      0.00000
     32      22.8230      0.00000
     33      23.9023      0.00000
     34      23.9023      0.00000
     35      24.6114      0.00000
     36      24.6114      0.00000
     37      24.6450      0.00000
     38      24.6450      0.00000
     39      24.9205      0.00000
     40      24.9205      0.00000
     41      29.8961      0.00000
     42      29.8961      0.00000
     43      30.0251      0.00000
     44      30.0251      0.00000
     45      30.0595      0.00000
     46      30.0595      0.00000
     47      30.5204      0.00000
     48      30.5204      0.00000

 k-point    83 :       0.5000    0.5000    0.4167
  band No.  band energies     occupation 
      1       1.6487      2.00000
      2       1.6487      2.00000
      3       1.6487      2.00000
      4       1.6487      2.00000
      5       3.0321      2.00000
      6       3.0321      2.00000
      7       3.0321      2.00000
      8       3.0321      2.00000
      9       3.0674      2.00000
     10       3.0674      2.00000
     11       3.0674      2.00000
     12       3.0674      2.00000
     13       4.6248      2.00000
     14       4.6248      2.00000
     15       4.6248      2.00000
     16       4.6248      2.00000
     17       4.6855      2.00000
     18       4.6855      2.00000
     19       4.6855      2.00000
     20       4.6855      2.00000
     21       7.3746      2.00000
     22       7.3746      2.00000
     23       7.3746      2.00000
     24       7.3746      2.00000
     25      11.1920      0.00000
     26      11.1920      0.00000
     27      11.1920      0.00000
     28      11.1920      0.00000
     29      22.7425      0.00000
     30      22.7425      0.00000
     31      22.7425      0.00000
     32      22.7425      0.00000
     33      24.5016      0.00000
     34      24.5016      0.00000
     35      24.5016      0.00000
     36      24.5016      0.00000
     37      24.9295      0.00000
     38      24.9295      0.00000
     39      24.9295      0.00000
     40      24.9295      0.00000
     41      29.8367      0.00000
     42      29.8367      0.00000
     43      29.8367      0.00000
     44      29.8367      0.00000
     45      30.0229      0.00000
     46      30.0229      0.00000
     47      30.0229      0.00000
     48      30.0229      0.00000

 k-point    84 :       0.5000    0.5000    0.5000
  band No.  band energies     occupation 
      1       1.6153      2.00000
      2       1.6153      2.00000
      3       1.6153      2.00000
      4       1.6153      2.00000
      5       3.0430      2.00000
      6       3.0430      2.00000
      7       3.0430      2.00000
      8       3.0430      2.00000
      9       3.0430      2.00000
     10       3.0430      2.00000
     11       3.0430      2.00000
     12       3.0430      2.00000
     13       4.7161      2.00000
     14       4.7161      2.00000
     15       4.7161      2.00000
     16       4.7161      2.00000
     17       4.7161      2.00000
     18       4.7161      2.00000
     19       4.7161      2.00000
     20       4.7161      2.00000
     21       7.4169      2.00000
     22       7.4169      2.00000
     23       7.4169      2.00000
     24       7.4169      2.00000
     25      10.9586      0.00000
     26      10.9586      0.00000
     27      10.9586      0.00000
     28      10.9586      0.00000
     29      22.7799      0.00000
     30      22.7799      0.00000
     31      22.7799      0.00000
     32      22.7799      0.00000
     33      24.9406      0.00000
     34      24.9406      0.00000
     35      24.9406      0.00000
     36      24.9406      0.00000
     37      24.9406      0.00000
     38      24.9406      0.00000
     39      24.9406      0.00000
     40      24.9406      0.00000
     41      29.7217      0.00000
     42      29.7217      0.00000
     43      29.7217      0.00000
     44      29.7217      0.00000
     45      29.7217      0.00000
     46      29.7217      0.00000
     47      29.7217      0.00000
     48      29.7217      0.00000


--------------------------------------------------------------------------------------------------------


 soft charge-density along one line, spin component           1
         0         1         2         3         4         5         6         7         8         9
 total charge-density along one line
 
 pseudopotential strength for first ion, spin component:           1
 -4.419   0.000  -0.000   0.000  -0.000  -4.636   0.000  -0.000
  0.000  -4.419   0.000  -0.000  -0.000   0.000  -4.636   0.000
 -0.000   0.000  -4.410  -0.000  -0.000  -0.000   0.000  -4.627
  0.000  -0.000  -0.000  -4.419   0.000   0.000  -0.000  -0.000
 -0.000  -0.000  -0.000   0.000  -4.410  -0.000  -0.000   0.000
 -4.636   0.000  -0.000   0.000  -0.000  -4.819   0.000  -0.000
  0.000  -4.636   0.000  -0.000  -0.000   0.000  -4.819   0.000
 -0.000   0.000  -4.627  -0.000   0.000  -0.000   0.000  -4.810
  0.000  -0.000  -0.000  -4.636   0.000   0.000  -0.000  -0.000
 -0.000  -0.000   0.000   0.000  -4.627  -0.000  -0.000   0.000
 -0.000  -0.000   0.000  -0.000  -0.000  -0.000  -0.000   0.000
 -0.000  -0.000   0.000  -0.000  -0.000  -0.000  -0.000   0.000
  0.000  -0.000  -0.000   0.000  -0.000   0.000  -0.000  -0.000
  0.000   0.000  -0.000   0.000  -0.000   0.000   0.000  -0.000
  0.000   0.000  -0.000  -0.000  -0.000   0.000   0.000   0.000
 -0.000  -0.000  -0.000   0.000  -0.000   0.000  -0.000  -0.000
  0.000   0.000  -0.000   0.000  -0.000   0.000   0.000  -0.000
  0.000   0.000   0.000  -0.000   0.000   0.000   0.000   0.000
 total augmentation occupancy for first ion, spin component:           1
  3.325   0.000  -0.000   0.000  -0.000  -1.320  -0.000   0.000  -0.000  -0.000  -0.000   0.000   0.000  -0.000   0.000  -0.000
  0.000   3.325   0.000   0.000  -0.000  -0.000  -1.320  -0.000  -0.000   0.000  -0.000  -0.000  -0.000  -0.000  -0.000   0.000
 -0.000   0.000   3.341   0.000   0.000   0.000  -0.000  -1.210  -0.000  -0.000   0.000   0.000   0.000   0.000   0.000   0.000
  0.000   0.000   0.000   3.325   0.000  -0.000  -0.000  -0.000  -1.320  -0.000  -0.000  -0.000   0.000   0.000   0.000   0.000
  0.000  -0.000   0.000   0.000   3.341  -0.000   0.000  -0.000  -0.000  -1.210  -0.000   0.000  -0.000   0.000  -0.000   0.000
 -1.320  -0.000   0.000  -0.000  -0.000   1.257   0.000  -0.000   0.000   0.000   0.000  -0.000  -0.000  -0.000   0.000   0.000
 -0.000  -1.320  -0.000  -0.000   0.000   0.000   1.257   0.000   0.000  -0.000   0.000   0.000   0.000  -0.000  -0.000   0.000
  0.000  -0.000  -1.210  -0.000  -0.000  -0.000   0.000   1.044   0.000   0.000  -0.000   0.000  -0.000  -0.000  -0.000   0.000
 -0.000  -0.000  -0.000  -1.320  -0.000   0.000   0.000   0.000   1.257   0.000   0.000  -0.000   0.000  -0.000  -0.000   0.000
 -0.000   0.000  -0.000  -0.000  -1.210   0.000  -0.000   0.000   0.000   1.044   0.000   0.000   0.000  -0.000   0.000  -0.000
 -0.000  -0.000   0.000  -0.000   0.000  -0.000   0.000  -0.000  -0.000  -0.000   2.061  -0.376  -0.000   0.000  -0.000   0.000
  0.000  -0.000   0.000  -0.000   0.000  -0.000   0.000   0.000  -0.000   0.000  -0.376   0.085   0.000   0.000   0.000  -0.000
  0.000  -0.000   0.000   0.000   0.000  -0.000   0.000   0.000   0.000  -0.000  -0.000   0.000   0.153   0.000   0.000  -0.009
 -0.000  -0.000   0.000   0.000   0.000  -0.000  -0.000   0.000  -0.000  -0.000   0.000   0.000   0.000   0.153   0.000  -0.000
  0.000  -0.000   0.000   0.000  -0.000   0.000  -0.000   0.000  -0.000   0.000  -0.000   0.000   0.000   0.000   0.153  -0.000
 -0.000   0.000   0.000   0.000  -0.000   0.000   0.000   0.000   0.000  -0.000   0.000  -0.000  -0.009  -0.000  -0.000   0.001
 -0.000  -0.000   0.000   0.000  -0.000   0.000  -0.000   0.000   0.000   0.000   0.000  -0.000  -0.000  -0.009  -0.000   0.000
 -0.000   0.000  -0.000   0.000  -0.000   0.000  -0.000   0.000   0.000  -0.000   0.000  -0.000  -0.000  -0.000  -0.009   0.000


------------------------ aborting loop because EDIFF is reached ----------------------------------------


    CHARGE:  cpu time      0.0082: real time      0.0081
    FORLOC:  cpu time      0.0001: real time      0.0001
    FORNL :  cpu time      0.0385: real time      0.0386
    STRESS:  cpu time      0.2499: real time      0.2500
    FORCOR:  cpu time      0.0019: real time      0.0020
    FORHAR:  cpu time      0.0006: real time      0.0006
    MIXING:  cpu time      0.0005: real time      0.0005
    OFIELD:  cpu time      0.0001: real time      0.0001

  FORCE on cell =-STRESS in cart. coord.  units (eV):
  Direction    XX          YY          ZZ          XY          YZ          ZX
  --------------------------------------------------------------------------------------
  Alpha Z   188.46335   188.46335   188.46335
  Ewald   -1278.91271 -1278.91271 -1278.91271    -0.00000     0.00000     0.00000
  Hartree   265.51336   265.51336   265.51336    -0.00000    -0.00000    -0.00000
  E(xc)    -232.22452  -232.22452  -232.22452     0.00000     0.00000    -0.00000
  Local     178.67002   178.67002   178.67002     0.00000     0.00000     0.00000
  n-local   -25.73642   -39.69365   -42.65756     0.63986     4.09236     1.19650
  augment   368.30538   368.30538   368.30538    -0.00000    -0.00000     0.00000
  Kinetic   552.82980   544.29001   539.16053    -3.07850     0.45206    -1.16519
  Fock        0.00000     0.00000     0.00000     0.00000     0.00000     0.00000
  -------------------------------------------------------------------------------------
  Total      -0.78755    -0.78755    -0.78755    -0.00000     0.00000    -0.00000
  in kB     -17.47363   -17.47363   -17.47363    -0.00000     0.00000    -0.00000
  external pressure =      -17.47 kB  Pullay stress =        0.00 kB


 VOLUME and BASIS-vectors are now :
 -----------------------------------------------------------------------------
  energy-cutoff  :      324.80
  volume of cell :       72.21
      direct lattice vectors                 reciprocal lattice vectors
     4.164240000  0.000000000  0.000000000     0.240139857 -0.000000000  0.000000000
     0.000000000  4.164240000  0.000000000     0.000000000  0.240139857  0.000000000
     0.000000000  0.000000000  4.164240000    -0.000000000 -0.000000000  0.240139857

  length of vectors
     4.164240000  4.164240000  4.164240000     0.240139857  0.240139857  0.240139857


 FORCES acting on ions
    electron-ion (+dipol)            ewald-force                    non-local-force                 convergence-correction
 -----------------------------------------------------------------------------------------------
   -.182E-13 -.193E-13 -.487E-13   0.309E-14 -.453E-14 0.182E-14   0.645E-25 0.135E-24 0.416E-24   -.110E-13 0.135E-13 -.767E-16
   -.212E-13 0.370E-12 0.387E-12   0.360E-14 0.641E-14 0.506E-14   0.244E-24 0.629E-25 -.324E-24   -.235E-13 0.750E-14 0.244E-13
   0.390E-12 -.567E-14 -.637E-12   -.532E-14 -.551E-14 0.507E-14   -.953E-25 -.268E-24 0.254E-24   0.291E-13 0.303E-15 0.226E-13
   0.383E-12 0.368E-12 0.593E-12   -.480E-14 0.543E-14 -.866E-14   -.119E-24 -.521E-24 -.133E-24   0.251E-13 0.571E-14 -.675E-16
 -----------------------------------------------------------------------------------------------
   0.734E-12 0.713E-12 0.295E-12   -.342E-14 0.180E-14 0.329E-14   0.950E-25 -.591E-24 0.213E-24   0.197E-13 0.270E-13 0.468E-13
 
 
 POSITION                                       TOTAL-FORCE (eV/Angst)
 -----------------------------------------------------------------------------------
      0.00000      0.00000      0.00000        -0.000000     -0.000000     -0.000000
      0.00000      2.08212      2.08212         0.000000     -0.000000     -0.000000
      2.08212      0.00000      2.08212        -0.000000     -0.000000      0.000000
      2.08212      2.08212      0.00000         0.000000      0.000000      0.000000
 -----------------------------------------------------------------------------------
    total drift:                                0.000000      0.000000      0.000000


--------------------------------------------------------------------------------------------------------



  FREE ENERGIE OF THE ION-ELECTRON SYSTEM (eV)
  ---------------------------------------------------
  free  energy   TOTEN  =       -10.89696295 eV

  energy  without entropy=      -10.89609747  energy(sigma->0) =      -10.89653021
 


--------------------------------------------------------------------------------------------------------


    POTLOK:  cpu time      0.0036: real time      0.0036


--------------------------------------------------------------------------------------------------------


 writing wavefunctions
     LOOP+:  cpu time     22.0236: real time     22.0421
    4ORBIT:  cpu time      0.0000: real time      0.0000

 total amount of memory used by VASP MPI-rank0    44182. kBytes
=======================================================================

   base      :      30000. kBytes
   nonl-proj :      12257. kBytes
   fftplans  :         78. kBytes
   grid      :        302. kBytes
   one-center:         62. kBytes
   wavefun   :       1483. kBytes
 
  
  
 General timing and accounting informations for this job:
 ========================================================
  
                  Total CPU time used (sec):       22.781
                            User time (sec):       22.289
                          System time (sec):        0.492
                         Elapsed time (sec):       23.024
  
                   Maximum memory used (kb):      228960.
                   Average memory used (kb):          N/A
  
                          Minor page faults:        22949
                          Major page faults:            0
                 Voluntary context switches:         3752
