Ag                                      
           1
     4.164240    0.000000    0.000000
     0.000000    4.164240    0.000000
     0.000000    0.000000    4.164240
   Ag
     4
Direct configuration=     1
   0.00000000  0.00000000  0.00000000
   0.00000000  0.50000000  0.50000000
   0.50000000  0.00000000  0.50000000
   0.50000000  0.50000000  0.00000000
