Te                                      
   1.00000000000000     
     4.507880    0.000000    0.000000
    -2.253940    3.903939    0.000000
     0.000000    0.000000    5.963460
   Te
     3
Direct
  0.269660  0.000000  0.333333
  0.000000  0.269660  0.666667
  0.730340  0.730340  0.000000
 
   36   36   48
  28.356      24.539      20.860      17.469      14.467      11.909      9.8015      8.1167      6.7988      5.7817    
  5.0036      4.4185      4.0001      3.7393      3.6401      3.7159      3.9921      4.5116      5.3400      6.5652    
  8.2867      10.595      13.542      17.115      21.214      25.644      30.121      34.297      37.746      40.093    
  41.225      41.210      40.176      38.236      35.496      32.111      24.539      21.540      18.583      15.806    
  13.306      11.141      9.3291      7.8559      6.6828      5.7591      5.0346      4.4694      4.0391      3.7341    
  3.5560      3.5142      3.6248      3.9136      4.4208      5.2031      6.3315      7.8801      9.9082      12.437    
  15.429      18.774      22.287      25.725      28.808      31.268      32.883      33.526      33.182      31.938    
  29.945      27.408      20.860      18.583      16.274      14.060      12.031      10.246      8.7306      7.4798    
  6.4683      5.6584      5.0104      4.4909      4.0776      3.7601      3.5381      3.4184      3.4130      3.5393    
  3.8224      4.2976      5.0114      6.0174      7.3667      9.0936      11.197      13.627      16.274      18.975    
  21.531      23.727      25.369      26.314      26.495      25.926      24.699      22.955      17.469      15.806    
  14.060      12.341      10.736      9.3007      8.0646      7.0312      6.1849      5.4984      4.9412      4.4859    
  4.1124      3.8096      3.5746      3.4117      3.3302      3.3436      3.4699      3.7323      4.1607      4.7907    
  5.6599      6.8006      8.2281      9.9279      11.845      13.882      15.901      17.744      19.253      20.293    
  20.778      20.679      20.032      18.922      14.467      13.306      12.031      10.736      9.4975      8.3706    
  7.3864      6.5543      5.8664      5.3042      4.8448      4.4657      4.1490      3.8828      3.6615      3.4859    
  3.3622      3.3016      3.3189      3.4320      3.6617      4.0319      4.5684      5.2959      6.2323      7.3802    
  8.7179      10.192      11.718      13.187      14.478      15.477      16.097      16.287      16.045      15.413    
  11.909      11.141      10.246      9.3008      8.3706      7.5067      6.7413      6.0880      5.5459      5.1033    
  4.7434      4.4480      4.2008      3.9887      3.8035      3.6418      3.5060      3.4042      3.3493      3.3569    
  3.4444      3.6300      3.9325      4.3702      4.9584      5.7047      6.6034      7.6297      8.7360      9.8527    
  10.895      11.774      12.412      12.751      12.768      12.473      9.8015      9.3291      8.7306      8.0646    
  7.3864      6.7412      6.1608      5.6627      5.2512      4.9209      4.6601      4.4539      4.2867      4.1443    
  4.0152      3.8917      3.7713      3.6579      3.5616      3.4967      3.4798      3.5276      3.6568      3.8825    
  4.2182      4.6726      5.2466      5.9298      6.6974      7.5085      8.3080      9.0316      9.6152      10.005    
  10.168      10.094      8.1167      7.8559      7.4797      7.0312      6.5543      6.0880      5.6626      5.2980    
  5.0033      4.7787      4.6170      4.5058      4.4302      4.3740      4.3221      4.2616      4.1842      4.0881    
  3.9789      3.8688      3.7743      3.7133      3.7033      3.7605      3.8986      4.1282      4.4542      4.8736    
  5.3736      5.9309      6.5112      7.0713      7.5632      7.9411      8.1692      8.2276      6.7988      6.6828    
  6.4682      6.1848      5.8664      5.5459      5.2511      5.0033      4.8156      4.6929      4.6327      4.6254    
  4.6566      4.7080      4.7598      4.7927      4.7907      4.7442      4.6524      4.5232      4.3722      4.2192    
  4.0858      3.9923      3.9565      3.9926      4.1099      4.3109      4.5900      4.9336      5.3204      5.7221    
  6.1049      6.4323      6.6710      6.7966      5.7817      5.7591      5.6584      5.4983      5.3043      5.1033    
  4.9209      4.7788      4.6929      4.6731      4.7213      4.8319      4.9915      5.1799      5.3719      5.5396    
  5.6568      5.7027      5.6664      5.5488      5.3621      5.1277      4.8726      4.6256      4.4130      4.2565    
  4.1714      4.1662      4.2411      4.3893      4.5969      4.8447      5.1084      5.3603      5.5717      5.7177    
  5.0036      5.0347      5.0104      4.9411      4.8448      4.7434      4.6602      4.6170      4.6327      4.7213    
  4.8906      5.1395      5.4573      5.8229      6.2049      6.5653      6.8635      7.0630      7.1375      7.0755    
  6.8820      6.5776      6.1953      5.7751      5.3576      4.9785      4.6646      4.4329      4.2905      4.2355    
  4.2588      4.3460      4.4781      4.6334      4.7878      4.9176      4.4186      4.4695      4.4910      4.4858    
  4.4656      4.4480      4.4539      4.5058      4.6253      4.8319      5.1395      5.5539      6.0688      6.6635    
  7.3011      7.9314      8.4961      8.9368      9.2043      9.2666      9.1147      8.7639      8.2513      7.6293    
  6.9582      6.2957      5.6899      5.1741      4.7661      4.4700      4.2796      4.1820      4.1602      4.1945    
  4.2634      4.3448      4.0001      4.0391      4.0776      4.1123      4.1490      4.2007      4.2867      4.4301    
  4.6565      4.9914      5.4574      6.0689      6.8269      7.7132      8.6870      9.6850      10.628      11.429    
  12.006      12.298      12.270      11.922      11.292      10.444      9.4610      8.4307      7.4340      6.5330    
  5.7667      5.1512      4.6847      4.3540      4.1398      4.0198      3.9712      3.9716      3.7393      3.7340    
  3.7600      3.8095      3.8828      3.9887      4.1444      4.3741      4.7080      5.1799      5.8229      6.6635    
  7.7132      8.9600      10.361      11.841      13.298      14.610      15.654      16.325      16.549      16.299    
  15.599      14.521      13.174      11.681      10.168      8.7401      7.4732      6.4090      5.5584      4.9097    
  4.4382      4.1141      3.9074      3.7905      3.6401      3.5560      3.5380      3.5746      3.6615      3.8035    
  4.0153      4.3222      4.7599      5.3719      6.2049      7.3011      8.6869      10.361      12.283      14.370    
  16.492      18.493      20.198      21.444      22.103      22.100      21.432      20.166      18.430      16.390    
  14.225      12.101      10.148      8.4530      7.0546      5.9523      5.1184      4.5117      4.0886      3.8091    
  3.7160      3.5142      3.4184      3.4117      3.4859      3.6418      3.8917      4.2616      4.7927      5.5396    
  6.5653      7.9314      9.6849      11.841      14.370      17.180      20.125      23.005      25.590      27.648    
  28.977      29.437      28.974      27.629      25.536      22.900      19.963      16.965      14.114      11.563    
  9.3985      7.6490      6.2941      5.2837      4.5560      4.0504      3.9921      3.6248      3.4131      3.3302    
  3.3622      3.5060      3.7712      4.1841      4.7906      5.6567      6.8635      8.4961      10.628      13.298    
  16.492      20.125      24.032      27.975      31.664      34.770      36.993      38.155      38.164      36.989    
  34.688      31.481      27.699      23.675      19.713      16.056      12.868      10.226      8.1350      6.5469    
  5.3833      4.5578      4.5116      3.9136      3.5393      3.3436      3.3016      3.4042      3.6579      4.0880    
  4.7442      5.7026      7.0630      8.9368      11.429      14.610      18.493      23.005      27.975      33.127    
  37.972      41.986      44.917      46.714      47.387      46.889      45.108      41.970      37.609      32.495    
  27.244      22.243      17.757      13.944      10.856      8.4635      6.6831      5.4031      5.3400      4.4207    
  3.8224      3.4699      3.3189      3.3492      3.5616      3.9789      4.6524      5.6664      7.1376      9.2043    
  12.006      15.654      20.198      25.590      31.664      37.972      43.629      48.033      51.057      52.917    
  53.917      54.201      53.614      51.774      48.313      43.186      36.876      30.352      24.320      19.054    
  14.684      11.225      8.6017      6.6884      6.5652      5.2031      4.2976      3.7323      3.4319      3.3568    
  3.4967      3.8689      4.5233      5.5489      7.0756      9.2666      12.298      16.325      21.444      27.648    
  34.770      41.986      48.033      52.179      54.413      55.313      55.690      56.151      56.769      57.018    
  56.008      52.932      47.533      40.361      32.697      25.738      19.816      15.017      11.299      8.5384    
  8.2867      6.3315      5.0114      4.1608      3.6617      3.4444      3.4798      3.7743      4.3722      5.3621    
  6.8820      9.1147      12.270      16.549      22.103      28.977      36.993      44.917      51.057      54.413    
  54.987      53.713      52.053      51.370      52.333      54.599      56.930      57.715      55.658      50.370    
  42.605      34.042      26.357      19.973      14.914      11.078      10.595      7.8801      6.0173      4.7907    
  4.0319      3.6300      3.5277      3.7133      4.2193      5.1276      6.5775      8.7639      11.922      16.299    
  22.100      29.437      38.155      46.714      52.917      55.313      53.713      49.262      44.071      40.466    
  40.103      43.279      48.784      54.365      57.601      56.825      51.731      43.480      34.260      26.125    
  19.522      14.400      13.542      9.9082      7.3667      5.6598      4.5684      3.9325      3.6568      3.7033    
  4.0859      4.8727      6.1953      8.2512      11.292      15.599      21.432      28.974      38.164      47.387    
  53.917      55.690      52.053      44.071      34.301      26.050      22.243      24.321      31.639      41.700    
  51.100      56.760      56.951      51.769      42.990      33.357      25.093      18.529      17.115      12.437    
  9.0937      6.8005      5.2959      4.3702      3.8825      3.7604      3.9923      4.6256      5.7751      7.6293    
  10.444      14.521      20.166      27.629      36.989      46.889      54.201      56.150      51.370      40.467    
  26.050      12.140      2.9697      1.5010      8.2723      21.153      36.159      48.917      56.107      56.389    
  50.587      41.206      31.460      23.392      21.214      15.429      11.197      8.2281      6.2323      4.9584    
  4.2183      3.8986      3.9564      4.4130      5.3577      6.9582      9.4610      13.174      18.430      25.536    
  34.688      45.108      53.614      56.769      52.333      40.103      22.243      2.9697     -12.506     -19.632    
 -16.198     -3.2395      15.350      34.306      48.815      55.923      55.127      48.177      38.266      28.797    
  25.644      18.774      13.627      9.9279      7.3802      5.7047      4.6727      4.1283      3.9926      4.2564    
  4.9785      6.2957      8.4307      11.681      16.390      22.900      31.481      41.970      51.774      57.018    
  54.599      43.279      24.321      1.5010     -19.632     -33.310     -35.533     -25.636     -6.5914      16.158    
  36.710      50.573      55.741      52.838      44.521      34.432      30.121      22.287      16.274      11.845    
  8.7178      6.6034      5.2466      4.4542      4.1099      4.1714      4.6647      5.6899      7.4339      10.168    
  14.225      19.963      27.699      37.609      48.313      56.008      56.930      48.784      31.639      8.2723    
 -16.198     -35.533     -44.328     -40.020     -23.944     -.81961      23.086      42.133      52.878      54.632    
  49.153      39.754      34.297      25.725      18.975      13.882      10.192      7.6296      5.9298      4.8736    
  4.3109      4.1661      4.4330      5.1742      6.5330      8.7400      12.101      16.965      23.675      32.495    
  43.186      52.932      57.715      54.365      41.700      21.153     -3.2395     -25.636     -40.020     -42.275    
 -31.811     -11.830      11.951      33.440      48.101      53.979      51.734      43.990      37.747      28.808    
  21.531      15.901      11.718      8.7359      6.6973      5.3736      4.5900      4.2411      4.2905      4.7662    
  5.7668      7.4732      10.148      14.114      19.713      27.244      36.876      47.533      55.658      57.601    
  51.100      36.159      15.350     -6.5914     -23.944     -31.811     -27.940     -13.651      6.6947      27.411    
  43.489      51.993      52.500      46.737      40.093      31.267      23.727      17.744      13.187      9.8527    
  7.5085      5.9309      4.9336      4.3893      4.2354      4.4700      5.1512      6.4090      8.4530      11.563    
  16.056      22.243      30.352      40.361      50.370      56.825      56.760      48.917      34.306      16.158    
 -.81957     -11.830     -13.651     -5.8948      8.8323      25.991      40.840      49.970      52.095      48.028    
  41.225      32.883      25.369      19.253      14.478      10.895      8.3080      6.5112      5.3204      4.5969    
  4.2588      4.2795      4.6847      5.5584      7.0546      9.3985      12.868      17.757      24.320      32.697    
  42.605      51.731      56.951      56.107      48.815      36.710      23.086      11.951      6.6947      8.8323    
  17.408      29.407      40.978      48.828      51.197      48.140      41.210      33.526      26.314      20.293    
  15.477      11.774      9.0316      7.0712      5.7221      4.8447      4.3460      4.1820      4.3540      4.9097    
  5.9523      7.6490      10.226      13.944      19.054      25.738      34.042      43.480      51.769      56.389    
  55.923      50.573      42.133      33.439      27.411      25.991      29.407      36.111      43.455      48.746    
  50.193      47.376      40.176      33.182      26.495      20.778      16.097      12.412      9.6151      7.5631    
  6.1048      5.1084      4.4782      4.1603      4.1398      4.4382      5.1184      6.2941      8.1350      10.856    
  14.684      19.816      26.357      34.260      42.990      50.587      55.127      55.741      52.878      48.101    
  43.489      40.840      40.978      43.455      46.792      49.141      49.031      45.889      38.236      31.938    
  25.926      20.679      16.287      12.751      10.005      7.9411      6.4322      5.3603      4.6334      4.1945    
  4.0198      4.1141      4.5118      5.2838      6.5469      8.4635      11.225      15.017      19.973      26.125    
  33.357      41.206      48.177      52.838      54.632      53.979      51.993      49.970      48.828      48.746    
  49.141      48.989      47.320      43.659      35.496      29.945      24.699      20.032      16.045      12.768    
  10.168      8.1692      6.6710      5.5718      4.7878      4.2634      3.9712      3.9074      4.0886      4.5560    
  5.3834      6.6831      8.6017      11.299      14.914      19.522      25.093      31.460      38.266      44.521    
  49.153      51.734      52.500      52.095      51.197      50.193      49.031      47.320      44.588      40.588    
  32.111      27.408      22.955      18.922      15.413      12.473      10.094      8.2276      6.7967      5.7178    
  4.9177      4.3448      3.9716      3.7905      3.8091      4.0504      4.5579      5.4031      6.6884      8.5384    
  11.078      14.400      18.529      23.392      28.797      34.432      39.754      43.990      46.737      48.028    
  48.140      47.376      45.889      43.659      40.588      36.665      28.271      24.771      21.386      18.249    
  15.454      13.052      11.051      9.4269      8.1287      7.0957      6.2718      5.6165      5.1098      4.7490    
  4.5442      4.5140      4.6875      5.1092      5.8444      6.9782      8.6055      10.811      13.642      17.083    
  21.033      25.297      29.596      33.590      36.882      39.111      40.172      40.143      39.164      37.356    
  34.823      31.709      24.235      21.540      18.878      16.369      14.100      12.121      10.451      9.0749    
  7.9573      7.0506      6.3084      5.6952      5.1919      4.7951      4.5131      4.3616      4.3621      4.5441    
  4.9489      5.6322      6.6615      8.1059      10.019      12.419      15.266      18.449      21.788      25.045    
  27.952      30.255      31.756      32.347      32.029      30.895      29.094      26.812      20.358      18.361    
  16.336      14.390      12.604      11.028      9.6818      8.5608      7.6391      6.8801      6.2459      5.7058    
  5.2413      4.8474      4.5302      4.3035      4.1858      4.1998      4.3737      4.7438      5.3544      6.2553    
  7.4928      9.0964      11.062      13.339      15.820      18.348      20.731      22.768      24.281      25.148    
  25.317      24.815      23.732      22.197      16.803      15.386      13.902      12.443      11.081      9.8649    
  8.8176      7.9392      7.2120      6.6081      6.0964      5.6503      5.2518      4.8938      4.5789      4.3181    
  4.1278      4.0282      4.0419      4.1950      4.5170      5.0413      5.8015      6.8255      8.1249      9.6833    
  11.447      13.320      15.173      16.859      18.232      19.176      19.618      19.544      18.991      18.042    
  13.677      12.724      11.680      10.625      9.6220      8.7151      7.9290      7.2683      6.7219      6.2687    
  5.8837      5.5434      5.2298      4.9333      4.6523      4.3936      4.1704      4.0010      3.9064      3.9085    
  4.0301      4.2943      4.7244      5.3413      6.1593      7.1781      8.3754      9.6998      11.071      12.388    
  13.542      14.432      14.985      15.164      14.973      14.454      11.033      10.433      9.7360      9.0050    
  8.2934      7.6419      7.0750      6.6009      6.2145      5.9006      5.6391      5.4090      5.1923      4.9762    
  4.7545      4.5288      4.3076      4.1062      3.9442      3.8425      3.8220      3.9020      4.1002      4.4324    
  4.9107      5.5398      6.3122      7.2033      8.1680      9.1425      10.050      10.814      11.368      11.668    
  11.698      11.474      8.8771      8.5316      8.0950      7.6143      7.1329      6.6861      6.2977      5.9789    
  5.7296      5.5405      5.3957      5.2767      5.1646      5.0434      4.9021      4.7360      4.5477      4.3479    
  4.1531      3.9840      3.8615      3.8051      3.8321      3.9566      4.1897      4.5372      4.9979      5.5604    
  6.2008      6.8817      7.5537      8.1616      8.6517      8.9820      9.1282      9.0873      7.1733      7.0020    
  6.7522      6.4578      6.1528      5.8665      5.6212      5.4302      5.2978      5.2200      5.1853      5.1774    
  5.1769      5.1646      5.1237      5.0426      4.9166      4.7496      4.5538      4.3474      4.1521      3.9899    
  3.8804      3.8400      3.8815      4.0131      4.2374      4.5496      4.9368      5.3769      5.8398      6.2883    
  6.6831      6.9882      7.1772      7.2377      5.8611      5.8012      5.6793      5.5189      5.3457      5.1839    
  5.0536      4.9692      4.9386      4.9627      5.0347      5.1408      5.2619      5.3755      5.4588      5.4918    
  5.4606      5.3600      5.1949      4.9794      4.7347      4.4852      4.2559      4.0686      3.9414      3.8872    
  3.9130      4.0194      4.1994      4.4395      4.7206      5.0185      5.3056      5.5537      5.7380      5.8423    
  4.8695      4.8747      4.8362      4.7691      4.6929      4.6275      4.5910      4.5986      4.6609      4.7832    
  4.9637      5.1923      5.4510      5.7149      5.9547      6.1404      6.2460      6.2539      6.1581      5.9652    
  5.6931      5.3684      5.0223      4.6862      4.3877      4.1481      3.9812      3.8930      3.8822      3.9407    
  4.0555      4.2097      4.3835      4.5553      4.7041      4.8122      4.1326      4.1688      4.1804      4.1763    
  4.1708      4.1807      4.2227      4.3127      4.4642      4.6867      4.9837      5.3503      5.7713      6.2202    
  6.6614      7.0532      7.3543      7.5296      7.5568      7.4299      7.1595      6.7720      6.3049      5.8016    
  5.3050      4.8508      4.4649      4.1622      3.9473      3.8169      3.7614      3.7674      3.8188      3.8982    
  3.9875      4.0700      3.6002      3.6399      3.6756      3.7112      3.7566      3.8257      3.9347      4.1008    
  4.3408      4.6695      5.0966      5.6239      6.2408      6.9213      7.6239      8.2940      8.8711      9.2973    
  9.5263      9.5315      9.3099      8.8827      8.2921      7.5948      6.8531      6.1258      5.4598      4.8863    
  4.4206      4.0644      3.8106      3.6461      3.5556      3.5223      3.5293      3.5600      3.2417      3.2592    
  3.2961      3.3514      3.4308      3.5459      3.7125      3.9496      4.2785      4.7205      5.2941      6.0097    
  6.8637      7.8332      8.8720      9.9122      10.871      11.661      12.204      12.442      12.347      11.928    
  11.226      10.311      9.2681      8.1863      7.1446      6.2028      5.3964      4.7389      4.2266      3.8457    
  3.5773      3.4016      3.2987      3.2507      3.0440      3.0129      3.0271      3.0820      3.1792      3.3275    
  3.5420      3.8443      4.2612      4.8227      5.5582      6.4902      7.6258      8.9480      10.409      11.928    
  13.398      14.697      15.704      16.317      16.472      16.148      15.379      14.241      12.846      11.318    
  9.7796      8.3327      7.0487      5.9653      5.0905      4.4115      3.9038      3.5389      3.2894      3.1311    
  3.0072      2.8981      2.8638      2.8959      2.9925      3.1593      3.4105      3.7699      4.2707      4.9533    
  5.8614      7.0333      8.4912      10.229      12.200      14.316      16.443      18.422      20.080      21.258    
  21.837      21.752      21.010      19.686      17.911      15.853      13.686      11.570      9.6299      7.9452    
  6.5506      5.4433      4.5953      3.9667      3.5158      3.2059      3.1420      2.9206      2.8086      2.7927    
  2.8671      3.0345      3.3078      3.7123      4.2877      5.0864      6.1687      7.5932      9.4026      11.607    
  14.170      16.996      19.932      22.775      25.297      27.270      28.500      28.860      28.308      26.896    
  24.766      22.125      19.209      16.252      13.451      10.948      8.8241      7.1026      5.7621      4.7536    
  4.0173      3.4960      3.4717      3.0936      2.8699      2.7773      2.8047      2.9511      3.2275      3.6604    
  4.2948      5.1955      6.4413      8.1150      10.286      12.987      16.200      19.831      23.711      27.598    
  31.203      34.209      36.321      37.363      37.252      35.974      33.614      30.404      26.664      22.713    
  18.843      15.281      12.180      9.6082      7.5686      6.0131      4.8656      4.0432      4.0380      3.4415    
  3.0627      2.8602      2.8124      2.9127      3.1694      3.6085      4.2796      5.2581      6.6422      8.5413    
  11.056      14.253      18.138      22.631      27.554      32.631      37.403      41.347      44.196      45.885    
  46.417      45.757      43.828      40.598      36.234      31.213      26.098      21.245      16.902      13.213    
  10.223      7.9033      6.1704      4.9176      4.9057      4.0035      3.4107      3.0571      2.9021      2.9285    
  3.1392      3.5582      4.2371      5.2599      6.7426      8.8218      11.634      15.285      19.816      25.172    
  31.180      37.425      43.052      47.453      50.479      52.307      53.207      53.302      52.466      50.379    
  46.749      41.587      35.387      29.064      23.239      18.161      13.949      10.611      8.0756      6.2200    
  6.1623      4.8364      3.9491      3.3904      3.0899      3.0116      3.1478      3.5174      4.1711      5.1977    
  6.7271      8.9213      11.954      15.975      21.071      27.227      34.277      41.459      47.534      51.772    
  54.139      55.161      55.570      55.907      56.232      56.075      54.657      51.294      45.803      38.743    
  31.330      24.633      18.939      14.321      10.739      8.0739      7.9081      6.0119      4.7250      3.8901    
  3.3961      3.1779      3.2095      3.4996      4.0933      5.0796      6.5964      8.8262      11.976      16.244    
  21.772      28.594      36.541      44.462      50.688      54.233      55.093      54.148      52.748      52.128    
  52.873      54.652      56.347      56.520      54.038      48.600      40.949      32.676      25.297      19.166    
  14.301      10.605      10.236      7.6063      5.7937      4.5932      3.8452      3.4451      3.3398      3.5204    
  4.0206      4.9231      6.3670      8.5471      11.698      16.062      21.838      29.125      37.781      46.362    
  52.694      55.356      54.177      50.266      45.615      42.367      42.006      44.761      49.501      54.171    
  56.590      55.277      50.001      41.882      32.985      25.182      18.839      13.908      13.201      9.6823    
  7.2097      5.5397      4.4646      3.8329      3.5548      3.5960      3.9720      4.7521      6.0677      8.1162    
  11.150      15.444      21.256      28.756      37.891      47.150      53.835      55.916      52.783      45.504    
  36.540      28.985      25.517      27.400      33.988      42.960      51.196      55.893      55.500      50.153    
  41.542      32.261      24.329      18.014      16.798      12.266      9.0110      6.7656      5.2820      4.3617    
  3.8711      3.7424      3.9667      4.5925      5.7348      7.5818      10.389      14.458      20.087      27.518    
  36.828      46.766      54.242      56.509      52.257      42.137      28.710      15.802      7.3460      6.0306    
  12.278      24.067      37.696      49.128      55.319      55.058      49.157      39.997      30.616      22.856    
  20.933      15.325      11.201      8.2899      6.3189      5.0497      4.3041      3.9748      4.0223      4.4696    
  5.4063      6.9999      9.4964      13.203      18.450      25.535      34.645      45.090      53.754      57.216    
  53.286      41.834      25.034      6.9601     -7.4727     -14.058     -10.817      1.2204      18.397      35.807    
  48.979      55.175      53.959      47.010      37.370      28.252      25.418      18.753      13.733      10.102    
  7.5812      5.9080      4.8656      4.3060      4.1548      4.4053      5.1169      6.4262      8.5550      11.801    
  16.504      23.003      31.558      42.045      51.984      57.511      55.553      44.946      27.007      5.4461    
 -14.436     -27.238     -29.277     -20.001     -2.2326      18.923      37.938      50.604      55.052      51.898    
  43.687      33.902      29.975      22.372      16.501      12.148      9.0495      6.9336      5.5595      4.7437    
  4.3759      4.4170      4.8944      5.9083      7.6444      10.373      14.427      20.158      27.881      37.770    
  48.565      56.504      57.833      50.307      34.068      11.889     -11.276     -29.518     -37.792     -33.748    
 -18.680      2.9659      25.294      42.988      52.794      54.073      48.515      39.307      34.262      25.936    
  19.342      14.331      10.671      8.1026      6.3772      5.2874      4.6906      4.5156      4.7580      5.4811    
  6.8272      9.0255      12.381      17.240      23.943      32.746      43.462      53.391      58.515      55.688    
  43.782      24.266      1.0914     -20.148     -33.778     -35.960     -26.166     -7.4193      14.892      35.010    
  48.626      53.875      51.395      43.715      37.865      29.163      22.051      16.509      12.357      9.3653    
  7.2934      5.9254      5.0954      4.7039      4.7173      5.1647      6.1443      7.8354      10.500      14.458    
  20.049      27.568      37.184      47.932      56.312      58.675      52.783      38.679      18.906     -1.9560    
 -18.463     -26.002     -22.463     -9.0878      10.016      29.471      44.511      52.324      52.496      46.695    
  40.390      31.772      24.404      18.515      13.992      10.647      8.2635      6.6321      5.5764      4.9760    
  4.7726      4.9659      5.6145      6.8471      8.8716      11.966      16.447      22.619      30.710      40.716    
  50.864      57.618      58.016      50.811      37.015      19.772      3.5981     -6.9500     -8.8256     -1.6500    
  12.133      28.240      42.161      50.627      52.389      48.225      41.685      33.525      26.190      20.177    
  15.442      11.852      9.2246      7.3680      6.1091      5.3170      4.9152      4.8801      5.2384      6.0740    
  7.5391      9.8572      13.305      18.172      24.710      33.057      42.974      52.256      57.782      57.390    
  50.688      39.270      26.315      15.656      10.521      12.365      20.310      31.524      42.352      49.641    
  51.686      48.527      41.774      34.268      27.245      21.343      16.580      12.879      10.101      8.0809    
  6.6586      5.7033      5.1284      4.8940      5.0039      5.5063      6.5037      8.1616      10.704      14.389    
  19.465      26.109      34.366      43.808      52.236      57.122      57.037      52.154      44.203      35.910    
  30.071      28.558      31.616      37.808      44.633      49.519      50.732      47.856      40.756      33.962    