Te                                      
   1.00000000000000     
     4.507880    0.000000    0.000000
    -2.253940    3.903939    0.000000
     0.000000    0.000000    5.963460
   Te
     3
Direct
  0.269660  0.000000  0.333333
  0.000000  0.269660  0.666667
  0.730340  0.730340  0.000000
 
   36   36   48
 0.28356331252E+02 0.24539218405E+02 0.20860068699E+02 0.17468877049E+02 0.14467260396E+02
 0.11908609380E+02 0.98014779464E+01 0.81166566201E+01 0.67987961038E+01 0.57816746503E+01
 0.50036021094E+01 0.44185130456E+01 0.40000515696E+01 0.37393357999E+01 0.36401129170E+01
 0.37159379073E+01 0.39921362108E+01 0.45115821411E+01 0.53399707399E+01 0.65651679022E+01
 0.82866947946E+01 0.10594689300E+02 0.13541817709E+02 0.17114980190E+02 0.21214240965E+02
 0.25644195198E+02 0.30120953711E+02 0.34297069784E+02 0.37746490743E+02 0.40093406957E+02
 0.41225371919E+02 0.41210351363E+02 0.40175792892E+02 0.38236155924E+02 0.35495997907E+02
 0.32110871082E+02 0.24539195633E+02 0.21539663362E+02 0.18582738045E+02 0.15805741485E+02
 0.13306160482E+02 0.11141048289E+02 0.93290961177E+01 0.78558657825E+01 0.66827682346E+01
 0.57590875233E+01 0.50345864816E+01 0.44694388853E+01 0.40391301169E+01 0.37340826279E+01
 0.35559966699E+01 0.35141860366E+01 0.36247891480E+01 0.39136252334E+01 0.44207507133E+01
 0.52030762720E+01 0.63314645644E+01 0.78801016880E+01 0.99081990817E+01 0.12437159428E+02
 0.15429186435E+02 0.18773888439E+02 0.22287247660E+02 0.25724665965E+02 0.28808383619E+02
 0.31267507944E+02 0.32883441612E+02 0.33525939289E+02 0.33182340161E+02 0.31938022393E+02
 0.29945488273E+02 0.27408023753E+02 0.20860041827E+02 0.18582728046E+02 0.16274450574E+02
 0.14059833096E+02 0.12031121502E+02 0.10246382533E+02 0.87305914402E+01 0.74797685857E+01
 0.64682641281E+01 0.56583705065E+01 0.50103945433E+01 0.44909222308E+01 0.40776028372E+01
 0.37600829328E+01 0.35380739053E+01 0.34184026652E+01 0.34130337263E+01 0.35393323921E+01
 0.38223780248E+01 0.42976191855E+01 0.50114336818E+01 0.60173777776E+01 0.73667478211E+01
 0.90936498718E+01 0.11197309284E+02 0.13626781663E+02 0.16273549558E+02 0.18975278214E+02
 0.21531170635E+02 0.23727438139E+02 0.25369482605E+02 0.26314347468E+02 0.26494589241E+02
 0.25926210171E+02 0.24699082339E+02 0.22954792194E+02 0.17468841823E+02 0.15805741256E+02
 0.14059862532E+02 0.12341422320E+02 0.10735947969E+02 0.93007331535E+01 0.80646426880E+01
 0.70312432609E+01 0.61848529834E+01 0.54983511268E+01 0.49411591196E+01 0.44858571343E+01
 0.41123780131E+01 0.38095533607E+01 0.35746259142E+01 0.34117205862E+01 0.33301930086E+01
 0.33436129260E+01 0.34698839576E+01 0.37323379662E+01 0.41607459877E+01 0.47906923286E+01
 0.56598911460E+01 0.68005628706E+01 0.82280682761E+01 0.99279208294E+01 0.11845303004E+02
 0.13881603152E+02 0.15900578487E+02 0.17743809092E+02 0.19252774089E+02 0.20293428720E+02
 0.20778113523E+02 0.20679356434E+02 0.20031739670E+02 0.18921655674E+02 0.14467219886E+02
 0.13306159497E+02 0.12031172286E+02 0.10735992615E+02 0.94975135830E+01 0.83706089010E+01
 0.73864396562E+01 0.65543035801E+01 0.58664228532E+01 0.53042494432E+01 0.48447621289E+01
 0.44656833485E+01 0.41490189564E+01 0.38828070783E+01 0.36615297420E+01 0.34858748753E+01
 0.33621856204E+01 0.33015725761E+01 0.33188687628E+01 0.34319535788E+01 0.36616870999E+01
 0.40319056886E+01 0.45684124896E+01 0.52959278271E+01 0.62323168115E+01 0.73802283243E+01
 0.87178599891E+01 0.10192222283E+02 0.11718485931E+02 0.13187131905E+02 0.14477866871E+02
 0.15477320024E+02 0.16096885069E+02 0.16287055950E+02 0.16044899963E+02 0.15412550202E+02
 0.11908600001E+02 0.11141041220E+02 0.10246410845E+02 0.93007691825E+01 0.83706143627E+01
 0.75067333434E+01 0.67412548032E+01 0.60880290659E+01 0.55458552905E+01 0.51032557374E+01
 0.47433576132E+01 0.44480044632E+01 0.42007552416E+01 0.39887133462E+01 0.38034763869E+01
 0.36417674858E+01 0.35059831655E+01 0.34042158538E+01 0.33492551566E+01 0.33568798026E+01
 0.34444014344E+01 0.36300188151E+01 0.39325123194E+01 0.43702100761E+01 0.49583590087E+01
 0.57046518274E+01 0.66033993591E+01 0.76297247117E+01 0.87359797786E+01 0.98526672310E+01
 0.10895003163E+02 0.11774297597E+02 0.12411656296E+02 0.12750864948E+02 0.12767568156E+02
 0.12472597675E+02 0.98015080529E+01 0.93290952970E+01 0.87305854749E+01 0.80646365038E+01
 0.73864114372E+01 0.67412175757E+01 0.61608452962E+01 0.56626684563E+01 0.52511549381E+01
 0.49209063455E+01 0.46601486627E+01 0.44539334688E+01 0.42867349357E+01 0.41443437527E+01
 0.40152063939E+01 0.38916513529E+01 0.37712622195E+01 0.36579168655E+01 0.35615966213E+01
 0.34967079226E+01 0.34797687754E+01 0.35276491054E+01 0.36567608750E+01 0.38825407060E+01
 0.42182471829E+01 0.46726121677E+01 0.52465874473E+01 0.59297848074E+01 0.66973691268E+01
 0.75085281798E+01 0.83079867928E+01 0.90315533514E+01 0.96151594221E+01 0.10005253775E+02
 0.10167867503E+02 0.10094201524E+02 0.81166727019E+01 0.78558665724E+01 0.74797487456E+01
 0.70312225691E+01 0.65542765025E+01 0.60879849972E+01 0.56626342808E+01 0.52979947288E+01
 0.50033483873E+01 0.47787486812E+01 0.46169843856E+01 0.45058182049E+01 0.44301745481E+01
 0.43740450801E+01 0.43221366141E+01 0.42616138875E+01 0.41841824062E+01 0.40880680688E+01
 0.39789007778E+01 0.38688453345E+01 0.37743073736E+01 0.37132769455E+01 0.37033167596E+01
 0.37604875773E+01 0.38986482242E+01 0.41282369382E+01 0.44541906115E+01 0.48735570490E+01
 0.53736199024E+01 0.59308984856E+01 0.65111824534E+01 0.70712551060E+01 0.75631882496E+01
 0.79411462977E+01 0.81691546998E+01 0.82276011005E+01 0.67987673350E+01 0.66827621425E+01
 0.64682442640E+01 0.61848432389E+01 0.58664424873E+01 0.55458717901E+01 0.52511469241E+01
 0.50033391665E+01 0.48155976336E+01 0.46929355173E+01 0.46326592717E+01 0.46253953459E+01
 0.46565542295E+01 0.47079956397E+01 0.47598455337E+01 0.47927392541E+01 0.47907026904E+01
 0.47442165571E+01 0.46523749148E+01 0.45232210728E+01 0.43721787388E+01 0.42192333216E+01
 0.40858190808E+01 0.39923123887E+01 0.39565149044E+01 0.39926344978E+01 0.41099178249E+01
 0.43108737705E+01 0.45899920234E+01 0.49335972129E+01 0.53203934002E+01 0.57221158428E+01
 0.61048503189E+01 0.64322585090E+01 0.66709514037E+01 0.67966077107E+01 0.57816513333E+01
 0.57591068365E+01 0.56583655558E+01 0.54983370966E+01 0.53042861359E+01 0.51033254702E+01
 0.49209440491E+01 0.47787517486E+01 0.46929413323E+01 0.46730925674E+01 0.47213183001E+01
 0.48318921673E+01 0.49914550901E+01 0.51798690634E+01 0.53718502524E+01 0.55396284783E+01
 0.56567673873E+01 0.57026519979E+01 0.56663823628E+01 0.55487805759E+01 0.53620753849E+01
 0.51276716982E+01 0.48726363715E+01 0.46255945192E+01 0.44129819903E+01 0.42564557220E+01
 0.41714335100E+01 0.41661624659E+01 0.42411419902E+01 0.43892949873E+01 0.45969079784E+01
 0.48446606596E+01 0.51083820436E+01 0.53602774437E+01 0.55717177630E+01 0.57176853331E+01
 0.50036297670E+01 0.50346638348E+01 0.50104281401E+01 0.49411289575E+01 0.48447532539E+01
 0.47434038617E+01 0.46601803320E+01 0.46169675149E+01 0.46326522154E+01 0.47213459799E+01
 0.48905667399E+01 0.51394701887E+01 0.54573403397E+01 0.58228641314E+01 0.62049019175E+01
 0.65652549808E+01 0.68634592801E+01 0.70629925488E+01 0.71375252336E+01 0.70755060867E+01
 0.68819828949E+01 0.65776168173E+01 0.61953430814E+01 0.57751199069E+01 0.53576188457E+01
 0.49784754699E+01 0.46646190418E+01 0.44329409182E+01 0.42904918120E+01 0.42354821029E+01
 0.42588373410E+01 0.43459645860E+01 0.44781406096E+01 0.46334105969E+01 0.47877743185E+01
 0.49176366810E+01 0.44185530332E+01 0.44695280964E+01 0.44909798311E+01 0.44858254946E+01
 0.44656260321E+01 0.44479950191E+01 0.44539315646E+01 0.45057639066E+01 0.46253405883E+01
 0.48319146666E+01 0.51395282471E+01 0.55538780866E+01 0.60688355897E+01 0.66634752874E+01
 0.73010968814E+01 0.79314260313E+01 0.84961304711E+01 0.89368466582E+01 0.92043005307E+01
 0.92666025980E+01 0.91147228730E+01 0.87639433487E+01 0.82512539443E+01 0.76293476044E+01
 0.69581865539E+01 0.62957134753E+01 0.56899149899E+01 0.51741283410E+01 0.47661057082E+01
 0.44699635370E+01 0.42795681928E+01 0.41820107434E+01 0.41602332380E+01 0.41945261717E+01
 0.42634010088E+01 0.43448202117E+01 0.40000533105E+01 0.40391489054E+01 0.40776213271E+01
 0.41123497177E+01 0.41489631232E+01 0.42007360960E+01 0.42867434828E+01 0.44301414744E+01
 0.46564866551E+01 0.49914406983E+01 0.54573983716E+01 0.60688845870E+01 0.68268954090E+01
 0.77132340398E+01 0.86869525058E+01 0.96849866154E+01 0.10627694440E+02 0.11428516769E+02
 0.12006247592E+02 0.12297915241E+02 0.12269599261E+02 0.11922449135E+02 0.11292449104E+02
 0.10444308584E+02 0.94609844828E+01 0.84307258493E+01 0.74339805256E+01 0.65330166558E+01
 0.57667135238E+01 0.51511948063E+01 0.46847246428E+01 0.43540440835E+01 0.41397508785E+01
 0.40197692181E+01 0.39712328036E+01 0.39716289650E+01 0.37393226025E+01 0.37340320197E+01
 0.37600352051E+01 0.38095188438E+01 0.38827852019E+01 0.39887260924E+01 0.41443928238E+01
 0.43740814574E+01 0.47079880548E+01 0.51798554272E+01 0.58228815588E+01 0.66634951559E+01
 0.77132261153E+01 0.89599567115E+01 0.10361085703E+02 0.11841486600E+02 0.13297936462E+02
 0.14609801489E+02 0.15654463957E+02 0.16325272500E+02 0.16548941911E+02 0.16298537433E+02
 0.15598624540E+02 0.14521212656E+02 0.13173633909E+02 0.11681183970E+02 0.10168031041E+02
 0.87400754556E+01 0.74731845718E+01 0.64090277596E+01 0.55584349450E+01 0.49097180400E+01
 0.44382158063E+01 0.41141066384E+01 0.39073977183E+01 0.37904938775E+01 0.36401246688E+01
 0.35559539924E+01 0.35380168621E+01 0.35746016387E+01 0.36615426431E+01 0.38035104191E+01
 0.40152534002E+01 0.43221861558E+01 0.47598820464E+01 0.53718710179E+01 0.62049093618E+01
 0.73010781671E+01 0.86869036286E+01 0.10361043268E+02 0.12283461358E+02 0.14369614995E+02
 0.16492397151E+02 0.18492734524E+02 0.20197775898E+02 0.21444147785E+02 0.22102662300E+02
 0.22099931244E+02 0.21432002552E+02 0.20166205647E+02 0.18430141521E+02 0.16390298616E+02
 0.14225480065E+02 0.12100941914E+02 0.10148106740E+02 0.84529954495E+01 0.70546227903E+01
 0.59522981109E+01 0.51183636836E+01 0.45117378702E+01 0.40886342118E+01 0.38091300678E+01
 0.37159518607E+01 0.35141823677E+01 0.34183932492E+01 0.34117372096E+01 0.34859172325E+01
 0.36418001867E+01 0.38916511212E+01 0.42615949175E+01 0.47927300256E+01 0.55396393259E+01
 0.65652695425E+01 0.79314180092E+01 0.96849494075E+01 0.11841446022E+02 0.14369599129E+02
 0.17180471604E+02 0.20125441572E+02 0.23005202061E+02 0.25589860530E+02 0.27647527416E+02
 0.28976752575E+02 0.29437362560E+02 0.28974285289E+02 0.27629226473E+02 0.25536174178E+02
 0.22899991008E+02 0.19962509574E+02 0.16964723286E+02 0.14114058988E+02 0.11562623435E+02
 0.93984524815E+01 0.76489990155E+01 0.62940761437E+01 0.52837454928E+01 0.45560056854E+01
 0.40503881947E+01 0.39921193289E+01 0.36247839541E+01 0.34130500971E+01 0.33302367278E+01
 0.33622384522E+01 0.35060061495E+01 0.37712309656E+01 0.41841135327E+01 0.47906378038E+01
 0.56567345992E+01 0.68634557180E+01 0.84961383665E+01 0.10627705021E+02 0.13297953058E+02
 0.16492418849E+02 0.20125455771E+02 0.24032434347E+02 0.27975331626E+02 0.31663574340E+02
 0.34769854724E+02 0.36992610298E+02 0.38154747674E+02 0.38164302463E+02 0.36989009735E+02
 0.34688159627E+02 0.31480934603E+02 0.27699278923E+02 0.23674628891E+02 0.19712540246E+02
 0.16056426600E+02 0.12868200057E+02 0.10226003358E+02 0.81350065762E+01 0.65469101591E+01
 0.53833379749E+01 0.45578314445E+01 0.45115629014E+01 0.39136025498E+01 0.35393303141E+01
 0.33436364404E+01 0.33015981004E+01 0.34042151857E+01 0.36578858785E+01 0.40880274523E+01
 0.47441876841E+01 0.57026378822E+01 0.70629840627E+01 0.89368433296E+01 0.11428532725E+02
 0.14609844360E+02 0.18492784784E+02 0.23005228500E+02 0.27975329994E+02 0.33126904034E+02
 0.37972009976E+02 0.41986253975E+02 0.44917038118E+02 0.46714410330E+02 0.47387016201E+02
 0.46888999766E+02 0.45108050406E+02 0.41970166248E+02 0.37608697614E+02 0.32494829540E+02
 0.27243932041E+02 0.22242812290E+02 0.17757452934E+02 0.13943855429E+02 0.10855565623E+02
 0.84635455268E+01 0.66831182804E+01 0.54030993966E+01 0.53399854686E+01 0.44207444489E+01
 0.38223679312E+01 0.34698802395E+01 0.33188554563E+01 0.33492205992E+01 0.35615632895E+01
 0.39789047649E+01 0.46524229019E+01 0.56664423531E+01 0.71375583166E+01 0.92042967876E+01
 0.12006231982E+02 0.15654466050E+02 0.20197793644E+02 0.25589864299E+02 0.31663551495E+02
 0.37971986150E+02 0.43628682253E+02 0.48033313621E+02 0.51057462718E+02 0.52916764477E+02
 0.53917365379E+02 0.54200811040E+02 0.53613559328E+02 0.51773611429E+02 0.48313304673E+02
 0.43185587866E+02 0.36876130180E+02 0.30352257589E+02 0.24319752683E+02 0.19053659106E+02
 0.14684295354E+02 0.11224888291E+02 0.86017262257E+01 0.66884455319E+01 0.65651928744E+01
 0.52030912473E+01 0.42976260808E+01 0.37323429024E+01 0.34319400174E+01 0.33568382349E+01
 0.34966705591E+01 0.38688560162E+01 0.45232816334E+01 0.55488521801E+01 0.70755522054E+01
 0.92666112928E+01 0.12297893677E+02 0.16325238882E+02 0.21444118307E+02 0.27647500783E+02
 0.34769822431E+02 0.41986225438E+02 0.48033305157E+02 0.52179367118E+02 0.54413364748E+02
 0.55313281463E+02 0.55689921562E+02 0.56150542725E+02 0.56769153814E+02 0.57018416901E+02
 0.56007821472E+02 0.52932125920E+02 0.47532976144E+02 0.40361065034E+02 0.32696724469E+02
 0.25737914946E+02 0.19816388539E+02 0.15016845544E+02 0.11299187244E+02 0.85384289237E+01
 0.82867003115E+01 0.63314648524E+01 0.50114343454E+01 0.41607640405E+01 0.36617057125E+01
 0.34443931143E+01 0.34797509988E+01 0.37743178363E+01 0.43722069207E+01 0.53620774045E+01
 0.68819551281E+01 0.91147022904E+01 0.12269596933E+02 0.16548932790E+02 0.22102637999E+02
 0.28976732994E+02 0.36992605282E+02 0.44917041100E+02 0.51057473979E+02 0.54413381355E+02
 0.54986561119E+02 0.53713149932E+02 0.52053211869E+02 0.51370269893E+02 0.52333224066E+02
 0.54598799967E+02 0.56930493544E+02 0.57714972245E+02 0.55657946761E+02 0.50370201672E+02
 0.42605021375E+02 0.34041771822E+02 0.26356568204E+02 0.19973216187E+02 0.14914321066E+02
 0.11078087361E+02 0.10594698430E+02 0.78800888875E+01 0.60173451383E+01 0.47906845289E+01
 0.40319344441E+01 0.36300425040E+01 0.35276544945E+01 0.37132979278E+01 0.42192611231E+01
 0.51276406005E+01 0.65775189994E+01 0.87638665937E+01 0.11922453077E+02 0.16298576257E+02
 0.22099946318E+02 0.29437369369E+02 0.38154779197E+02 0.46714449634E+02 0.52916786855E+02
 0.55313299428E+02 0.53713171188E+02 0.49262237452E+02 0.44070753056E+02 0.40466493382E+02
 0.40103142551E+02 0.43278901720E+02 0.48784061028E+02 0.54365012950E+02 0.57601278714E+02
 0.56824586734E+02 0.51730849129E+02 0.43480169443E+02 0.34260369720E+02 0.26125384331E+02
 0.19522083171E+02 0.14400226749E+02 0.13541841016E+02 0.99082142210E+01 0.73667142089E+01
 0.56598471160E+01 0.45684160100E+01 0.39325382584E+01 0.36567606427E+01 0.37033172208E+01
 0.40858547102E+01 0.48726518555E+01 0.61952819763E+01 0.82511805634E+01 0.11292458819E+02
 0.15598689941E+02 0.21432032087E+02 0.28974279945E+02 0.38164326736E+02 0.47387060986E+02
 0.53917369275E+02 0.55689893846E+02 0.52053213310E+02 0.44070781195E+02 0.34301447885E+02
 0.26050086932E+02 0.22243365586E+02 0.24320594592E+02 0.31638816631E+02 0.41700032212E+02
 0.51099892383E+02 0.56760454817E+02 0.56950656354E+02 0.51769251065E+02 0.42990336611E+02
 0.33356739866E+02 0.25092742112E+02 0.18529467968E+02 0.17114961496E+02 0.12437198225E+02
 0.90936635323E+01 0.68005239312E+01 0.52959096921E+01 0.43702338150E+01 0.38825352461E+01
 0.37604399096E+01 0.39923014384E+01 0.46256385169E+01 0.57751444860E+01 0.76293392887E+01
 0.10444341217E+02 0.14521286457E+02 0.20166223318E+02 0.27629169894E+02 0.36988977494E+02
 0.46889024851E+02 0.54200804555E+02 0.56150469430E+02 0.51370219600E+02 0.40466519982E+02
 0.26050125545E+02 0.12140444441E+02 0.29696903865E+01 0.15010054862E+01 0.82722549874E+01
 0.21153021587E+02 0.36159315171E+02 0.48916580475E+02 0.56107441331E+02 0.56389379640E+02
 0.50586654063E+02 0.41206292173E+02 0.31460383853E+02 0.23391928418E+02 0.21214149076E+02
 0.15429200449E+02 0.11197365675E+02 0.82280663729E+01 0.62322946360E+01 0.49583895527E+01
 0.42182768860E+01 0.38985996383E+01 0.39564456802E+01 0.44129860882E+01 0.53576677432E+01
 0.69582119253E+01 0.94610120365E+01 0.13173692978E+02 0.18430156204E+02 0.25536092736E+02
 0.34688078516E+02 0.45108061053E+02 0.53613587779E+02 0.56769103257E+02 0.52333155863E+02
 0.40103156028E+02 0.22243415748E+02 0.29696916101E+01 -.12506230905E+02 -.19631718991E+02
 -.16197511723E+02 -.32394966877E+01 0.15350080021E+02 0.34305701241E+02 0.48815356182E+02
 0.55923239333E+02 0.55127197395E+02 0.48177389422E+02 0.38266119642E+02 0.28796532663E+02
 0.25644105220E+02 0.18773876536E+02 0.13626848247E+02 0.99279466596E+01 0.73801947578E+01
 0.57046619400E+01 0.46726776873E+01 0.41282500658E+01 0.39925748385E+01 0.42564255220E+01
 0.49785047200E+01 0.62957217786E+01 0.84306957740E+01 0.11681182353E+02 0.16390315049E+02
 0.22899947850E+02 0.31480863420E+02 0.41970178045E+02 0.51773689312E+02 0.57018438696E+02
 0.54598763686E+02 0.43278917564E+02 0.24320655698E+02 0.15009917745E+01 -.19631798921E+02
 -.33310030052E+02 -.35532839581E+02 -.25635771135E+02 -.65914364638E+01 0.16158373597E+02
 0.36710035404E+02 0.50572596525E+02 0.55740993881E+02 0.52837695609E+02 0.44521222356E+02
 0.34431622365E+02 0.30120951402E+02 0.22287255573E+02 0.16273612426E+02 0.11845339368E+02
 0.87178087084E+01 0.66033511342E+01 0.52466270764E+01 0.44542463286E+01 0.41099069012E+01
 0.41714139226E+01 0.46646544163E+01 0.56899336508E+01 0.74339145024E+01 0.10167956368E+02
 0.14225478792E+02 0.19962530161E+02 0.27699265140E+02 0.37608710139E+02 0.48313383738E+02
 0.56007880212E+02 0.56930478723E+02 0.48784062210E+02 0.31638883907E+02 0.82722757624E+01
 -.16197612562E+02 -.35532945737E+02 -.44328364730E+02 -.40019522596E+02 -.23943705972E+02
 -.81961330316E+00 0.23085826985E+02 0.42133229588E+02 0.52877741012E+02 0.54632137876E+02
 0.49152661542E+02 0.39754271239E+02 0.34297131718E+02 0.25724689952E+02 0.18975316135E+02
 0.13881637408E+02 0.10192179773E+02 0.76296407269E+01 0.59297668216E+01 0.48735970512E+01
 0.43108775376E+01 0.41661402247E+01 0.44329781100E+01 0.51741932213E+01 0.65329970695E+01
 0.87399901043E+01 0.12100918755E+02 0.16964781242E+02 0.23674670138E+02 0.32494830498E+02
 0.43185609240E+02 0.52932154224E+02 0.57714941295E+02 0.54364961626E+02 0.41700053513E+02
 0.21153079836E+02 -.32395123076E+01 -.25635844405E+02 -.40019551766E+02 -.42274950576E+02
 -.31810578493E+02 -.11829935398E+02 0.11950645694E+02 0.33439544020E+02 0.48101058251E+02
 0.53978761546E+02 0.51734059452E+02 0.43989596922E+02 0.37746541828E+02 0.28808371102E+02
 0.21531140476E+02 0.15900583390E+02 0.11718479443E+02 0.87359303489E+01 0.66973414647E+01
 0.53736450597E+01 0.45899951041E+01 0.42410912530E+01 0.42904750962E+01 0.47661657302E+01
 0.57667567644E+01 0.74731520194E+01 0.10148084994E+02 0.14114117200E+02 0.19712602109E+02
 0.27243917178E+02 0.36876084520E+02 0.47532957426E+02 0.55657915556E+02 0.57601206156E+02
 0.51099846641E+02 0.36159342932E+02 0.15350124911E+02 -.65914155002E+01 -.23943666622E+02
 -.31810518243E+02 -.27940181967E+02 -.13651176102E+02 0.66946795097E+01 0.27411047332E+02
 0.43488924916E+02 0.51993107807E+02 0.52500312359E+02 0.46737321293E+02 0.40093438744E+02
 0.31267462639E+02 0.23727344182E+02 0.17743768600E+02 0.13187153991E+02 0.98526852806E+01
 0.75085381618E+01 0.59309382039E+01 0.49336299923E+01 0.43892582504E+01 0.42354167228E+01
 0.44699569462E+01 0.51512320311E+01 0.64090340791E+01 0.84529841901E+01 0.11562658296E+02
 0.16056476159E+02 0.22242790685E+02 0.30352182072E+02 0.40361029822E+02 0.50370217445E+02
 0.56824582111E+02 0.56760416667E+02 0.48916563554E+02 0.34305718535E+02 0.16158396480E+02
 -.81957266408E+00 -.11829856280E+02 -.13651108759E+02 -.58947631648E+01 0.88322735207E+01
 0.25991479007E+02 0.40839908293E+02 0.49969854560E+02 0.52095243307E+02 0.48027638541E+02
 0.41225416284E+02 0.32883427341E+02 0.25369404692E+02 0.19252726654E+02 0.14477899946E+02
 0.10895058462E+02 0.83080129289E+01 0.65112078136E+01 0.53204376479E+01 0.45969249784E+01
 0.42588026043E+01 0.42795313582E+01 0.46847220391E+01 0.55584359517E+01 0.70546080240E+01
 0.93984543586E+01 0.12868220509E+02 0.17757436136E+02 0.24319690967E+02 0.32696698387E+02
 0.42605078470E+02 0.51730928802E+02 0.56950688826E+02 0.56107437810E+02 0.48815349052E+02
 0.36710013042E+02 0.23085784288E+02 0.11950623499E+02 0.66946994550E+01 0.88322985827E+01
 0.17407741991E+02 0.29407332120E+02 0.40977972149E+02 0.48828109872E+02 0.51197445189E+02
 0.48140439850E+02 0.41210390480E+02 0.33525963351E+02 0.26314339166E+02 0.20293427600E+02
 0.15477362513E+02 0.11774348713E+02 0.90315552545E+01 0.70712183927E+01 0.57220996057E+01
 0.48446806063E+01 0.43459848809E+01 0.41820133821E+01 0.43540435856E+01 0.49097163613E+01
 0.59522831933E+01 0.76489802561E+01 0.10225996755E+02 0.13943847147E+02 0.19053635278E+02
 0.25737907874E+02 0.34041818731E+02 0.43480243903E+02 0.51769295854E+02 0.56389389578E+02
 0.55923247427E+02 0.50572595243E+02 0.42133178736E+02 0.33439452358E+02 0.27410977057E+02
 0.25991462819E+02 0.29407341549E+02 0.36111301099E+02 0.43454722582E+02 0.48746225224E+02
 0.50192658283E+02 0.47375706321E+02 0.40175788746E+02 0.33182333827E+02 0.26494602444E+02
 0.20778149537E+02 0.16096929326E+02 0.12411681737E+02 0.96151374396E+01 0.75631188110E+01
 0.61047768571E+01 0.51083527344E+01 0.44781587580E+01 0.41602656015E+01 0.41397741945E+01
 0.44382298206E+01 0.51183685533E+01 0.62940676039E+01 0.81349918970E+01 0.10855560542E+02
 0.14684305495E+02 0.19816408073E+02 0.26356587744E+02 0.34260373054E+02 0.42990308989E+02
 0.50586612261E+02 0.55127187053E+02 0.55741030212E+02 0.52877776688E+02 0.48101043635E+02
 0.43488877577E+02 0.40839883384E+02 0.40977982944E+02 0.43454736085E+02 0.46792064399E+02
 0.49141034373E+02 0.49031159906E+02 0.45888789061E+02 0.38236130399E+02 0.31937961572E+02
 0.25926182040E+02 0.20679379693E+02 0.16287081250E+02 0.12750854547E+02 0.10005221768E+02
 0.79411147424E+01 0.64322283904E+01 0.53602535949E+01 0.46334082300E+01 0.41945412203E+01
 0.40197803308E+01 0.41141113722E+01 0.45117505314E+01 0.52837605086E+01 0.65469084682E+01
 0.84635368098E+01 0.11224903632E+02 0.15016883400E+02 0.19973234153E+02 0.26125351257E+02
 0.33356666865E+02 0.41206213294E+02 0.48177340219E+02 0.52837702976E+02 0.54632197809E+02
 0.53978832503E+02 0.51993153823E+02 0.49969882394E+02 0.48828137844E+02 0.48746242309E+02
 0.49141029038E+02 0.48988666556E+02 0.47320012005E+02 0.43658830467E+02 0.35495999025E+02
 0.29945437160E+02 0.24699037751E+02 0.20031745928E+02 0.16044911583E+02 0.12767532469E+02
 0.10167820987E+02 0.81691650645E+01 0.66710118784E+01 0.55717694833E+01 0.47877942179E+01
 0.42634026218E+01 0.39712172422E+01 0.39073665079E+01 0.40886174634E+01 0.45560208715E+01
 0.53833537172E+01 0.66831083577E+01 0.86017191459E+01 0.11299211258E+02 0.14914344267E+02
 0.19522064717E+02 0.25092701932E+02 0.31460364315E+02 0.38266116300E+02 0.44521209681E+02
 0.49152652170E+02 0.51734081767E+02 0.52500357886E+02 0.52095283358E+02 0.51197470621E+02
 0.50192666294E+02 0.49031140278E+02 0.47319980930E+02 0.44588189015E+02 0.40587779627E+02
 0.32110891448E+02 0.27408027705E+02 0.22954788828E+02 0.18921680226E+02 0.15412579241E+02
 0.12472574883E+02 0.10094147838E+02 0.82276029939E+01 0.67966858386E+01 0.57177663975E+01
 0.49176674985E+01 0.43448201181E+01 0.39716178293E+01 0.37904604034E+01 0.38090888868E+01
 0.40503811769E+01 0.45578532970E+01 0.54031008042E+01 0.66884205795E+01 0.85384191192E+01
 0.11078095787E+02 0.14400217986E+02 0.18529458189E+02 0.23391976963E+02 0.28796627982E+02
 0.34431672885E+02 0.39754234509E+02 0.43989530932E+02 0.46737284099E+02 0.48027620358E+02
 0.48140418231E+02 0.47375688643E+02 0.45888774900E+02 0.43658802329E+02 0.40587749484E+02
 0.36665262397E+02 0.28270608680E+02 0.24771010860E+02 0.21385668100E+02 0.18249168001E+02
 0.15454466694E+02 0.13051905450E+02 0.11051178671E+02 0.94268733029E+01 0.81286788909E+01
 0.70957348777E+01 0.62717961370E+01 0.56165287784E+01 0.51097554675E+01 0.47490157020E+01
 0.45441808598E+01 0.45139897596E+01 0.46874505774E+01 0.51091847354E+01 0.58443980731E+01
 0.69781861540E+01 0.86054545264E+01 0.10810897906E+02 0.13642262791E+02 0.17083211115E+02
 0.21032813091E+02 0.25296996997E+02 0.29595766428E+02 0.33589877135E+02 0.36882208625E+02
 0.39111068858E+02 0.40171660300E+02 0.40142926986E+02 0.39163712628E+02 0.37355741723E+02
 0.34822644882E+02 0.31709466353E+02 0.24235258929E+02 0.21540373795E+02 0.18878065661E+02
 0.16368952662E+02 0.14099614492E+02 0.12121296790E+02 0.10450890346E+02 0.90749175136E+01
 0.79573179090E+01 0.70506451879E+01 0.63084171670E+01 0.56952333108E+01 0.51919151698E+01
 0.47950856786E+01 0.45130823704E+01 0.43615990907E+01 0.43621206708E+01 0.45440734186E+01
 0.49488528568E+01 0.56321998579E+01 0.66615030026E+01 0.81059495572E+01 0.10019497699E+02
 0.12419419597E+02 0.15265909963E+02 0.18449108334E+02 0.21788216759E+02 0.25045024726E+02
 0.27952394662E+02 0.30255266629E+02 0.31755711043E+02 0.32346576563E+02 0.32029167268E+02
 0.30895269062E+02 0.29094402824E+02 0.26811624096E+02 0.20358067796E+02 0.18360863755E+02
 0.16335812152E+02 0.14390336946E+02 0.12604278447E+02 0.11027838519E+02 0.96818303680E+01
 0.85607555738E+01 0.76390714296E+01 0.68801029367E+01 0.62459101738E+01 0.57057650450E+01
 0.52412587018E+01 0.48473505180E+01 0.45301789864E+01 0.43034937807E+01 0.41858195763E+01
 0.41998034148E+01 0.43737482921E+01 0.47437929675E+01 0.53544415406E+01 0.62553283569E+01
 0.74928209664E+01 0.90964249515E+01 0.11062331637E+02 0.13338944302E+02 0.15819849372E+02
 0.18347836198E+02 0.20730781449E+02 0.22767801494E+02 0.24281378911E+02 0.25147845310E+02
 0.25317057850E+02 0.24815235299E+02 0.23731786186E+02 0.22196904467E+02 0.16802684967E+02
 0.15386320407E+02 0.13901825515E+02 0.12442558128E+02 0.11080889028E+02 0.98648976937E+01
 0.88176078681E+01 0.79391826505E+01 0.72120434090E+01 0.66080564179E+01 0.60963632994E+01
 0.56502632741E+01 0.52518383133E+01 0.48937951941E+01 0.45789270613E+01 0.43181151108E+01
 0.41278491614E+01 0.40281942577E+01 0.40419369253E+01 0.41949716871E+01 0.45170338239E+01
 0.50413170452E+01 0.58015496903E+01 0.68255023715E+01 0.81248558806E+01 0.96832609208E+01
 0.11446547866E+02 0.13319653385E+02 0.15173092227E+02 0.16858764455E+02 0.18232093416E+02
 0.19175563893E+02 0.19617861661E+02 0.19543606450E+02 0.18991485747E+02 0.18042462519E+02
 0.13676651336E+02 0.12723570711E+02 0.11680490998E+02 0.10625402597E+02 0.96219646446E+01
 0.87150801420E+01 0.79289799682E+01 0.72682900205E+01 0.67219234085E+01 0.62687491770E+01
 0.58837168994E+01 0.55433547117E+01 0.52298478639E+01 0.49332940477E+01 0.46523155201E+01
 0.43935536958E+01 0.41703888795E+01 0.40010262699E+01 0.39063792991E+01 0.39085180036E+01
 0.40300989408E+01 0.42943275817E+01 0.47244052300E+01 0.53413408304E+01 0.61592609734E+01
 0.71781260838E+01 0.83753798058E+01 0.96998225735E+01 0.11071342650E+02 0.12388322817E+02
 0.13541610918E+02 0.14431648244E+02 0.14984565700E+02 0.15163529259E+02 0.14972849828E+02
 0.14454216098E+02 0.11033254516E+02 0.10432828694E+02 0.97360384078E+01 0.90049773790E+01
 0.82934266319E+01 0.76419126626E+01 0.70749575902E+01 0.66009367860E+01 0.62144860780E+01
 0.59005701723E+01 0.56390588630E+01 0.54090280777E+01 0.51923419634E+01 0.49761934038E+01
 0.47545483413E+01 0.45287744326E+01 0.43076177717E+01 0.41062491546E+01 0.39441669555E+01
 0.38425257971E+01 0.38220198304E+01 0.39019695508E+01 0.41001738168E+01 0.44324270518E+01
 0.49107340166E+01 0.55398157643E+01 0.63122186143E+01 0.72032644205E+01 0.81679997065E+01
 0.91424628073E+01 0.10050387534E+02 0.10814299463E+02 0.11368124073E+02 0.11667957494E+02
 0.11698479327E+02 0.11473840926E+02 0.88770830900E+01 0.85316056941E+01 0.80950101453E+01
 0.76142897868E+01 0.71329471829E+01 0.66861460479E+01 0.62976746162E+01 0.59788964889E+01
 0.57296351601E+01 0.55404744125E+01 0.53957434423E+01 0.52766898164E+01 0.51645775458E+01
 0.50434201580E+01 0.49021063752E+01 0.47359500296E+01 0.45477299908E+01 0.43478616302E+01
 0.41531202416E+01 0.39839602150E+01 0.38614583337E+01 0.38051366381E+01 0.38320682860E+01
 0.39565940677E+01 0.41896516383E+01 0.45372088692E+01 0.49979177786E+01 0.55604006647E+01
 0.62007921401E+01 0.68816524041E+01 0.75537462811E+01 0.81615612016E+01 0.86517376551E+01
 0.89820275236E+01 0.91281987993E+01 0.90873230539E+01 0.71733203729E+01 0.70019603685E+01
 0.67521543971E+01 0.64577938717E+01 0.61527533306E+01 0.58665005813E+01 0.56211875292E+01
 0.54301896962E+01 0.52978268111E+01 0.52199695356E+01 0.51853356845E+01 0.51774148692E+01
 0.51769354615E+01 0.51645913771E+01 0.51236874738E+01 0.50425500362E+01 0.49165984072E+01
 0.47496470194E+01 0.45537582594E+01 0.43473538023E+01 0.41521325629E+01 0.39899140442E+01
 0.38803827416E+01 0.38399884734E+01 0.38814554087E+01 0.40130639732E+01 0.42373502760E+01
 0.45496074176E+01 0.49367718497E+01 0.53769483491E+01 0.58397806505E+01 0.62883284979E+01
 0.66831454899E+01 0.69882213682E+01 0.71771642269E+01 0.72376976524E+01 0.58611025736E+01
 0.58011844932E+01 0.56793244151E+01 0.55189292088E+01 0.53457140204E+01 0.51838914844E+01
 0.50535540020E+01 0.49691631883E+01 0.49386377496E+01 0.49627106170E+01 0.50346643369E+01
 0.51408041648E+01 0.52619014061E+01 0.53754998203E+01 0.54587851388E+01 0.54917760393E+01
 0.54605636769E+01 0.53599863120E+01 0.51948823017E+01 0.49794102598E+01 0.47346511038E+01
 0.44852287248E+01 0.42558512041E+01 0.40686071270E+01 0.39414077645E+01 0.38871787763E+01
 0.39130449241E+01 0.40193776133E+01 0.41993636229E+01 0.44395049307E+01 0.47205656561E+01
 0.50184572942E+01 0.53055822298E+01 0.55536549586E+01 0.57380401724E+01 0.58422712858E+01
 0.48694823801E+01 0.48747346295E+01 0.48361517541E+01 0.47691200068E+01 0.46929256500E+01
 0.46274827039E+01 0.45910005815E+01 0.45985507128E+01 0.46609109664E+01 0.47832395721E+01