   3   3   0   0
  0.3498262E+02  0.4507880E-09  0.4507880E-09  0.5963460E-09  0.5000000E-15
  1.000000000000000E-004
  CAR 
 Te                                      
     32.15195460     -9.71865075  301      5.66540059      1.00000000
     -9.719  0.0000E+00  0.0000E+00
     -9.579  0.0000E+00  0.0000E+00
     -9.440  0.0000E+00  0.0000E+00
     -9.300  0.0000E+00  0.0000E+00
     -9.160  0.0000E+00  0.0000E+00
     -9.021  0.0000E+00  0.0000E+00
     -8.881  0.0000E+00  0.0000E+00
     -8.742  0.0000E+00  0.0000E+00
     -8.602  0.0000E+00  0.0000E+00
     -8.463  0.0000E+00  0.0000E+00
     -8.323  0.0000E+00  0.0000E+00
     -8.183  0.0000E+00  0.0000E+00
     -8.044  0.4426E-12  0.6178E-13
     -7.904  0.6540E-04  0.9127E-05
     -7.765  0.8112E-01  0.1133E-01
     -7.625  0.4212E+00  0.7012E-01
     -7.486  0.6263E+00  0.1575E+00
     -7.346  0.8194E+00  0.2719E+00
     -7.206  0.1108E+01  0.4265E+00
     -7.067  0.1244E+01  0.6001E+00
     -6.927  0.1602E+01  0.8236E+00
     -6.788  0.2176E+01  0.1127E+01
     -6.648  0.2603E+01  0.1491E+01
     -6.509  0.2214E+01  0.1800E+01
     -6.369  0.1745E+01  0.2043E+01
     -6.229  0.1276E+01  0.2221E+01
     -6.090  0.1090E+01  0.2373E+01
     -5.950  0.1416E+01  0.2571E+01
     -5.811  0.1451E+01  0.2774E+01
     -5.671  0.1507E+01  0.2984E+01
     -5.532  0.1256E+01  0.3159E+01
     -5.392  0.1654E+01  0.3390E+01
     -5.252  0.1636E+01  0.3618E+01
     -5.113  0.1227E+01  0.3790E+01
     -4.973  0.1049E+01  0.3936E+01
     -4.834  0.2858E+00  0.3976E+01
     -4.694  0.6420E+00  0.4065E+01
     -4.555  0.1823E+01  0.4320E+01
     -4.415  0.2783E+01  0.4708E+01
     -4.275  0.2652E+01  0.5078E+01
     -4.136  0.1514E+01  0.5290E+01
     -3.996  0.1162E+01  0.5452E+01
     -3.857  0.8910E+00  0.5576E+01
     -3.717  0.7544E+00  0.5682E+01
     -3.578  0.5430E+00  0.5757E+01
     -3.438  0.5052E+00  0.5828E+01
     -3.298  0.4464E+00  0.5890E+01
     -3.159  0.2260E+00  0.5922E+01
     -3.019  0.3177E+00  0.5966E+01
     -2.880  0.1261E+00  0.5984E+01
     -2.740  0.1088E+00  0.5999E+01
     -2.601  0.8467E-02  0.6000E+01
     -2.461  0.5137E-05  0.6000E+01
     -2.322  0.2946E-14  0.6000E+01
     -2.182  0.0000E+00  0.6000E+01
     -2.042  0.0000E+00  0.6000E+01
     -1.903  0.0000E+00  0.6000E+01
     -1.763  0.0000E+00  0.6000E+01
     -1.624  0.0000E+00  0.6000E+01
     -1.484  0.0000E+00  0.6000E+01
     -1.345  0.0000E+00  0.6000E+01
     -1.205  0.0000E+00  0.6000E+01
     -1.065  0.0000E+00  0.6000E+01
     -0.926  0.0000E+00  0.6000E+01
     -0.786  0.0000E+00  0.6000E+01
     -0.647  0.0000E+00  0.6000E+01
     -0.507  0.0000E+00  0.6000E+01
     -0.368  0.0000E+00  0.6000E+01
     -0.228  0.0000E+00  0.6000E+01
     -0.088  0.1737E-09  0.6000E+01
      0.051  0.1106E-02  0.6000E+01
      0.191  0.1781E+00  0.6025E+01
      0.330  0.6153E+00  0.6111E+01
      0.470  0.1059E+01  0.6259E+01
      0.609  0.1274E+01  0.6437E+01
      0.749  0.1779E+01  0.6685E+01
      0.889  0.2082E+01  0.6975E+01
      1.028  0.2659E+01  0.7347E+01
      1.168  0.3020E+01  0.7768E+01
      1.307  0.3275E+01  0.8225E+01
      1.447  0.3895E+01  0.8769E+01
      1.586  0.2198E+01  0.9076E+01
      1.726  0.2380E+01  0.9408E+01
      1.866  0.2404E+01  0.9743E+01
      2.005  0.1596E+01  0.9966E+01
      2.145  0.3294E+01  0.1043E+02
      2.284  0.3482E+01  0.1091E+02
      2.424  0.2586E+01  0.1127E+02
      2.563  0.1866E+01  0.1153E+02
      2.703  0.2647E+01  0.1190E+02
      2.843  0.1874E+01  0.1216E+02
      2.982  0.1775E+01  0.1241E+02
      3.122  0.1752E+01  0.1266E+02
      3.261  0.1263E+01  0.1283E+02
      3.401  0.2309E+01  0.1316E+02
      3.540  0.1659E+01  0.1339E+02
      3.680  0.2432E+01  0.1373E+02
      3.820  0.2638E+01  0.1409E+02
      3.959  0.2612E+01  0.1446E+02
      4.099  0.2714E+01  0.1484E+02
      4.238  0.2983E+01  0.1525E+02
      4.378  0.3020E+01  0.1568E+02
      4.517  0.2883E+01  0.1608E+02
      4.657  0.3416E+01  0.1655E+02
      4.796  0.3254E+01  0.1701E+02
      4.936  0.2400E+01  0.1734E+02
      5.076  0.1663E+01  0.1758E+02
      5.215  0.1366E+01  0.1777E+02
      5.355  0.1069E+01  0.1792E+02
      5.494  0.4505E+00  0.1798E+02
      5.634  0.1532E+00  0.1800E+02
      5.773  0.1242E-01  0.1800E+02
      5.913  0.5213E-02  0.1800E+02
      6.053  0.8035E-01  0.1801E+02
      6.192  0.1224E+01  0.1818E+02
      6.332  0.2321E+01  0.1851E+02
      6.471  0.3843E+01  0.1904E+02
      6.611  0.3038E+01  0.1947E+02
      6.750  0.2605E+01  0.1983E+02
      6.890  0.2445E+01  0.2017E+02
      7.030  0.3363E+01  0.2064E+02
      7.169  0.3511E+01  0.2113E+02
      7.309  0.2221E+01  0.2144E+02
      7.448  0.3154E+01  0.2188E+02
      7.588  0.2094E+01  0.2218E+02
      7.727  0.2555E+01  0.2253E+02
      7.867  0.2137E+01  0.2283E+02
      8.007  0.2207E+01  0.2314E+02
      8.146  0.1454E+01  0.2334E+02
      8.286  0.1074E+01  0.2349E+02
      8.425  0.1038E+01  0.2364E+02
      8.565  0.8266E+00  0.2375E+02
      8.704  0.6508E+00  0.2384E+02
      8.844  0.8329E+00  0.2396E+02
      8.984  0.7361E+00  0.2406E+02
      9.123  0.6953E+00  0.2416E+02
      9.263  0.6360E+00  0.2425E+02
      9.402  0.6445E+00  0.2434E+02
      9.542  0.8054E+00  0.2445E+02
      9.681  0.1391E+01  0.2464E+02
      9.821  0.1135E+01  0.2480E+02
      9.961  0.1810E+01  0.2505E+02
     10.100  0.1591E+01  0.2528E+02
     10.240  0.2195E+01  0.2558E+02
     10.379  0.1600E+01  0.2581E+02
     10.519  0.1561E+01  0.2602E+02
     10.658  0.1448E+01  0.2623E+02
     10.798  0.1079E+01  0.2638E+02
     10.938  0.1417E+01  0.2657E+02
     11.077  0.1693E+01  0.2681E+02
     11.217  0.1834E+01  0.2707E+02
     11.356  0.2138E+01  0.2736E+02
     11.496  0.2190E+01  0.2767E+02
     11.635  0.1787E+01  0.2792E+02
     11.775  0.1787E+01  0.2817E+02
     11.914  0.2123E+01  0.2847E+02
     12.054  0.2338E+01  0.2879E+02
     12.194  0.1996E+01  0.2907E+02
     12.333  0.2508E+01  0.2942E+02
     12.473  0.2537E+01  0.2977E+02
     12.612  0.2213E+01  0.3008E+02
     12.752  0.2703E+01  0.3046E+02
     12.891  0.2693E+01  0.3084E+02
     13.031  0.2345E+01  0.3116E+02
     13.171  0.3530E+01  0.3166E+02
     13.310  0.2671E+01  0.3203E+02
     13.450  0.2613E+01  0.3239E+02
     13.589  0.3115E+01  0.3283E+02
     13.729  0.3768E+01  0.3335E+02
     13.868  0.2690E+01  0.3373E+02
     14.008  0.3821E+01  0.3426E+02
     14.148  0.3732E+01  0.3478E+02
     14.287  0.3325E+01  0.3525E+02
     14.427  0.2880E+01  0.3565E+02
     14.566  0.3396E+01  0.3612E+02
     14.706  0.3474E+01  0.3661E+02
     14.845  0.3761E+01  0.3713E+02
     14.985  0.2360E+01  0.3746E+02
     15.125  0.3607E+01  0.3797E+02
     15.264  0.2935E+01  0.3838E+02
     15.404  0.2379E+01  0.3871E+02
     15.543  0.3197E+01  0.3915E+02
     15.683  0.3309E+01  0.3962E+02
     15.822  0.3375E+01  0.4009E+02
     15.962  0.2761E+01  0.4047E+02
     16.102  0.3148E+01  0.4091E+02
     16.241  0.3230E+01  0.4136E+02
     16.381  0.3568E+01  0.4186E+02
     16.520  0.3926E+01  0.4241E+02
     16.660  0.4258E+01  0.4300E+02
     16.799  0.3436E+01  0.4348E+02
     16.939  0.2995E+01  0.4390E+02
     17.079  0.2453E+01  0.4424E+02
     17.218  0.3697E+01  0.4476E+02
     17.358  0.3713E+01  0.4528E+02
     17.497  0.3336E+01  0.4574E+02
     17.637  0.3121E+01  0.4618E+02
     17.776  0.3420E+01  0.4666E+02
     17.916  0.3825E+01  0.4719E+02
     18.056  0.3724E+01  0.4771E+02
     18.195  0.3920E+01  0.4826E+02
     18.335  0.3430E+01  0.4874E+02
     18.474  0.4072E+01  0.4930E+02
     18.614  0.3279E+01  0.4976E+02
     18.753  0.3279E+01  0.5022E+02
     18.893  0.3744E+01  0.5074E+02
     19.032  0.3976E+01  0.5130E+02
     19.172  0.3488E+01  0.5178E+02
     19.312  0.4103E+01  0.5236E+02
     19.451  0.3984E+01  0.5291E+02
     19.591  0.3890E+01  0.5345E+02
     19.730  0.4231E+01  0.5405E+02
     19.870  0.3646E+01  0.5455E+02
     20.009  0.3201E+01  0.5500E+02
     20.149  0.4114E+01  0.5558E+02
     20.289  0.3480E+01  0.5606E+02
     20.428  0.3921E+01  0.5661E+02
     20.568  0.4014E+01  0.5717E+02
     20.707  0.3785E+01  0.5770E+02
     20.847  0.3882E+01  0.5824E+02
     20.986  0.3595E+01  0.5874E+02
     21.126  0.3369E+01  0.5921E+02
     21.266  0.3587E+01  0.5971E+02
     21.405  0.4350E+01  0.6032E+02
     21.545  0.4029E+01  0.6088E+02
     21.684  0.3554E+01  0.6138E+02
     21.824  0.4327E+01  0.6198E+02
     21.963  0.4263E+01  0.6258E+02
     22.103  0.4334E+01  0.6318E+02
     22.243  0.3979E+01  0.6374E+02
     22.382  0.3581E+01  0.6424E+02
     22.522  0.3974E+01  0.6479E+02
     22.661  0.4288E+01  0.6539E+02
     22.801  0.4212E+01  0.6598E+02
     22.940  0.3727E+01  0.6650E+02
     23.080  0.4340E+01  0.6710E+02
     23.220  0.4323E+01  0.6771E+02
     23.359  0.3085E+01  0.6814E+02
     23.499  0.4426E+01  0.6875E+02
     23.638  0.4837E+01  0.6943E+02
     23.778  0.4277E+01  0.7003E+02
     23.917  0.4519E+01  0.7066E+02
     24.057  0.4526E+01  0.7129E+02
     24.197  0.4398E+01  0.7190E+02
     24.336  0.3772E+01  0.7243E+02
     24.476  0.4783E+01  0.7310E+02
     24.615  0.4095E+01  0.7367E+02
     24.755  0.4466E+01  0.7429E+02
     24.894  0.4297E+01  0.7489E+02
     25.034  0.4469E+01  0.7551E+02
     25.174  0.3446E+01  0.7600E+02
     25.313  0.5587E+01  0.7678E+02
     25.453  0.4673E+01  0.7743E+02
     25.592  0.4016E+01  0.7799E+02
     25.732  0.4871E+01  0.7867E+02
     25.871  0.4055E+01  0.7923E+02
     26.011  0.4417E+01  0.7985E+02
     26.151  0.5279E+01  0.8059E+02
     26.290  0.5021E+01  0.8129E+02
     26.430  0.4785E+01  0.8196E+02
     26.569  0.5392E+01  0.8271E+02
     26.709  0.3774E+01  0.8324E+02
     26.848  0.4080E+01  0.8380E+02
     26.988  0.4562E+01  0.8444E+02
     27.127  0.5060E+01  0.8515E+02
     27.267  0.5034E+01  0.8585E+02
     27.407  0.5281E+01  0.8659E+02
     27.546  0.4379E+01  0.8720E+02
     27.686  0.4889E+01  0.8788E+02
     27.825  0.4955E+01  0.8857E+02
     27.965  0.4392E+01  0.8919E+02
     28.104  0.4307E+01  0.8979E+02
     28.244  0.5587E+01  0.9057E+02
     28.384  0.4381E+01  0.9118E+02
     28.523  0.4671E+01  0.9183E+02
     28.663  0.4389E+01  0.9244E+02
     28.802  0.4465E+01  0.9307E+02
     28.942  0.4541E+01  0.9370E+02
     29.081  0.3376E+01  0.9417E+02
     29.221  0.3825E+01  0.9470E+02
     29.361  0.2828E+01  0.9510E+02
     29.500  0.2721E+01  0.9548E+02
     29.640  0.1723E+01  0.9572E+02
     29.779  0.1128E+01  0.9588E+02
     29.919  0.5480E+00  0.9595E+02
     30.058  0.2278E+00  0.9598E+02
     30.198  0.8262E-01  0.9600E+02
     30.338  0.2748E-01  0.9600E+02
     30.477  0.5042E-04  0.9600E+02
     30.617  0.4350E-12  0.9600E+02
     30.756  0.0000E+00  0.9600E+02
     30.896  0.0000E+00  0.9600E+02
     31.035  0.0000E+00  0.9600E+02
     31.175  0.0000E+00  0.9600E+02
     31.315  0.0000E+00  0.9600E+02
     31.454  0.0000E+00  0.9600E+02
     31.594  0.0000E+00  0.9600E+02
     31.733  0.0000E+00  0.9600E+02
     31.873  0.0000E+00  0.9600E+02
     32.012  0.0000E+00  0.9600E+02
     32.152  0.0000E+00  0.9600E+02
