    3    3    1    1
  0.3498262E+02  0.4507880E-09  0.4507880E-09  0.5963460E-09  0.5000000E-15
  1.000000000000000E-004
  CAR 
 Te                                      
     18    193     48
 
  0.0000000E+00  0.0000000E+00  0.0000000E+00  0.5787037E-03
      1         -7.815441   1.000000
      2         -4.651623   1.000000
      3         -4.651622   1.000000
      4          2.605144   1.000000
      5          2.868756   1.000000
      6          2.868756   1.000000
      7          3.955928   1.000000
      8          3.955928   1.000000
      9          4.754726   1.000000
     10          6.553053   0.000000
     11          6.553054   0.000000
     12          7.119747   0.000000
     13         10.611373   0.000000
     14         10.611374   0.000000
     15         11.487351   0.000000
     16         11.875445   0.000000
     17         11.875445   0.000000
     18         12.133688   0.000000
     19         12.163878   0.000000
     20         13.059942   0.000000
     21         13.059942   0.000000
     22         15.942229   0.000000
     23         15.942229   0.000000
     24         20.504829   0.000000
     25         20.504831   0.000000
     26         20.603725   0.000000
     27         21.199136   0.000000
     28         22.085946   0.000000
     29         22.085951   0.000000
     30         22.789679   0.000000
     31         22.845918   0.000000
     32         23.148157   0.000000
     33         23.148172   0.000000
     34         23.271287   0.000000
     35         23.271293   0.000000
     36         24.902335   0.000000
     37         25.470208   0.000000
     38         25.470286   0.000000
     39         25.905365   0.000000
     40         25.905442   0.000000
     41         27.137731   0.000000
     42         27.690181   0.000000
     43         27.690300   0.000000
     44         28.077917   0.000000
     45         28.537465   0.000000
     46         28.551198   0.000000
     47         28.707669   0.000000
     48         28.707741   0.000000
 
  0.8333333E-01  0.2494319E-17  0.0000000E+00  0.3472222E-02
      1         -7.770384   1.000000
      2         -4.666183   1.000000
      3         -4.641262   1.000000
      4          2.221438   1.000000
      5          2.605355   1.000000
      6          2.782925   1.000000
      7          4.113063   1.000000
      8          4.336158   1.000000
      9          4.876311   1.000000
     10          6.367784   0.000000
     11          6.516851   0.000000
     12          7.043975   0.000000
     13         10.491275   0.000000
     14         10.575573   0.000000
     15         11.625432   0.000000
     16         11.887968   0.000000
     17         11.965546   0.000000
     18         12.169339   0.000000
     19         12.439759   0.000000
     20         13.468338   0.000000
     21         13.520981   0.000000
     22         16.115683   0.000000
     23         16.151615   0.000000
     24         19.781885   0.000000
     25         19.930554   0.000000
     26         20.847078   0.000000
     27         21.362228   0.000000
     28         21.713962   0.000000
     29         21.919445   0.000000
     30         22.270251   0.000000
     31         22.657066   0.000000
     32         22.891574   0.000000
     33         23.360641   0.000000
     34         23.788025   0.000000
     35         24.003909   0.000000
     36         24.347002   0.000000
     37         24.691185   0.000000
     38         25.347724   0.000000
     39         26.312070   0.000000
     40         26.480121   0.000000
     41         26.617172   0.000000
     42         26.702984   0.000000
     43         27.104642   0.000000
     44         27.891604   0.000000
     45         28.046512   0.000000
     46         28.597757   0.000000
     47         28.834988   0.000000
     48         29.158370   0.000000
 
  0.1666667E+00  0.2521029E-17  0.0000000E+00  0.3472222E-02
      1         -7.638447   1.000000
      2         -4.722316   1.000000
      3         -4.611340   1.000000
      4          1.607311   1.000000
      5          2.199111   1.000000
      6          2.549453   1.000000
      7          4.366810   1.000000
      8          4.684338   1.000000
      9          4.853261   1.000000
     10          6.340608   0.000000
     11          6.456404   0.000000
     12          6.974094   0.000000
     13         10.011523   0.000000
     14         10.615207   0.000000
     15         11.735339   0.000000
     16         12.150651   0.000000
     17         12.523576   0.000000
     18         12.772407   0.000000
     19         13.121280   0.000000
     20         14.132411   0.000000
     21         14.527958   0.000000
     22         16.574022   0.000000
     23         16.797437   0.000000
     24         18.828929   0.000000
     25         19.185124   0.000000
     26         20.317021   0.000000
     27         20.667605   0.000000
     28         21.017710   0.000000
     29         21.203243   0.000000
     30         21.654285   0.000000
     31         22.100226   0.000000
     32         22.984961   0.000000
     33         23.828088   0.000000
     34         24.024118   0.000000
     35         24.330205   0.000000
     36         24.653177   0.000000
     37         24.704623   0.000000
     38         24.934991   0.000000
     39         25.194661   0.000000
     40         25.677147   0.000000
     41         25.818804   0.000000
     42         26.282527   0.000000
     43         26.982440   0.000000
     44         27.883077   0.000000
     45         28.518949   0.000000
     46         29.045404   0.000000
     47         29.579449   0.000000
     48         29.704678   0.000000
 
  0.2500000E+00  0.2495100E-16  0.0000000E+00  0.3472222E-02
      1         -7.431242   1.000000
      2         -4.846004   1.000000
      3         -4.566933   1.000000
      4          1.149928   1.000000
      5          1.816286   1.000000
      6          2.291861   1.000000
      7          4.100306   1.000000
      8          4.621472   1.000000
      9          4.792647   1.000000
     10          6.397625   0.000000
     11          6.596190   0.000000
     12          7.381892   0.000000
     13          9.451900   0.000000
     14         10.914303   0.000000
     15         12.032605   0.000000
     16         12.735009   0.000000
     17         13.227992   0.000000
     18         13.739649   0.000000
     19         14.025400   0.000000
     20         14.765965   0.000000
     21         15.811771   0.000000
     22         17.151113   0.000000
     23         17.314522   0.000000
     24         18.483493   0.000000
     25         18.604964   0.000000
     26         19.086555   0.000000
     27         19.377997   0.000000
     28         20.083414   0.000000
     29         20.523128   0.000000
     30         21.064738   0.000000
     31         21.601452   0.000000
     32         22.841371   0.000000
     33         23.178080   0.000000
     34         23.357706   0.000000
     35         23.671841   0.000000
     36         23.953329   0.000000
     37         25.066505   0.000000
     38         25.153994   0.000000
     39         25.375279   0.000000
     40         25.798369   0.000000
     41         26.016649   0.000000
     42         27.068842   0.000000
     43         27.353070   0.000000
     44         27.844861   0.000000
     45         27.992036   0.000000
     46         28.203038   0.000000
     47         28.833457   0.000000
     48         29.398090   0.000000
 
  0.3333333E+00  0.1610127E-16  0.0000000E+00  0.3472222E-02
      1         -7.175130   1.000000
      2         -5.044666   1.000000
      3         -4.518741   1.000000
      4          0.931885   1.000000
      5          1.519643   1.000000
      6          2.091012   1.000000
      7          3.311179   1.000000
      8          4.659283   1.000000
      9          4.801743   1.000000
     10          6.392904   0.000000
     11          6.545314   0.000000
     12          8.209606   0.000000
     13          9.002596   0.000000
     14         11.518117   0.000000
     15         12.631011   0.000000
     16         13.437733   0.000000
     17         13.954744   0.000000
     18         14.759640   0.000000
     19         15.029956   0.000000
     20         15.493316   0.000000
     21         16.376651   0.000000
     22         17.200880   0.000000
     23         17.262285   0.000000
     24         17.660459   0.000000
     25         18.259531   0.000000
     26         18.913358   0.000000
     27         19.310425   0.000000
     28         19.427729   0.000000
     29         19.980669   0.000000
     30         20.527050   0.000000
     31         20.908396   0.000000
     32         21.813930   0.000000
     33         22.125187   0.000000
     34         22.293840   0.000000
     35         22.643216   0.000000
     36         24.656377   0.000000
     37         25.366957   0.000000
     38         25.398060   0.000000
     39         25.915127   0.000000
     40         26.118757   0.000000
     41         26.329724   0.000000
     42         26.709823   0.000000
     43         26.841400   0.000000
     44         27.377450   0.000000
     45         27.685098   0.000000
     46         28.507677   0.000000
     47         28.606493   0.000000
     48         28.731317   0.000000
 
  0.4166667E+00 -0.1592340E-16  0.0000000E+00  0.3472222E-02
      1         -6.929722   1.000000
      2         -5.265730   1.000000
      3         -4.481111   1.000000
      4          0.907358   1.000000
      5          1.354999   1.000000
      6          2.007957   1.000000
      7          2.617907   1.000000
      8          4.628749   1.000000
      9          4.799778   1.000000
     10          6.397543   0.000000
     11          6.482562   0.000000
     12          8.719374   0.000000
     13          8.882681   0.000000
     14         12.325505   0.000000
     15         13.485799   0.000000
     16         14.127810   0.000000
     17         14.342563   0.000000
     18         15.325208   0.000000
     19         15.832522   0.000000
     20         16.069006   0.000000
     21         16.124662   0.000000
     22         16.550433   0.000000
     23         16.714521   0.000000
     24         17.371708   0.000000
     25         18.264014   0.000000
     26         18.635294   0.000000
     27         19.274348   0.000000
     28         19.462365   0.000000
     29         19.681206   0.000000
     30         20.285201   0.000000
     31         21.046258   0.000000
     32         21.440567   0.000000
     33         21.596527   0.000000
     34         21.940953   0.000000
     35         22.252806   0.000000
     36         23.650395   0.000000
     37         24.089167   0.000000
     38         25.560513   0.000000
     39         25.623401   0.000000
     40         26.165860   0.000000
     41         26.422972   0.000000
     42         26.873554   0.000000
     43         27.295489   0.000000
     44         27.453831   0.000000
     45         27.587409   0.000000
     46         28.214789   0.000000
     47         28.478053   0.000000
     48         29.684414   0.000000
 
  0.5000000E+00  0.4990200E-16  0.0000000E+00  0.1736111E-02
      1         -6.816487   1.000000
      2         -5.373838   1.000000
      3         -4.466820   1.000000
      4          0.926451   1.000000
      5          1.322166   1.000000
      6          2.103951   1.000000
      7          2.207494   1.000000
      8          4.607968   1.000000
      9          4.798260   1.000000
     10          6.401704   0.000000
     11          6.456228   0.000000
     12          8.623856   0.000000
     13          9.143621   0.000000
     14         12.867575   0.000000
     15         14.107396   0.000000
     16         14.443882   0.000000
     17         14.562201   0.000000
     18         14.883097   0.000000
     19         15.168941   0.000000
     20         15.873996   0.000000
     21         16.765839   0.000000
     22         16.929165   0.000000
     23         17.228372   0.000000
     24         17.583416   0.000000
     25         17.922561   0.000000
     26         18.034559   0.000000
     27         18.187470   0.000000
     28         18.962706   0.000000
     29         20.353872   0.000000
     30         21.027420   0.000000
     31         21.141381   0.000000
     32         21.483442   0.000000
     33         21.805789   0.000000
     34         22.055599   0.000000
     35         22.163235   0.000000
     36         22.691253   0.000000
     37         23.668137   0.000000
     38         24.021690   0.000000
     39         26.102576   0.000000
     40         26.291181   0.000000
     41         26.635958   0.000000
     42         26.860636   0.000000
     43         27.368712   0.000000
     44         27.476123   0.000000
     45         27.964277   0.000000
     46         28.389793   0.000000
     47         28.769316   0.000000
     48         29.326193   0.000000
 
  0.8333333E-01  0.8333333E-01  0.0000000E+00  0.3472222E-02
      1         -7.681833   1.000000
      2         -4.696426   1.000000
      3         -4.626442   1.000000
      4          1.810782   1.000000
      5          2.137824   1.000000
      6          2.808187   1.000000
      7          4.082135   1.000000
      8          4.780150   1.000000
      9          4.960249   1.000000
     10          6.182953   0.000000
     11          6.493751   0.000000
     12          7.028327   0.000000
     13         10.326235   0.000000
     14         10.363403   0.000000
     15         11.829410   0.000000
     16         11.981884   0.000000
     17         12.206261   0.000000
     18         12.717087   0.000000
     19         12.871671   0.000000
     20         14.079371   0.000000
     21         14.089935   0.000000
     22         16.494559   0.000000
     23         16.528284   0.000000
     24         19.205425   0.000000
     25         19.231316   0.000000
     26         20.504189   0.000000
     27         20.720834   0.000000
     28         21.168127   0.000000
     29         21.732880   0.000000
     30         22.007191   0.000000
     31         22.569402   0.000000
     32         23.083575   0.000000
     33         23.184626   0.000000
     34         23.546892   0.000000
     35         24.312415   0.000000
     36         24.515679   0.000000
     37         24.883665   0.000000
     38         25.185390   0.000000
     39         25.432947   0.000000
     40         25.711872   0.000000
     41         26.452352   0.000000
     42         26.529558   0.000000
     43         26.983100   0.000000
     44         27.206590   0.000000
     45         28.471541   0.000000
     46         28.704171   0.000000
     47         29.734703   0.000000
     48         29.826070   0.000000
 
  0.1666667E+00  0.8333333E-01  0.0000000E+00  0.6944444E-02
      1         -7.511822   1.000000
      2         -4.775354   1.000000
      3         -4.602197   1.000000
      4          1.342132   1.000000
      5          1.738220   1.000000
      6          2.640432   1.000000
      7          4.096302   1.000000
      8          4.577772   1.000000
      9          4.844459   1.000000
     10          6.385578   0.000000
     11          6.745902   0.000000
     12          7.119790   0.000000
     13          9.842363   0.000000
     14         10.397931   0.000000
     15         12.135188   0.000000
     16         12.314079   0.000000
     17         13.001074   0.000000
     18         13.446191   0.000000
     19         13.627266   0.000000
     20         14.719529   0.000000
     21         15.175662   0.000000
     22         17.047059   0.000000
     23         17.239322   0.000000
     24         18.457319   0.000000
     25         18.669641   0.000000
     26         19.227777   0.000000
     27         19.823538   0.000000
     28         20.406180   0.000000
     29         21.360031   0.000000
     30         21.655712   0.000000
     31         22.103678   0.000000
     32         22.644570   0.000000
     33         23.158406   0.000000
     34         23.398121   0.000000
     35         23.700336   0.000000
     36         24.408903   0.000000
     37         24.574204   0.000000
     38         24.962916   0.000000
     39         25.625731   0.000000
     40         25.844407   0.000000
     41         26.112137   0.000000
     42         26.540442   0.000000
     43         26.888982   0.000000
     44         27.412414   0.000000
     45         28.609084   0.000000
     46         29.139164   0.000000
     47         29.444331   0.000000
     48         29.764481   0.000000
 
  0.2500000E+00  0.8333333E-01  0.0000000E+00  0.6944444E-02
      1         -7.278225   1.000000
      2         -4.929060   1.000000
      3         -4.570104   1.000000
      4          1.028703   1.000000
      5          1.478761   1.000000
      6          2.361675   1.000000
      7          3.717001   1.000000
      8          4.255147   1.000000
      9          4.693168   1.000000
     10          6.572849   0.000000
     11          6.916371   0.000000
     12          7.743154   0.000000
     13          9.368848   0.000000
     14         10.773093   0.000000
     15         12.720228   0.000000
     16         12.834806   0.000000
     17         13.853684   0.000000
     18         14.322279   0.000000
     19         14.512373   0.000000
     20         15.380885   0.000000
     21         16.329558   0.000000
     22         17.107750   0.000000
     23         17.293802   0.000000
     24         17.872633   0.000000
     25         18.552509   0.000000
     26         18.906757   0.000000
     27         19.217936   0.000000
     28         19.601531   0.000000
     29         20.578702   0.000000
     30         20.761343   0.000000
     31         21.169201   0.000000
     32         21.911275   0.000000
     33         22.619361   0.000000
     34         22.959262   0.000000
     35         23.652933   0.000000
     36         23.976083   0.000000
     37         24.054578   0.000000
     38         25.169557   0.000000
     39         25.895664   0.000000
     40         26.219306   0.000000
     41         26.532022   0.000000
     42         26.797419   0.000000
     43         27.198064   0.000000
     44         27.504567   0.000000
     45         27.852070   0.000000
     46         28.159664   0.000000
     47         28.835723   0.000000
     48         29.237157   0.000000
 
  0.3333333E+00  0.8333333E-01  0.0000000E+00  0.6944444E-02
      1         -7.020606   1.000000
      2         -5.141660   1.000000
      3         -4.538946   1.000000
      4          0.931156   1.000000
      5          1.338603   1.000000
      6          2.133075   1.000000
      7          2.971781   1.000000
      8          4.283647   1.000000
      9          4.537820   1.000000
     10          6.666554   0.000000
     11          6.891491   0.000000
     12          8.526855   0.000000
     13          9.028726   0.000000
     14         11.464226   0.000000
     15         13.460531   0.000000
     16         13.539201   0.000000
     17         14.345262   0.000000
     18         15.160384   0.000000
     19         15.392551   0.000000
     20         15.876677   0.000000
     21         16.251936   0.000000
     22         16.550967   0.000000
     23         17.247682   0.000000
     24         17.634646   0.000000
     25         18.424053   0.000000
     26         18.725975   0.000000
     27         19.387072   0.000000
     28         19.669706   0.000000
     29         19.999067   0.000000
     30         20.184916   0.000000
     31         20.851033   0.000000
     32         21.067759   0.000000
     33         21.559389   0.000000
     34         22.599632   0.000000
     35         23.088546   0.000000
     36         23.991942   0.000000
     37         24.443105   0.000000
     38         24.859702   0.000000
     39         25.368879   0.000000
     40         25.802393   0.000000
     41         26.262376   0.000000
     42         26.785195   0.000000
     43         27.170410   0.000000
     44         27.715078   0.000000
     45         27.900090   0.000000
     46         28.293322   0.000000
     47         28.591087   0.000000
     48         29.357987   0.000000
 
  0.4166667E+00  0.8333333E-01  0.0000000E+00  0.6944444E-02
      1         -6.826613   1.000000
      2         -5.320183   1.000000
      3         -4.519702   1.000000
      4          0.954630   1.000000
      5          1.306300   1.000000
      6          2.086689   1.000000
      7          2.388323   1.000000
      8          4.307624   1.000000
      9          4.437371   1.000000
     10          6.698075   0.000000
     11          6.868777   0.000000
     12          8.851423   0.000000
     13          9.026382   0.000000
     14         12.304317   0.000000
     15         13.693579   0.000000
     16         14.227679   0.000000
     17         14.527426   0.000000
     18         15.027976   0.000000
     19         15.660152   0.000000
     20         16.050012   0.000000
     21         16.467184   0.000000
     22         16.745791   0.000000
     23         17.120955   0.000000
     24         17.703724   0.000000
     25         17.937311   0.000000
     26         18.396437   0.000000
     27         18.784295   0.000000
     28         19.385994   0.000000
     29         19.894024   0.000000
     30         20.389859   0.000000
     31         20.946959   0.000000
     32         21.473203   0.000000
     33         22.158342   0.000000
     34         22.409508   0.000000
     35         22.752664   0.000000
     36         23.196247   0.000000
     37         23.375963   0.000000
     38         24.525981   0.000000
     39         24.860593   0.000000
     40         25.289981   0.000000
     41         26.049266   0.000000
     42         27.117906   0.000000
     43         27.362450   0.000000
     44         27.845423   0.000000
     45         28.183614   0.000000
     46         28.645669   0.000000
     47         28.834532   0.000000
     48         29.130351   0.000000
 
  0.1666667E+00  0.1666667E+00  0.0000000E+00  0.3472222E-02
      1         -7.314176   1.000000
      2         -4.862068   1.000000
      3         -4.617518   1.000000
      4          1.139545   1.000000
      5          1.347624   1.000000
      6          2.640807   1.000000
      7          3.779538   1.000000
      8          4.287732   1.000000
      9          4.289025   1.000000
     10          7.009246   0.000000
     11          7.071467   0.000000
     12          7.378620   0.000000
     13          9.877258   0.000000
     14         10.093885   0.000000
     15         12.317758   0.000000
     16         13.166429   0.000000
     17         13.740778   0.000000
     18         14.167560   0.000000
     19         14.204703   0.000000
     20         15.600044   0.000000
     21         15.994749   0.000000
     22         17.194776   0.000000
     23         17.244788   0.000000
     24         17.867322   0.000000
     25         18.603636   0.000000
     26         18.668731   0.000000
     27         19.269028   0.000000
     28         19.824080   0.000000
     29         21.156899   0.000000
     30         21.520597   0.000000
     31         21.652691   0.000000
     32         21.850023   0.000000
     33         22.005082   0.000000
     34         22.795620   0.000000
     35         23.584829   0.000000
     36         24.232666   0.000000
     37         24.421806   0.000000
     38         24.574171   0.000000
     39         25.600334   0.000000
     40         25.695624   0.000000
     41         26.595248   0.000000
     42         26.712062   0.000000
     43         27.586210   0.000000
     44         27.779367   0.000000
     45         28.137391   0.000000
     46         28.394411   0.000000
     47         28.596115   0.000000
     48         29.271978   0.000000
 
  0.2500000E+00  0.1666667E+00  0.0000000E+00  0.6944444E-02
      1         -7.072673   1.000000
      2         -5.009281   1.000000
      3         -4.639562   1.000000
      4          1.020108   1.000000
      5          1.210035   1.000000
      6          2.438278   1.000000
      7          3.381497   1.000000
      8          3.780619   1.000000
      9          4.041109   1.000000
     10          7.239044   0.000000
     11          7.428002   0.000000
     12          7.998627   0.000000
     13          9.629051   0.000000
     14         10.483774   0.000000
     15         12.781610   0.000000
     16         13.871373   0.000000
     17         14.442905   0.000000
     18         14.776251   0.000000
     19         15.043469   0.000000
     20         15.658866   0.000000
     21         16.443546   0.000000
     22         16.624072   0.000000
     23         17.356007   0.000000
     24         17.832073   0.000000
     25         18.381719   0.000000
     26         18.981393   0.000000
     27         19.671446   0.000000
     28         19.716082   0.000000
     29         20.271413   0.000000
     30         20.352327   0.000000
     31         20.754661   0.000000
     32         21.425545   0.000000
     33         21.996949   0.000000
     34         22.778066   0.000000
     35         23.191535   0.000000
     36         23.666905   0.000000
     37         24.302241   0.000000
     38         24.675635   0.000000
     39         24.955083   0.000000
     40         25.806389   0.000000
     41         26.227390   0.000000
     42         26.535554   0.000000
     43         27.137524   0.000000
     44         27.806283   0.000000
     45         28.097270   0.000000
     46         28.323971   0.000000
     47         28.497914   0.000000
     48         28.981390   0.000000
 
  0.3333333E+00  0.1666667E+00  0.0000000E+00  0.6944444E-02
      1         -6.845942   1.000000
      2         -5.186661   1.000000
      3         -4.652254   1.000000
      4          1.025335   1.000000
      5          1.237577   1.000000
      6          2.233510   1.000000
      7          2.739130   1.000000
      8          3.713330   1.000000
      9          3.863301   1.000000
     10          7.303287   0.000000
     11          7.551621   0.000000
     12          8.672238   0.000000
     13          9.434350   0.000000
     14         11.231340   0.000000
     15         13.305605   0.000000
     16         13.734002   0.000000
     17         14.696591   0.000000
     18         15.062423   0.000000
     19         15.656978   0.000000
     20         15.832326   0.000000
     21         16.347666   0.000000
     22         16.916971   0.000000
     23         17.507377   0.000000
     24         18.068525   0.000000
     25         18.331646   0.000000
     26         18.623463   0.000000
     27         19.016650   0.000000
     28         19.603729   0.000000
     29         19.983256   0.000000
     30         20.304388   0.000000
     31         21.105159   0.000000
     32         21.353414   0.000000
     33         21.761065   0.000000
     34         22.717587   0.000000
     35         23.281267   0.000000
     36         23.574063   0.000000
     37         23.775038   0.000000
     38         24.350263   0.000000
     39         24.445217   0.000000
     40         24.736729   0.000000
     41         25.885764   0.000000
     42         26.282796   0.000000
     43         26.658668   0.000000
     44         27.244714   0.000000
     45         27.976824   0.000000
     46         28.309797   0.000000
     47         29.052918   0.000000
     48         29.169653   0.000000
 
  0.4166667E+00  0.1666667E+00  0.0000000E+00  0.3472222E-02
      1         -6.743873   1.000000
      2         -5.275250   1.000000
      3         -4.655894   1.000000
      4          1.060721   1.000000
      5          1.282277   1.000000
      6          2.257271   1.000000
      7          2.340310   1.000000
      8          3.728594   1.000000
      9          3.777402   1.000000
     10          7.314305   0.000000
     11          7.588417   0.000000
     12          8.951416   0.000000
     13          9.364900   0.000000
     14         11.908245   0.000000
     15         12.743393   0.000000
     16         14.158354   0.000000
     17         14.377529   0.000000
     18         15.099997   0.000000
     19         16.039053   0.000000
     20         16.112781   0.000000
     21         16.686496   0.000000
     22         17.015704   0.000000
     23         17.341189   0.000000
     24         17.684394   0.000000
     25         18.347037   0.000000
     26         18.674837   0.000000
     27         19.019045   0.000000
     28         19.384192   0.000000
     29         19.582398   0.000000
     30         20.091246   0.000000
     31         21.414427   0.000000
     32         21.989342   0.000000
     33         22.456079   0.000000
     34         22.683538   0.000000
     35         22.958814   0.000000
     36         23.177898   0.000000
     37         23.722654   0.000000
     38         23.890047   0.000000
     39         24.249644   0.000000
     40         24.298723   0.000000
     41         25.013514   0.000000
     42         26.353420   0.000000
     43         27.142155   0.000000
     44         27.333851   0.000000
     45         27.531687   0.000000
     46         28.169488   0.000000
     47         29.038142   0.000000
     48         29.074925   0.000000
 
  0.2500000E+00  0.2500000E+00  0.0000000E+00  0.3472222E-02
      1         -6.855211   1.000000
      2         -5.086736   1.000000
      3         -4.751981   1.000000
      4          1.109690   1.000000
      5          1.144926   1.000000
      6          2.402525   1.000000
      7          3.073298   1.000000
      8          3.363921   1.000000