 vasp.6.4.3 19Mar24 (build Jun 26 2024 13:02:28) complex                        
  
 executed on             LinuxIFC date 2025.08.08  18:30:52
 running   48 mpi-ranks, on    4 nodes
 distrk:  each k-point on   48 cores,    1 groups
 distr:  one band on NCORE=   1 cores,   48 groups


--------------------------------------------------------------------------------------------------------


 INCAR:
   ENCUT = 227.47660000000002
   IBRION = -1
   ISMEAR = 0
   ISYM = 2
   LCHARG = True
   LWAVE = True
   SIGMA = 0.05
   SYSTEM = Te

 POTCAR:  PAW_PBE Te 08Apr2002                    
 -----------------------------------------------------------------------------
|                                                                             |
|           W    W    AA    RRRRR   N    N  II  N    N   GGGG   !!!           |
|           W    W   A  A   R    R  NN   N  II  NN   N  G    G  !!!           |
|           W    W  A    A  R    R  N N  N  II  N N  N  G       !!!           |
|           W WW W  AAAAAA  RRRRR   N  N N  II  N  N N  G  GGG   !            |
|           WW  WW  A    A  R   R   N   NN  II  N   NN  G    G                |
|           W    W  A    A  R    R  N    N  II  N    N   GGGG   !!!           |
|                                                                             |
|     For optimal performance we recommend to set                             |
|       NCORE = 2 up to number-of-cores-per-socket                            |
|     NCORE specifies how many cores store one orbital (NPAR=cpu/NCORE).      |
|     This setting can greatly improve the performance of VASP for DFT.       |
|     The default, NCORE=1 might be grossly inefficient on modern             |
|     multi-core architectures or massively parallel machines. Do your        |
|     own testing! More info at https://www.vasp.at/wiki/index.php/NCORE      |
|     Unfortunately you need to use the default for GW and RPA                |
|     calculations (for HF NCORE is supported but not extensively tested      |
|     yet).                                                                   |
|                                                                             |
 -----------------------------------------------------------------------------

 POTCAR:  PAW_PBE Te 08Apr2002                    
   VRHFIN =Te: s2p4                                                                                 
   LEXCH  = PE                                                                                      
   EATOM  =   223.2721 eV,   16.4100 Ry                                                             
                                                                                                    
   TITEL  = PAW_PBE Te 08Apr2002                                                                    
   LULTRA =        F    use ultrasoft PP ?                                                          
   IUNSCR =        1    unscreen: 0-lin 1-nonlin 2-no                                               
   RPACOR =    2.200    partial core radius                                                         
   POMASS =  127.600; ZVAL   =    6.000    mass and valenz                                          
   RCORE  =    2.300    outmost cutoff radius                                                       
   RWIGS  =    2.900; RWIGS  =    1.535    wigner-seitz radius (au A)                               
   ENMAX  =  174.982; ENMIN  =  131.236 eV                                                          
   ICORE  =        3    local potential                                                             
   LCOR   =        T    correct aug charges                                                         
   LPAW   =        T    paw PP                                                                      
   EAUG   =  368.792                                                                                
   DEXC   =    0.000                                                                                
   RMAX   =    2.345    core radius for proj-oper                                                   
   RAUG   =    1.300    factor for augmentation sphere                                              
   RDEP   =    2.397    radius for radial grids                                                     
   RDEPT  =    2.174    core radius for aug-charge                                                  
                                                                                                    
   Atomic configuration                                                                             
   13 entries                                                                                       
     n  l   j            E        occ.                                                              
     1  0  0.50    -31621.2075   2.0000                                                             
     2  0  0.50     -4848.7941   2.0000                                                             
     2  1  1.50     -4352.1960   6.0000                                                             
     3  0  0.50      -964.9612   2.0000                                                             
     3  1  1.50      -803.6179   6.0000                                                             
     3  2  2.50      -559.8710  10.0000                                                             
     4  0  0.50      -164.3522   2.0000                                                             
     4  1  1.50      -114.3756   6.0000                                                             
     4  2  2.50       -41.6483  10.0000                                                             
     5  0  0.50       -15.1072   2.0000                                                             
     5  1  0.50        -5.9526   4.0000                                                             
     5  2  1.50        -5.4423   0.0000                                                             
     4  3  2.50        -5.4423   0.0000                                                             
   Description                                                                                      
     l       E           TYP  RCUT    TYP  RCUT                                                     
     0    -15.1072389     23  2.300                                                                 
     0    -16.4678215     23  2.300                                                                 
     1     -5.9526306     23  2.300                                                                 
     1     -2.4873968     23  2.300                                                                 
     2     -5.4423304     23  2.300                                                                 
     3     -1.3605826     23  2.300                                                                 
  local pseudopotential read in
  partial core-charges read in
  partial kinetic energy density read in
  atomic valenz-charges read in
  non local Contribution for L=           0  read in
    real space projection operators read in
  non local Contribution for L=           0  read in
    real space projection operators read in
  non local Contribution for L=           1  read in
    real space projection operators read in
  non local Contribution for L=           1  read in
    real space projection operators read in
  non local Contribution for L=           2  read in
    real space projection operators read in
    PAW grid and wavefunctions read in
 
   number of l-projection  operators is LMAX  =           5
   number of lm-projection operators is LMMAX =          13
 
PAW_PBE Te 08Apr2002                    :
 energy of atom  1       EATOM= -223.2721
 kinetic energy error for atom=    0.0039 (will be added to EATOM!!)
 
 
 POSCAR: Te3
  positions in direct lattice
  No initial velocities read in


 exchange-correlation table for PE
   RHO(1)=    0.500       N(1)  =     2000
   RHO(2)=  100.500       N(2)  =     4000
 


--------------------------------------------------------------------------------------------------------


 ion  position               nearest neighbor table
   1  0.270  0.000  0.333-   2 2.90   3 2.90   2 3.50   2 3.50   3 3.50   3 3.50
   2  0.000  0.270  0.667-   1 2.90   3 2.90   1 3.50   1 3.50   3 3.50   3 3.50
   3  0.730  0.730  0.000-   2 2.90   1 2.90   1 3.50   2 3.50   1 3.50   2 3.50
 
  LATTYP: Found a hexagonal cell.
 ALAT       =     4.5078800000
 C/A-ratio  =     1.3228967941
  
  Lattice vectors:
  
 A1 = (   4.5078800000,   0.0000000000,   0.0000000000)
 A2 = (  -2.2539400000,   3.9039385972,   0.0000000000)
 A3 = (   0.0000000000,   0.0000000000,   5.9634600000)


Analysis of symmetry for initial positions (statically):
=====================================================================
 Subroutine PRICEL returns:
 Original cell was already a primitive cell.
 

 Routine SETGRP: Setting up the symmetry group for a 
 hexagonal supercell.


 Subroutine GETGRP returns: Found  6 space group operations
 (whereof  2 operations were pure point group operations)
 out of a pool of 24 trial point group operations.


The static configuration has the point symmetry C_2 .
 The point group associated with its full space group is D_3 .


Analysis of symmetry for dynamics (positions and initial velocities):
=====================================================================
 Subroutine PRICEL returns:
 Original cell was already a primitive cell.
 

 Routine SETGRP: Setting up the symmetry group for a 
 hexagonal supercell.


 Subroutine GETGRP returns: Found  6 space group operations
 (whereof  2 operations were pure point group operations)
 out of a pool of 24 trial point group operations.


The dynamic configuration has the point symmetry C_2 .
 The point group associated with its full space group is D_3 .


 Subroutine INISYM returns: Found  6 space group operations
 (whereof  2 operations are pure point group operations),
 and found     1 'primitive' translations


----------------------------------------------------------------------------------------

                                     Primitive cell                                     

  volume of cell :     104.9479

  direct lattice vectors                    reciprocal lattice vectors
     4.507880000  0.000000000  0.000000000     0.221833767  0.128075785  0.000000000
    -2.253940000  3.903938597  0.000000000     0.000000000  0.256151570  0.000000000
     0.000000000  0.000000000  5.963460000    -0.000000000 -0.000000000  0.167687886

  length of vectors
     4.507880000  4.507880000  5.963460000     0.256151570  0.256151570  0.167687886

  position of ions in fractional coordinates (direct lattice)
     0.269660000  0.000000000  0.333333333
     0.000000000  0.269660000  0.666666667
     0.730340000  0.730340000  0.000000000

  ion indices of the primitive-cell ions
   primitive index   ion index
                 1           1
                 2           2
                 3           3

----------------------------------------------------------------------------------------

 
 
 KPOINTS: Automatic kpoint scheme                 

Automatic generation of k-mesh.
 Grid dimensions read from file:
 generate k-points for:   12   12   12

 Generating k-lattice:

  Cartesian coordinates                     Fractional coordinates (reciprocal lattice)
     0.018486147  0.010672982  0.000000000     0.083333333 -0.000000000  0.000000000
     0.000000000  0.021345964  0.000000000     0.000000000  0.083333333  0.000000000
    -0.000000000 -0.000000000  0.013973990    -0.000000000  0.000000000  0.083333333

  Length of vectors
     0.021345964  0.021345964  0.013973990

  Shift w.r.t. Gamma in fractional coordinates (k-lattice)
     0.000000000  0.000000000  0.000000000

 
 Subroutine IBZKPT returns following result:
 ===========================================
 
 Found    193 irreducible k-points:
 
 Following reciprocal coordinates:
            Coordinates               Weight
  0.000000  0.000000  0.000000      1.000000
  0.083333  0.000000  0.000000      6.000000
  0.166667  0.000000  0.000000      6.000000
  0.250000  0.000000  0.000000      6.000000
  0.333333  0.000000  0.000000      6.000000
  0.416667 -0.000000  0.000000      6.000000
  0.500000  0.000000  0.000000      3.000000
  0.083333  0.083333  0.000000      6.000000
  0.166667  0.083333  0.000000     12.000000
  0.250000  0.083333  0.000000     12.000000
  0.333333  0.083333  0.000000     12.000000
  0.416667  0.083333  0.000000     12.000000
  0.166667  0.166667  0.000000      6.000000
  0.250000  0.166667  0.000000     12.000000
  0.333333  0.166667  0.000000     12.000000
  0.416667  0.166667  0.000000      6.000000
  0.250000  0.250000  0.000000      6.000000
  0.333333  0.250000  0.000000     12.000000
  0.333333  0.333333  0.000000      2.000000
  0.000000 -0.000000  0.083333      2.000000
  0.083333 -0.000000  0.083333      6.000000
  0.000000  0.083333  0.083333      6.000000
  0.166667  0.000000  0.083333      6.000000
  0.000000  0.166667  0.083333      6.000000
  0.250000  0.000000  0.083333      6.000000
  0.000000  0.250000  0.083333      6.000000
  0.333333  0.000000  0.083333      6.000000
  0.000000  0.333333  0.083333      6.000000
  0.416667  0.000000  0.083333      6.000000
  0.000000  0.416667  0.083333      6.000000
  0.500000  0.000000  0.083333      6.000000
  0.083333  0.083333  0.083333     12.000000
  0.166667  0.083333  0.083333     12.000000
 -0.083333  0.250000  0.083333     12.000000
  0.250000  0.083333  0.083333     12.000000
 -0.083333  0.333333  0.083333     12.000000
  0.333333  0.083333  0.083333     12.000000
 -0.083333  0.416667  0.083333     12.000000
  0.416667  0.083333  0.083333     12.000000
 -0.083333  0.500000  0.083333     12.000000
  0.166667  0.166667  0.083333     12.000000
  0.250000  0.166667  0.083333     12.000000
 -0.166667  0.416667  0.083333     12.000000
  0.333333  0.166667  0.083333     12.000000
 -0.166667  0.500000  0.083333     12.000000
  0.416667  0.166667  0.083333     12.000000
  0.250000  0.250000  0.083333     12.000000
  0.333333  0.250000  0.083333     12.000000
 -0.250000 -0.416667  0.083333     12.000000
  0.333333  0.333333  0.083333      4.000000
  0.000000  0.000000  0.166667      2.000000
  0.083333  0.000000  0.166667      6.000000
  0.000000  0.083333  0.166667      6.000000
  0.166667 -0.000000  0.166667      6.000000
  0.000000  0.166667  0.166667      6.000000
  0.250000  0.000000  0.166667      6.000000
  0.000000  0.250000  0.166667      6.000000
  0.333333  0.000000  0.166667      6.000000
  0.000000  0.333333  0.166667      6.000000
  0.416667  0.000000  0.166667      6.000000
  0.000000  0.416667  0.166667      6.000000
  0.500000  0.000000  0.166667      6.000000
  0.083333  0.083333  0.166667     12.000000
  0.166667  0.083333  0.166667     12.000000
 -0.083333  0.250000  0.166667     12.000000
  0.250000  0.083333  0.166667     12.000000
 -0.083333  0.333333  0.166667     12.000000
  0.333333  0.083333  0.166667     12.000000
 -0.083333  0.416667  0.166667     12.000000
  0.416667  0.083333  0.166667     12.000000
 -0.083333  0.500000  0.166667     12.000000
  0.166667  0.166667  0.166667     12.000000
  0.250000  0.166667  0.166667     12.000000
 -0.166667  0.416667  0.166667     12.000000
  0.333333  0.166667  0.166667     12.000000
 -0.166667  0.500000  0.166667     12.000000
  0.416667  0.166667  0.166667     12.000000
  0.250000  0.250000  0.166667     12.000000
  0.333333  0.250000  0.166667     12.000000
 -0.250000 -0.416667  0.166667     12.000000
  0.333333  0.333333  0.166667      4.000000
  0.000000 -0.000000  0.250000      2.000000
  0.083333  0.000000  0.250000      6.000000
  0.000000  0.083333  0.250000      6.000000
  0.166667 -0.000000  0.250000      6.000000
  0.000000  0.166667  0.250000      6.000000
  0.250000 -0.000000  0.250000      6.000000
  0.000000  0.250000  0.250000      6.000000
  0.333333 -0.000000  0.250000      6.000000
  0.000000  0.333333  0.250000      6.000000
  0.416667 -0.000000  0.250000      6.000000
  0.000000  0.416667  0.250000      6.000000
  0.500000  0.000000  0.250000      6.000000
  0.083333  0.083333  0.250000     12.000000
  0.166667  0.083333  0.250000     12.000000
 -0.083333  0.250000  0.250000     12.000000
  0.250000  0.083333  0.250000     12.000000
 -0.083333  0.333333  0.250000     12.000000
  0.333333  0.083333  0.250000     12.000000
 -0.083333  0.416667  0.250000     12.000000
  0.416667  0.083333  0.250000     12.000000
 -0.083333  0.500000  0.250000     12.000000
  0.166667  0.166667  0.250000     12.000000
  0.250000  0.166667  0.250000     12.000000
 -0.166667  0.416667  0.250000     12.000000
  0.333333  0.166667  0.250000     12.000000
 -0.166667  0.500000  0.250000     12.000000
  0.416667  0.166667  0.250000     12.000000
  0.250000  0.250000  0.250000     12.000000
  0.333333  0.250000  0.250000     12.000000
 -0.250000 -0.416667  0.250000     12.000000
  0.333333  0.333333  0.250000      4.000000
  0.000000 -0.000000  0.333333      2.000000
  0.083333 -0.000000  0.333333      6.000000
  0.000000  0.083333  0.333333      6.000000
  0.166667  0.000000  0.333333      6.000000
  0.000000  0.166667  0.333333      6.000000
  0.250000  0.000000  0.333333      6.000000
  0.000000  0.250000  0.333333      6.000000
  0.333333 -0.000000  0.333333      6.000000
  0.000000  0.333333  0.333333      6.000000
  0.416667 -0.000000  0.333333      6.000000
  0.000000  0.416667  0.333333      6.000000
  0.500000  0.000000  0.333333      6.000000
  0.083333  0.083333  0.333333     12.000000
  0.166667  0.083333  0.333333     12.000000
 -0.083333  0.250000  0.333333     12.000000
  0.250000  0.083333  0.333333     12.000000
 -0.083333  0.333333  0.333333     12.000000
  0.333333  0.083333  0.333333     12.000000
 -0.083333  0.416667  0.333333     12.000000
  0.416667  0.083333  0.333333     12.000000
 -0.083333  0.500000  0.333333     12.000000
  0.166667  0.166667  0.333333     12.000000
  0.250000  0.166667  0.333333     12.000000
 -0.166667  0.416667  0.333333     12.000000
  0.333333  0.166667  0.333333     12.000000
 -0.166667  0.500000  0.333333     12.000000
  0.416667  0.166667  0.333333     12.000000
  0.250000  0.250000  0.333333     12.000000
  0.333333  0.250000  0.333333     12.000000
 -0.250000 -0.416667  0.333333     12.000000
  0.333333  0.333333  0.333333      4.000000
  0.000000 -0.000000  0.416667      2.000000
  0.083333 -0.000000  0.416667      6.000000
  0.000000  0.083333  0.416667      6.000000
  0.166667  0.000000  0.416667      6.000000
  0.000000  0.166667  0.416667      6.000000
  0.250000  0.000000  0.416667      6.000000
  0.000000  0.250000  0.416667      6.000000
  0.333333  0.000000  0.416667      6.000000
  0.000000  0.333333  0.416667      6.000000
  0.416667 -0.000000  0.416667      6.000000
  0.000000  0.416667  0.416667      6.000000
  0.500000 -0.000000  0.416667      6.000000
  0.083333  0.083333  0.416667     12.000000
  0.166667  0.083333  0.416667     12.000000
 -0.083333  0.250000  0.416667     12.000000
  0.250000  0.083333  0.416667     12.000000
 -0.083333  0.333333  0.416667     12.000000
  0.333333  0.083333  0.416667     12.000000
 -0.083333  0.416667  0.416667     12.000000
  0.416667  0.083333  0.416667     12.000000
 -0.083333  0.500000  0.416667     12.000000
  0.166667  0.166667  0.416667     12.000000
  0.250000  0.166667  0.416667     12.000000
 -0.166667  0.416667  0.416667     12.000000
  0.333333  0.166667  0.416667     12.000000
 -0.166667  0.500000  0.416667     12.000000
  0.416667  0.166667  0.416667     12.000000
  0.250000  0.250000  0.416667     12.000000
  0.333333  0.250000  0.416667     12.000000
 -0.250000 -0.416667  0.416667     12.000000
  0.333333  0.333333  0.416667      4.000000
  0.000000 -0.000000  0.500000      1.000000
  0.083333  0.000000  0.500000      6.000000
  0.166667  0.000000  0.500000      6.000000
  0.250000  0.000000  0.500000      6.000000
  0.333333  0.000000  0.500000      6.000000
  0.416667 -0.000000  0.500000      6.000000
  0.500000 -0.000000  0.500000      3.000000
  0.083333  0.083333  0.500000      6.000000
  0.166667  0.083333  0.500000     12.000000
  0.250000  0.083333  0.500000     12.000000
  0.333333  0.083333  0.500000     12.000000
  0.416667  0.083333  0.500000     12.000000
  0.166667  0.166667  0.500000      6.000000
  0.250000  0.166667  0.500000     12.000000
  0.333333  0.166667  0.500000     12.000000
  0.416667  0.166667  0.500000      6.000000
  0.250000  0.250000  0.500000      6.000000
  0.333333  0.250000  0.500000     12.000000
  0.333333  0.333333  0.500000      2.000000
 
 Following cartesian coordinates:
            Coordinates               Weight
  0.000000  0.000000  0.000000      1.000000
  0.018486  0.010673  0.000000      6.000000
  0.036972  0.021346  0.000000      6.000000
  0.055458  0.032019  0.000000      6.000000
  0.073945  0.042692  0.000000      6.000000
  0.092431  0.053365  0.000000      6.000000
  0.110917  0.064038  0.000000      3.000000
  0.018486  0.032019  0.000000      6.000000
  0.036972  0.042692  0.000000     12.000000
  0.055458  0.053365  0.000000     12.000000
  0.073945  0.064038  0.000000     12.000000
  0.092431  0.074711  0.000000     12.000000
  0.036972  0.064038  0.000000      6.000000
  0.055458  0.074711  0.000000     12.000000
  0.073945  0.085384  0.000000     12.000000
  0.092431  0.096057  0.000000      6.000000
  0.055458  0.096057  0.000000      6.000000
  0.073945  0.106730  0.000000     12.000000
  0.073945  0.128076  0.000000      2.000000
 -0.000000 -0.000000  0.013974      2.000000
  0.018486  0.010673  0.013974      6.000000
 -0.000000  0.021346  0.013974      6.000000
  0.036972  0.021346  0.013974      6.000000
 -0.000000  0.042692  0.013974      6.000000
  0.055458  0.032019  0.013974      6.000000
 -0.000000  0.064038  0.013974      6.000000
  0.073945  0.042692  0.013974      6.000000
 -0.000000  0.085384  0.013974      6.000000
  0.092431  0.053365  0.013974      6.000000
 -0.000000  0.106730  0.013974      6.000000
  0.110917  0.064038  0.013974      6.000000
  0.018486  0.032019  0.013974     12.000000
  0.036972  0.042692  0.013974     12.000000
 -0.018486  0.053365  0.013974     12.000000
  0.055458  0.053365  0.013974     12.000000
 -0.018486  0.074711  0.013974     12.000000
  0.073945  0.064038  0.013974     12.000000
 -0.018486  0.096057  0.013974     12.000000
  0.092431  0.074711  0.013974     12.000000
 -0.018486  0.117403  0.013974     12.000000
  0.036972  0.064038  0.013974     12.000000
  0.055458  0.074711  0.013974     12.000000
 -0.036972  0.085384  0.013974     12.000000
  0.073945  0.085384  0.013974     12.000000
 -0.036972  0.106730  0.013974     12.000000
  0.092431  0.096057  0.013974     12.000000
  0.055458  0.096057  0.013974     12.000000
  0.073945  0.106730  0.013974     12.000000
 -0.055458 -0.138749  0.013974     12.000000
  0.073945  0.128076  0.013974      4.000000
 -0.000000 -0.000000  0.027948      2.000000
  0.018486  0.010673  0.027948      6.000000
 -0.000000  0.021346  0.027948      6.000000
  0.036972  0.021346  0.027948      6.000000
 -0.000000  0.042692  0.027948      6.000000
  0.055458  0.032019  0.027948      6.000000
 -0.000000  0.064038  0.027948      6.000000
  0.073945  0.042692  0.027948      6.000000
 -0.000000  0.085384  0.027948      6.000000
  0.092431  0.053365  0.027948      6.000000
 -0.000000  0.106730  0.027948      6.000000
  0.110917  0.064038  0.027948      6.000000
  0.018486  0.032019  0.027948     12.000000
  0.036972  0.042692  0.027948     12.000000
 -0.018486  0.053365  0.027948     12.000000
  0.055458  0.053365  0.027948     12.000000
 -0.018486  0.074711  0.027948     12.000000
  0.073945  0.064038  0.027948     12.000000
 -0.018486  0.096057  0.027948     12.000000
  0.092431  0.074711  0.027948     12.000000
 -0.018486  0.117403  0.027948     12.000000
  0.036972  0.064038  0.027948     12.000000
  0.055458  0.074711  0.027948     12.000000
 -0.036972  0.085384  0.027948     12.000000
  0.073945  0.085384  0.027948     12.000000
 -0.036972  0.106730  0.027948     12.000000
  0.092431  0.096057  0.027948     12.000000
  0.055458  0.096057  0.027948     12.000000
  0.073945  0.106730  0.027948     12.000000
 -0.055458 -0.138749  0.027948     12.000000
  0.073945  0.128076  0.027948      4.000000
 -0.000000 -0.000000  0.041922      2.000000
  0.018486  0.010673  0.041922      6.000000
 -0.000000  0.021346  0.041922      6.000000
  0.036972  0.021346  0.041922      6.000000
 -0.000000  0.042692  0.041922      6.000000
  0.055458  0.032019  0.041922      6.000000
 -0.000000  0.064038  0.041922      6.000000
  0.073945  0.042692  0.041922      6.000000
 -0.000000  0.085384  0.041922      6.000000
  0.092431  0.053365  0.041922      6.000000
 -0.000000  0.106730  0.041922      6.000000
  0.110917  0.064038  0.041922      6.000000
  0.018486  0.032019  0.041922     12.000000
  0.036972  0.042692  0.041922     12.000000
 -0.018486  0.053365  0.041922     12.000000
  0.055458  0.053365  0.041922     12.000000
 -0.018486  0.074711  0.041922     12.000000
  0.073945  0.064038  0.041922     12.000000
 -0.018486  0.096057  0.041922     12.000000
  0.092431  0.074711  0.041922     12.000000
 -0.018486  0.117403  0.041922     12.000000
  0.036972  0.064038  0.041922     12.000000
  0.055458  0.074711  0.041922     12.000000
 -0.036972  0.085384  0.041922     12.000000
  0.073945  0.085384  0.041922     12.000000
 -0.036972  0.106730  0.041922     12.000000
  0.092431  0.096057  0.041922     12.000000
  0.055458  0.096057  0.041922     12.000000
  0.073945  0.106730  0.041922     12.000000
 -0.055458 -0.138749  0.041922     12.000000
  0.073945  0.128076  0.041922      4.000000
 -0.000000 -0.000000  0.055896      2.000000
  0.018486  0.010673  0.055896      6.000000
 -0.000000  0.021346  0.055896      6.000000
  0.036972  0.021346  0.055896      6.000000
 -0.000000  0.042692  0.055896      6.000000
  0.055458  0.032019  0.055896      6.000000
 -0.000000  0.064038  0.055896      6.000000
  0.073945  0.042692  0.055896      6.000000
 -0.000000  0.085384  0.055896      6.000000
  0.092431  0.053365  0.055896      6.000000
 -0.000000  0.106730  0.055896      6.000000
  0.110917  0.064038  0.055896      6.000000
  0.018486  0.032019  0.055896     12.000000
  0.036972  0.042692  0.055896     12.000000
 -0.018486  0.053365  0.055896     12.000000
  0.055458  0.053365  0.055896     12.000000
 -0.018486  0.074711  0.055896     12.000000
  0.073945  0.064038  0.055896     12.000000
 -0.018486  0.096057  0.055896     12.000000
  0.092431  0.074711  0.055896     12.000000
 -0.018486  0.117403  0.055896     12.000000
  0.036972  0.064038  0.055896     12.000000
  0.055458  0.074711  0.055896     12.000000
 -0.036972  0.085384  0.055896     12.000000
  0.073945  0.085384  0.055896     12.000000
 -0.036972  0.106730  0.055896     12.000000
  0.092431  0.096057  0.055896     12.000000
  0.055458  0.096057  0.055896     12.000000
  0.073945  0.106730  0.055896     12.000000
 -0.055458 -0.138749  0.055896     12.000000
  0.073945  0.128076  0.055896      4.000000
 -0.000000 -0.000000  0.069870      2.000000
  0.018486  0.010673  0.069870      6.000000
 -0.000000  0.021346  0.069870      6.000000
  0.036972  0.021346  0.069870      6.000000
 -0.000000  0.042692  0.069870      6.000000
  0.055458  0.032019  0.069870      6.000000
 -0.000000  0.064038  0.069870      6.000000
  0.073945  0.042692  0.069870      6.000000
 -0.000000  0.085384  0.069870      6.000000
  0.092431  0.053365  0.069870      6.000000
 -0.000000  0.106730  0.069870      6.000000
  0.110917  0.064038  0.069870      6.000000
  0.018486  0.032019  0.069870     12.000000
  0.036972  0.042692  0.069870     12.000000
 -0.018486  0.053365  0.069870     12.000000
  0.055458  0.053365  0.069870     12.000000
 -0.018486  0.074711  0.069870     12.000000
  0.073945  0.064038  0.069870     12.000000
 -0.018486  0.096057  0.069870     12.000000
  0.092431  0.074711  0.069870     12.000000
 -0.018486  0.117403  0.069870     12.000000
  0.036972  0.064038  0.069870     12.000000
  0.055458  0.074711  0.069870     12.000000
 -0.036972  0.085384  0.069870     12.000000
  0.073945  0.085384  0.069870     12.000000
 -0.036972  0.106730  0.069870     12.000000
  0.092431  0.096057  0.069870     12.000000
  0.055458  0.096057  0.069870     12.000000
  0.073945  0.106730  0.069870     12.000000
 -0.055458 -0.138749  0.069870     12.000000
  0.073945  0.128076  0.069870      4.000000
 -0.000000 -0.000000  0.083844      1.000000
  0.018486  0.010673  0.083844      6.000000
  0.036972  0.021346  0.083844      6.000000
  0.055458  0.032019  0.083844      6.000000
  0.073945  0.042692  0.083844      6.000000
  0.092431  0.053365  0.083844      6.000000
  0.110917  0.064038  0.083844      3.000000
  0.018486  0.032019  0.083844      6.000000
  0.036972  0.042692  0.083844     12.000000
  0.055458  0.053365  0.083844     12.000000
  0.073945  0.064038  0.083844     12.000000
  0.092431  0.074711  0.083844     12.000000
  0.036972  0.064038  0.083844      6.000000
  0.055458  0.074711  0.083844     12.000000
  0.073945  0.085384  0.083844     12.000000
  0.092431  0.096057  0.083844      6.000000
  0.055458  0.096057  0.083844      6.000000
  0.073945  0.106730  0.083844     12.000000
  0.073945  0.128076  0.083844      2.000000
 
 
 Subroutine IBZKPT_HF returns following result:
 ==============================================
 
 Found   1728 k-points in 1st BZ
 the following   1728 k-points will be used (e.g. in the exchange kernel)
 Following reciprocal coordinates:   # in IRBZ
  0.000000  0.000000  0.000000    0.00057870   1 t-inv F
  0.083333  0.000000  0.000000    0.00057870   2 t-inv F
  0.166667  0.000000  0.000000    0.00057870   3 t-inv F
  0.250000  0.000000  0.000000    0.00057870   4 t-inv F
  0.333333  0.000000  0.000000    0.00057870   5 t-inv F
  0.416667 -0.000000  0.000000    0.00057870   6 t-inv F
  0.500000  0.000000  0.000000    0.00057870   7 t-inv F
  0.083333  0.083333  0.000000    0.00057870   8 t-inv F
  0.166667  0.083333  0.000000    0.00057870   9 t-inv F
  0.250000  0.083333  0.000000    0.00057870  10 t-inv F
  0.333333  0.083333  0.000000    0.00057870  11 t-inv F
  0.416667  0.083333  0.000000    0.00057870  12 t-inv F
  0.166667  0.166667  0.000000    0.00057870  13 t-inv F
  0.250000  0.166667  0.000000    0.00057870  14 t-inv F
  0.333333  0.166667  0.000000    0.00057870  15 t-inv F
  0.416667  0.166667  0.000000    0.00057870  16 t-inv F
  0.250000  0.250000  0.000000    0.00057870  17 t-inv F
  0.333333  0.250000  0.000000    0.00057870  18 t-inv F
  0.333333  0.333333  0.000000    0.00057870  19 t-inv F
  0.000000 -0.000000  0.083333    0.00057870  20 t-inv F
  0.083333 -0.000000  0.083333    0.00057870  21 t-inv F
  0.000000  0.083333  0.083333    0.00057870  22 t-inv F
  0.166667  0.000000  0.083333    0.00057870  23 t-inv F
  0.000000  0.166667  0.083333    0.00057870  24 t-inv F
  0.250000  0.000000  0.083333    0.00057870  25 t-inv F
  0.000000  0.250000  0.083333    0.00057870  26 t-inv F
  0.333333  0.000000  0.083333    0.00057870  27 t-inv F
  0.000000  0.333333  0.083333    0.00057870  28 t-inv F
  0.416667  0.000000  0.083333    0.00057870  29 t-inv F
  0.000000  0.416667  0.083333    0.00057870  30 t-inv F
  0.500000  0.000000  0.083333    0.00057870  31 t-inv F
  0.083333  0.083333  0.083333    0.00057870  32 t-inv F
  0.166667  0.083333  0.083333    0.00057870  33 t-inv F
 -0.083333  0.250000  0.083333    0.00057870  34 t-inv F
  0.250000  0.083333  0.083333    0.00057870  35 t-inv F
 -0.083333  0.333333  0.083333    0.00057870  36 t-inv F
  0.333333  0.083333  0.083333    0.00057870  37 t-inv F
 -0.083333  0.416667  0.083333    0.00057870  38 t-inv F
  0.416667  0.083333  0.083333    0.00057870  39 t-inv F
 -0.083333  0.500000  0.083333    0.00057870  40 t-inv F
  0.166667  0.166667  0.083333    0.00057870  41 t-inv F
  0.250000  0.166667  0.083333    0.00057870  42 t-inv F
 -0.166667  0.416667  0.083333    0.00057870  43 t-inv F
  0.333333  0.166667  0.083333    0.00057870  44 t-inv F
 -0.166667  0.500000  0.083333    0.00057870  45 t-inv F
  0.416667  0.166667  0.083333    0.00057870  46 t-inv F
  0.250000  0.250000  0.083333    0.00057870  47 t-inv F
  0.333333  0.250000  0.083333    0.00057870  48 t-inv F
 -0.250000 -0.416667  0.083333    0.00057870  49 t-inv F
  0.333333  0.333333  0.083333    0.00057870  50 t-inv F
  0.000000  0.000000  0.166667    0.00057870  51 t-inv F
  0.083333  0.000000  0.166667    0.00057870  52 t-inv F
  0.000000  0.083333  0.166667    0.00057870  53 t-inv F
  0.166667 -0.000000  0.166667    0.00057870  54 t-inv F
  0.000000  0.166667  0.166667    0.00057870  55 t-inv F
  0.250000  0.000000  0.166667    0.00057870  56 t-inv F
  0.000000  0.250000  0.166667    0.00057870  57 t-inv F
  0.333333  0.000000  0.166667    0.00057870  58 t-inv F
  0.000000  0.333333  0.166667    0.00057870  59 t-inv F
  0.416667  0.000000  0.166667    0.00057870  60 t-inv F
  0.000000  0.416667  0.166667    0.00057870  61 t-inv F
  0.500000  0.000000  0.166667    0.00057870  62 t-inv F
  0.083333  0.083333  0.166667    0.00057870  63 t-inv F
  0.166667  0.083333  0.166667    0.00057870  64 t-inv F
 -0.083333  0.250000  0.166667    0.00057870  65 t-inv F
  0.250000  0.083333  0.166667    0.00057870  66 t-inv F
 -0.083333  0.333333  0.166667    0.00057870  67 t-inv F
  0.333333  0.083333  0.166667    0.00057870  68 t-inv F
 -0.083333  0.416667  0.166667    0.00057870  69 t-inv F
  0.416667  0.083333  0.166667    0.00057870  70 t-inv F
 -0.083333  0.500000  0.166667    0.00057870  71 t-inv F
  0.166667  0.166667  0.166667    0.00057870  72 t-inv F
  0.250000  0.166667  0.166667    0.00057870  73 t-inv F
 -0.166667  0.416667  0.166667    0.00057870  74 t-inv F
  0.333333  0.166667  0.166667    0.00057870  75 t-inv F
 -0.166667  0.500000  0.166667    0.00057870  76 t-inv F
  0.416667  0.166667  0.166667    0.00057870  77 t-inv F
  0.250000  0.250000  0.166667    0.00057870  78 t-inv F
  0.333333  0.250000  0.166667    0.00057870  79 t-inv F
 -0.250000 -0.416667  0.166667    0.00057870  80 t-inv F
  0.333333  0.333333  0.166667    0.00057870  81 t-inv F
  0.000000 -0.000000  0.250000    0.00057870  82 t-inv F
  0.083333  0.000000  0.250000    0.00057870  83 t-inv F
  0.000000  0.083333  0.250000    0.00057870  84 t-inv F
  0.166667 -0.000000  0.250000    0.00057870  85 t-inv F
  0.000000  0.166667  0.250000    0.00057870  86 t-inv F
  0.250000 -0.000000  0.250000    0.00057870  87 t-inv F
  0.000000  0.250000  0.250000    0.00057870  88 t-inv F
  0.333333 -0.000000  0.250000    0.00057870  89 t-inv F
  0.000000  0.333333  0.250000    0.00057870  90 t-inv F
  0.416667 -0.000000  0.250000    0.00057870  91 t-inv F
  0.000000  0.416667  0.250000    0.00057870  92 t-inv F
  0.500000  0.000000  0.250000    0.00057870  93 t-inv F
  0.083333  0.083333  0.250000    0.00057870  94 t-inv F
  0.166667  0.083333  0.250000    0.00057870  95 t-inv F
 -0.083333  0.250000  0.250000    0.00057870  96 t-inv F
  0.250000  0.083333  0.250000    0.00057870  97 t-inv F
 -0.083333  0.333333  0.250000    0.00057870  98 t-inv F
  0.333333  0.083333  0.250000    0.00057870  99 t-inv F
 -0.083333  0.416667  0.250000    0.00057870 100 t-inv F
  0.416667  0.083333  0.250000    0.00057870 101 t-inv F
 -0.083333  0.500000  0.250000    0.00057870 102 t-inv F
  0.166667  0.166667  0.250000    0.00057870 103 t-inv F
  0.250000  0.166667  0.250000    0.00057870 104 t-inv F
 -0.166667  0.416667  0.250000    0.00057870 105 t-inv F
  0.333333  0.166667  0.250000    0.00057870 106 t-inv F
 -0.166667  0.500000  0.250000    0.00057870 107 t-inv F
  0.416667  0.166667  0.250000    0.00057870 108 t-inv F
  0.250000  0.250000  0.250000    0.00057870 109 t-inv F
  0.333333  0.250000  0.250000    0.00057870 110 t-inv F
 -0.250000 -0.416667  0.250000    0.00057870 111 t-inv F
  0.333333  0.333333  0.250000    0.00057870 112 t-inv F
  0.000000 -0.000000  0.333333    0.00057870 113 t-inv F
  0.083333 -0.000000  0.333333    0.00057870 114 t-inv F
  0.000000  0.083333  0.333333    0.00057870 115 t-inv F
  0.166667  0.000000  0.333333    0.00057870 116 t-inv F
  0.000000  0.166667  0.333333    0.00057870 117 t-inv F
  0.250000  0.000000  0.333333    0.00057870 118 t-inv F
  0.000000  0.250000  0.333333    0.00057870 119 t-inv F
  0.333333 -0.000000  0.333333    0.00057870 120 t-inv F
  0.000000  0.333333  0.333333    0.00057870 121 t-inv F
  0.416667 -0.000000  0.333333    0.00057870 122 t-inv F
  0.000000  0.416667  0.333333    0.00057870 123 t-inv F
  0.500000  0.000000  0.333333    0.00057870 124 t-inv F
  0.083333  0.083333  0.333333    0.00057870 125 t-inv F
  0.166667  0.083333  0.333333    0.00057870 126 t-inv F
 -0.083333  0.250000  0.333333    0.00057870 127 t-inv F
  0.250000  0.083333  0.333333    0.00057870 128 t-inv F
 -0.083333  0.333333  0.333333    0.00057870 129 t-inv F
  0.333333  0.083333  0.333333    0.00057870 130 t-inv F
 -0.083333  0.416667  0.333333    0.00057870 131 t-inv F
  0.416667  0.083333  0.333333    0.00057870 132 t-inv F
 -0.083333  0.500000  0.333333    0.00057870 133 t-inv F
  0.166667  0.166667  0.333333    0.00057870 134 t-inv F
  0.250000  0.166667  0.333333    0.00057870 135 t-inv F
 -0.166667  0.416667  0.333333    0.00057870 136 t-inv F
  0.333333  0.166667  0.333333    0.00057870 137 t-inv F
 -0.166667  0.500000  0.333333    0.00057870 138 t-inv F
  0.416667  0.166667  0.333333    0.00057870 139 t-inv F
  0.250000  0.250000  0.333333    0.00057870 140 t-inv F
  0.333333  0.250000  0.333333    0.00057870 141 t-inv F
 -0.250000 -0.416667  0.333333    0.00057870 142 t-inv F
  0.333333  0.333333  0.333333    0.00057870 143 t-inv F
  0.000000 -0.000000  0.416667    0.00057870 144 t-inv F
  0.083333 -0.000000  0.416667    0.00057870 145 t-inv F
  0.000000  0.083333  0.416667    0.00057870 146 t-inv F
  0.166667  0.000000  0.416667    0.00057870 147 t-inv F
  0.000000  0.166667  0.416667    0.00057870 148 t-inv F
  0.250000  0.000000  0.416667    0.00057870 149 t-inv F
  0.000000  0.250000  0.416667    0.00057870 150 t-inv F
  0.333333  0.000000  0.416667    0.00057870 151 t-inv F
  0.000000  0.333333  0.416667    0.00057870 152 t-inv F
  0.416667 -0.000000  0.416667    0.00057870 153 t-inv F
  0.000000  0.416667  0.416667    0.00057870 154 t-inv F
  0.500000 -0.000000  0.416667    0.00057870 155 t-inv F
  0.083333  0.083333  0.416667    0.00057870 156 t-inv F
  0.166667  0.083333  0.416667    0.00057870 157 t-inv F
 -0.083333  0.250000  0.416667    0.00057870 158 t-inv F
  0.250000  0.083333  0.416667    0.00057870 159 t-inv F
 -0.083333  0.333333  0.416667    0.00057870 160 t-inv F
  0.333333  0.083333  0.416667    0.00057870 161 t-inv F
 -0.083333  0.416667  0.416667    0.00057870 162 t-inv F
  0.416667  0.083333  0.416667    0.00057870 163 t-inv F
 -0.083333  0.500000  0.416667    0.00057870 164 t-inv F
  0.166667  0.166667  0.416667    0.00057870 165 t-inv F
  0.250000  0.166667  0.416667    0.00057870 166 t-inv F
 -0.166667  0.416667  0.416667    0.00057870 167 t-inv F
  0.333333  0.166667  0.416667    0.00057870 168 t-inv F
 -0.166667  0.500000  0.416667    0.00057870 169 t-inv F
  0.416667  0.166667  0.416667    0.00057870 170 t-inv F
  0.250000  0.250000  0.416667    0.00057870 171 t-inv F
  0.333333  0.250000  0.416667    0.00057870 172 t-inv F
 -0.250000 -0.416667  0.416667    0.00057870 173 t-inv F
  0.333333  0.333333  0.416667    0.00057870 174 t-inv F
  0.000000 -0.000000  0.500000    0.00057870 175 t-inv F
  0.083333  0.000000  0.500000    0.00057870 176 t-inv F
  0.166667  0.000000  0.500000    0.00057870 177 t-inv F
  0.250000  0.000000  0.500000    0.00057870 178 t-inv F
  0.333333  0.000000  0.500000    0.00057870 179 t-inv F
  0.416667 -0.000000  0.500000    0.00057870 180 t-inv F
  0.500000 -0.000000  0.500000    0.00057870 181 t-inv F
  0.083333  0.083333  0.500000    0.00057870 182 t-inv F
  0.166667  0.083333  0.500000    0.00057870 183 t-inv F
  0.250000  0.083333  0.500000    0.00057870 184 t-inv F
  0.333333  0.083333  0.500000    0.00057870 185 t-inv F
  0.416667  0.083333  0.500000    0.00057870 186 t-inv F
  0.166667  0.166667  0.500000    0.00057870 187 t-inv F
  0.250000  0.166667  0.500000    0.00057870 188 t-inv F
  0.333333  0.166667  0.500000    0.00057870 189 t-inv F
  0.416667  0.166667  0.500000    0.00057870 190 t-inv F
  0.250000  0.250000  0.500000    0.00057870 191 t-inv F
  0.333333  0.250000  0.500000    0.00057870 192 t-inv F
  0.333333  0.333333  0.500000    0.00057870 193 t-inv F
  0.000000  0.083333  0.000000    0.00057870   2 t-inv F
 -0.083333  0.083333  0.000000    0.00057870   2 t-inv F
  0.000000 -0.083333  0.000000    0.00057870   2 t-inv F
  0.083333 -0.083333  0.000000    0.00057870   2 t-inv F
 -0.083333  0.000000  0.000000    0.00057870   2 t-inv F
  0.000000  0.166667  0.000000    0.00057870   3 t-inv F
 -0.166667  0.166667  0.000000    0.00057870   3 t-inv F
  0.000000 -0.166667  0.000000    0.00057870   3 t-inv F
  0.166667 -0.166667  0.000000    0.00057870   3 t-inv F
 -0.166667  0.000000  0.000000    0.00057870   3 t-inv F
  0.000000  0.250000  0.000000    0.00057870   4 t-inv F
 -0.250000  0.250000  0.000000    0.00057870   4 t-inv F
  0.000000 -0.250000  0.000000    0.00057870   4 t-inv F
  0.250000 -0.250000  0.000000    0.00057870   4 t-inv F
 -0.250000  0.000000  0.000000    0.00057870   4 t-inv F
  0.000000  0.333333  0.000000    0.00057870   5 t-inv F
 -0.333333  0.333333  0.000000    0.00057870   5 t-inv F
  0.000000 -0.333333  0.000000    0.00057870   5 t-inv F
  0.333333 -0.333333  0.000000    0.00057870   5 t-inv F
 -0.333333  0.000000  0.000000    0.00057870   5 t-inv F
 -0.000000  0.416667  0.000000    0.00057870   6 t-inv F
 -0.416667  0.416667  0.000000    0.00057870   6 t-inv F
 -0.000000 -0.416667  0.000000    0.00057870   6 t-inv F
  0.416667 -0.416667  0.000000    0.00057870   6 t-inv F
 -0.416667 -0.000000  0.000000    0.00057870   6 t-inv F
  0.000000  0.500000  0.000000    0.00057870   7 t-inv F
 -0.500000  0.500000  0.000000    0.00057870   7 t-inv F
 -0.166667  0.083333  0.000000    0.00057870   8 t-inv F
  0.083333 -0.166667  0.000000    0.00057870   8 t-inv F
  0.083333  0.166667  0.000000    0.00057870   9 t-inv F
 -0.250000  0.166667  0.000000    0.00057870   9 t-inv F
  0.083333 -0.250000  0.000000    0.00057870   9 t-inv F
  0.166667 -0.250000  0.000000    0.00057870   9 t-inv F
 -0.250000  0.083333  0.000000    0.00057870   9 t-inv F
  0.083333  0.250000  0.000000    0.00057870  10 t-inv F
 -0.333333  0.250000  0.000000    0.00057870  10 t-inv F
  0.083333 -0.333333  0.000000    0.00057870  10 t-inv F
  0.250000 -0.333333  0.000000    0.00057870  10 t-inv F
 -0.333333  0.083333  0.000000    0.00057870  10 t-inv F
  0.083333  0.333333  0.000000    0.00057870  11 t-inv F
 -0.416667  0.333333  0.000000    0.00057870  11 t-inv F
  0.083333 -0.416667  0.000000    0.00057870  11 t-inv F
  0.333333 -0.416667  0.000000    0.00057870  11 t-inv F
 -0.416667  0.083333  0.000000    0.00057870  11 t-inv F
  0.083333  0.416667  0.000000    0.00057870  12 t-inv F
 -0.500000  0.416667  0.000000    0.00057870  12 t-inv F
  0.083333 -0.500000  0.000000    0.00057870  12 t-inv F
  0.416667 -0.500000  0.000000    0.00057870  12 t-inv F
 -0.500000  0.083333  0.000000    0.00057870  12 t-inv F
 -0.333333  0.166667  0.000000    0.00057870  13 t-inv F
  0.166667 -0.333333  0.000000    0.00057870  13 t-inv F
  0.166667  0.250000  0.000000    0.00057870  14 t-inv F
 -0.416667  0.250000  0.000000    0.00057870  14 t-inv F
  0.166667 -0.416667  0.000000    0.00057870  14 t-inv F
  0.250000 -0.416667  0.000000    0.00057870  14 t-inv F
 -0.416667  0.166667  0.000000    0.00057870  14 t-inv F
  0.166667  0.333333  0.000000    0.00057870  15 t-inv F
 -0.500000  0.333333  0.000000    0.00057870  15 t-inv F
  0.166667 -0.500000  0.000000    0.00057870  15 t-inv F
  0.333333 -0.500000  0.000000    0.00057870  15 t-inv F
 -0.500000  0.166667  0.000000    0.00057870  15 t-inv F
  0.166667  0.416667  0.000000    0.00057870  16 t-inv F
 -0.583333  0.416667  0.000000    0.00057870  16 t-inv F
 -0.500000  0.250000  0.000000    0.00057870  17 t-inv F
  0.250000 -0.500000  0.000000    0.00057870  17 t-inv F
  0.250000  0.333333  0.000000    0.00057870  18 t-inv F
 -0.583333  0.333333  0.000000    0.00057870  18 t-inv F
  0.250000 -0.583333  0.000000    0.00057870  18 t-inv F
  0.333333 -0.583333  0.000000    0.00057870  18 t-inv F
 -0.583333  0.250000  0.000000    0.00057870  18 t-inv F
 -0.000000  0.000000 -0.083333    0.00057870  20 t-inv F
 -0.000000  0.083333 -0.083333    0.00057870  21 t-inv F
 -0.083333  0.083333  0.083333    0.00057870  21 t-inv F
 -0.000000 -0.083333  0.083333    0.00057870  21 t-inv F
  0.083333 -0.083333 -0.083333    0.00057870  21 t-inv F
 -0.083333 -0.000000 -0.083333    0.00057870  21 t-inv F
  0.083333  0.000000 -0.083333    0.00057870  22 t-inv F
 -0.083333  0.000000  0.083333    0.00057870  22 t-inv F
  0.083333 -0.083333  0.083333    0.00057870  22 t-inv F
  0.000000 -0.083333 -0.083333    0.00057870  22 t-inv F
 -0.083333  0.083333 -0.083333    0.00057870  22 t-inv F
  0.000000  0.166667 -0.083333    0.00057870  23 t-inv F
 -0.166667  0.166667  0.083333    0.00057870  23 t-inv F
  0.000000 -0.166667  0.083333    0.00057870  23 t-inv F
  0.166667 -0.166667 -0.083333    0.00057870  23 t-inv F
 -0.166667  0.000000 -0.083333    0.00057870  23 t-inv F
  0.166667  0.000000 -0.083333    0.00057870  24 t-inv F
 -0.166667  0.000000  0.083333    0.00057870  24 t-inv F
  0.166667 -0.166667  0.083333    0.00057870  24 t-inv F
  0.000000 -0.166667 -0.083333    0.00057870  24 t-inv F
 -0.166667  0.166667 -0.083333    0.00057870  24 t-inv F
  0.000000  0.250000 -0.083333    0.00057870  25 t-inv F
 -0.250000  0.250000  0.083333    0.00057870  25 t-inv F
  0.000000 -0.250000  0.083333    0.00057870  25 t-inv F
  0.250000 -0.250000 -0.083333    0.00057870  25 t-inv F
 -0.250000  0.000000 -0.083333    0.00057870  25 t-inv F
  0.250000  0.000000 -0.083333    0.00057870  26 t-inv F
 -0.250000  0.000000  0.083333    0.00057870  26 t-inv F
  0.250000 -0.250000  0.083333    0.00057870  26 t-inv F
  0.000000 -0.250000 -0.083333    0.00057870  26 t-inv F
 -0.250000  0.250000 -0.083333    0.00057870  26 t-inv F
  0.000000  0.333333 -0.083333    0.00057870  27 t-inv F
 -0.333333  0.333333  0.083333    0.00057870  27 t-inv F
  0.000000 -0.333333  0.083333    0.00057870  27 t-inv F
  0.333333 -0.333333 -0.083333    0.00057870  27 t-inv F
 -0.333333  0.000000 -0.083333    0.00057870  27 t-inv F
  0.333333  0.000000 -0.083333    0.00057870  28 t-inv F
 -0.333333  0.000000  0.083333    0.00057870  28 t-inv F
  0.333333 -0.333333  0.083333    0.00057870  28 t-inv F
  0.000000 -0.333333 -0.083333    0.00057870  28 t-inv F
 -0.333333  0.333333 -0.083333    0.00057870  28 t-inv F
  0.000000  0.416667 -0.083333    0.00057870  29 t-inv F
 -0.416667  0.416667  0.083333    0.00057870  29 t-inv F
  0.000000 -0.416667  0.083333    0.00057870  29 t-inv F
  0.416667 -0.416667 -0.083333    0.00057870  29 t-inv F
 -0.416667  0.000000 -0.083333    0.00057870  29 t-inv F
  0.416667  0.000000 -0.083333    0.00057870  30 t-inv F
 -0.416667  0.000000  0.083333    0.00057870  30 t-inv F
  0.416667 -0.416667  0.083333    0.00057870  30 t-inv F
  0.000000 -0.416667 -0.083333    0.00057870  30 t-inv F
 -0.416667  0.416667 -0.083333    0.00057870  30 t-inv F
  0.000000  0.500000 -0.083333    0.00057870  31 t-inv F
 -0.500000  0.500000  0.083333    0.00057870  31 t-inv F
  0.000000 -0.500000  0.083333    0.00057870  31 t-inv F
  0.500000 -0.500000 -0.083333    0.00057870  31 t-inv F
 -0.500000  0.000000 -0.083333    0.00057870  31 t-inv F
  0.083333  0.083333 -0.083333    0.00057870  32 t-inv F
 -0.166667  0.083333  0.083333    0.00057870  32 t-inv F
  0.083333 -0.166667  0.083333    0.00057870  32 t-inv F
  0.083333 -0.166667 -0.083333    0.00057870  32 t-inv F
 -0.166667  0.083333 -0.083333    0.00057870  32 t-inv F
  0.083333  0.166667 -0.083333    0.00057870  33 t-inv F
 -0.250000  0.166667  0.083333    0.00057870  33 t-inv F
  0.083333 -0.250000  0.083333    0.00057870  33 t-inv F
  0.166667 -0.250000 -0.083333    0.00057870  33 t-inv F
 -0.250000  0.083333 -0.083333    0.00057870  33 t-inv F
  0.250000 -0.083333 -0.083333    0.00057870  34 t-inv F
 -0.166667 -0.083333  0.083333    0.00057870  34 t-inv F
  0.250000 -0.166667  0.083333    0.00057870  34 t-inv F
 -0.083333 -0.166667 -0.083333    0.00057870  34 t-inv F
 -0.166667  0.250000 -0.083333    0.00057870  34 t-inv F
  0.083333  0.250000 -0.083333    0.00057870  35 t-inv F
 -0.333333  0.250000  0.083333    0.00057870  35 t-inv F
  0.083333 -0.333333  0.083333    0.00057870  35 t-inv F
  0.250000 -0.333333 -0.083333    0.00057870  35 t-inv F
 -0.333333  0.083333 -0.083333    0.00057870  35 t-inv F
  0.333333 -0.083333 -0.083333    0.00057870  36 t-inv F
 -0.250000 -0.083333  0.083333    0.00057870  36 t-inv F
  0.333333 -0.250000  0.083333    0.00057870  36 t-inv F
 -0.083333 -0.250000 -0.083333    0.00057870  36 t-inv F
 -0.250000  0.333333 -0.083333    0.00057870  36 t-inv F
  0.083333  0.333333 -0.083333    0.00057870  37 t-inv F
 -0.416667  0.333333  0.083333    0.00057870  37 t-inv F
  0.083333 -0.416667  0.083333    0.00057870  37 t-inv F
  0.333333 -0.416667 -0.083333    0.00057870  37 t-inv F
 -0.416667  0.083333 -0.083333    0.00057870  37 t-inv F
  0.416667 -0.083333 -0.083333    0.00057870  38 t-inv F
 -0.333333 -0.083333  0.083333    0.00057870  38 t-inv F
  0.416667 -0.333333  0.083333    0.00057870  38 t-inv F
 -0.083333 -0.333333 -0.083333    0.00057870  38 t-inv F
 -0.333333  0.416667 -0.083333    0.00057870  38 t-inv F
  0.083333  0.416667 -0.083333    0.00057870  39 t-inv F
 -0.500000  0.416667  0.083333    0.00057870  39 t-inv F
  0.083333 -0.500000  0.083333    0.00057870  39 t-inv F
  0.416667 -0.500000 -0.083333    0.00057870  39 t-inv F
 -0.500000  0.083333 -0.083333    0.00057870  39 t-inv F
  0.500000 -0.083333 -0.083333    0.00057870  40 t-inv F
 -0.416667 -0.083333  0.083333    0.00057870  40 t-inv F
  0.500000 -0.416667  0.083333    0.00057870  40 t-inv F
 -0.083333 -0.416667 -0.083333    0.00057870  40 t-inv F
 -0.416667  0.500000 -0.083333    0.00057870  40 t-inv F
  0.166667  0.166667 -0.083333    0.00057870  41 t-inv F
 -0.333333  0.166667  0.083333    0.00057870  41 t-inv F
  0.166667 -0.333333  0.083333    0.00057870  41 t-inv F
  0.166667 -0.333333 -0.083333    0.00057870  41 t-inv F
 -0.333333  0.166667 -0.083333    0.00057870  41 t-inv F
  0.166667  0.250000 -0.083333    0.00057870  42 t-inv F
 -0.416667  0.250000  0.083333    0.00057870  42 t-inv F
  0.166667 -0.416667  0.083333    0.00057870  42 t-inv F
  0.250000 -0.416667 -0.083333    0.00057870  42 t-inv F
 -0.416667  0.166667 -0.083333    0.00057870  42 t-inv F
  0.416667 -0.166667 -0.083333    0.00057870  43 t-inv F
 -0.250000 -0.166667  0.083333    0.00057870  43 t-inv F
  0.416667 -0.250000  0.083333    0.00057870  43 t-inv F
 -0.166667 -0.250000 -0.083333    0.00057870  43 t-inv F
 -0.250000  0.416667 -0.083333    0.00057870  43 t-inv F
  0.166667  0.333333 -0.083333    0.00057870  44 t-inv F
 -0.500000  0.333333  0.083333    0.00057870  44 t-inv F
  0.166667 -0.500000  0.083333    0.00057870  44 t-inv F
  0.333333 -0.500000 -0.083333    0.00057870  44 t-inv F
 -0.500000  0.166667 -0.083333    0.00057870  44 t-inv F
  0.500000 -0.166667 -0.083333    0.00057870  45 t-inv F
 -0.333333 -0.166667  0.083333    0.00057870  45 t-inv F
  0.500000 -0.333333  0.083333    0.00057870  45 t-inv F
 -0.166667 -0.333333 -0.083333    0.00057870  45 t-inv F
 -0.333333  0.500000 -0.083333    0.00057870  45 t-inv F
  0.166667  0.416667 -0.083333    0.00057870  46 t-inv F
 -0.583333  0.416667  0.083333    0.00057870  46 t-inv F
  0.166667 -0.583333  0.083333    0.00057870  46 t-inv F
  0.416667 -0.583333 -0.083333    0.00057870  46 t-inv F
 -0.583333  0.166667 -0.083333    0.00057870  46 t-inv F
  0.250000  0.250000 -0.083333    0.00057870  47 t-inv F
 -0.500000  0.250000  0.083333    0.00057870  47 t-inv F
  0.250000 -0.500000  0.083333    0.00057870  47 t-inv F
  0.250000 -0.500000 -0.083333    0.00057870  47 t-inv F
 -0.500000  0.250000 -0.083333    0.00057870  47 t-inv F
  0.250000  0.333333 -0.083333    0.00057870  48 t-inv F
 -0.583333  0.333333  0.083333    0.00057870  48 t-inv F
  0.250000 -0.583333  0.083333    0.00057870  48 t-inv F
  0.333333 -0.583333 -0.083333    0.00057870  48 t-inv F
 -0.583333  0.250000 -0.083333    0.00057870  48 t-inv F
 -0.416667 -0.250000 -0.083333    0.00057870  49 t-inv F
  0.666667 -0.250000  0.083333    0.00057870  49 t-inv F
 -0.416667  0.666667  0.083333    0.00057870  49 t-inv F
 -0.250000  0.666667 -0.083333    0.00057870  49 t-inv F
  0.666667 -0.416667 -0.083333    0.00057870  49 t-inv F
  0.333333  0.333333 -0.083333    0.00057870  50 t-inv F
  0.000000  0.000000 -0.166667    0.00057870  51 t-inv F
  0.000000  0.083333 -0.166667    0.00057870  52 t-inv F
 -0.083333  0.083333  0.166667    0.00057870  52 t-inv F
  0.000000 -0.083333  0.166667    0.00057870  52 t-inv F
  0.083333 -0.083333 -0.166667    0.00057870  52 t-inv F
 -0.083333  0.000000 -0.166667    0.00057870  52 t-inv F
  0.083333  0.000000 -0.166667    0.00057870  53 t-inv F
 -0.083333  0.000000  0.166667    0.00057870  53 t-inv F
  0.083333 -0.083333  0.166667    0.00057870  53 t-inv F
  0.000000 -0.083333 -0.166667    0.00057870  53 t-inv F
 -0.083333  0.083333 -0.166667    0.00057870  53 t-inv F
 -0.000000  0.166667 -0.166667    0.00057870  54 t-inv F
 -0.166667  0.166667  0.166667    0.00057870  54 t-inv F
 -0.000000 -0.166667  0.166667    0.00057870  54 t-inv F
  0.166667 -0.166667 -0.166667    0.00057870  54 t-inv F
 -0.166667 -0.000000 -0.166667    0.00057870  54 t-inv F
  0.166667  0.000000 -0.166667    0.00057870  55 t-inv F
 -0.166667  0.000000  0.166667    0.00057870  55 t-inv F
  0.166667 -0.166667  0.166667    0.00057870  55 t-inv F
  0.000000 -0.166667 -0.166667    0.00057870  55 t-inv F
 -0.166667  0.166667 -0.166667    0.00057870  55 t-inv F
  0.000000  0.250000 -0.166667    0.00057870  56 t-inv F
 -0.250000  0.250000  0.166667    0.00057870  56 t-inv F
  0.000000 -0.250000  0.166667    0.00057870  56 t-inv F
  0.250000 -0.250000 -0.166667    0.00057870  56 t-inv F
 -0.250000  0.000000 -0.166667    0.00057870  56 t-inv F
  0.250000  0.000000 -0.166667    0.00057870  57 t-inv F
 -0.250000  0.000000  0.166667    0.00057870  57 t-inv F
  0.250000 -0.250000  0.166667    0.00057870  57 t-inv F
  0.000000 -0.250000 -0.166667    0.00057870  57 t-inv F
 -0.250000  0.250000 -0.166667    0.00057870  57 t-inv F
  0.000000  0.333333 -0.166667    0.00057870  58 t-inv F
 -0.333333  0.333333  0.166667    0.00057870  58 t-inv F
  0.000000 -0.333333  0.166667    0.00057870  58 t-inv F
  0.333333 -0.333333 -0.166667    0.00057870  58 t-inv F
 -0.333333  0.000000 -0.166667    0.00057870  58 t-inv F
  0.333333  0.000000 -0.166667    0.00057870  59 t-inv F
 -0.333333  0.000000  0.166667    0.00057870  59 t-inv F
  0.333333 -0.333333  0.166667    0.00057870  59 t-inv F
  0.000000 -0.333333 -0.166667    0.00057870  59 t-inv F
 -0.333333  0.333333 -0.166667    0.00057870  59 t-inv F
  0.000000  0.416667 -0.166667    0.00057870  60 t-inv F
 -0.416667  0.416667  0.166667    0.00057870  60 t-inv F
  0.000000 -0.416667  0.166667    0.00057870  60 t-inv F
  0.416667 -0.416667 -0.166667    0.00057870  60 t-inv F
 -0.416667  0.000000 -0.166667    0.00057870  60 t-inv F
  0.416667  0.000000 -0.166667    0.00057870  61 t-inv F
 -0.416667  0.000000  0.166667    0.00057870  61 t-inv F
  0.416667 -0.416667  0.166667    0.00057870  61 t-inv F
  0.000000 -0.416667 -0.166667    0.00057870  61 t-inv F
 -0.416667  0.416667 -0.166667    0.00057870  61 t-inv F
  0.000000  0.500000 -0.166667    0.00057870  62 t-inv F
 -0.500000  0.500000  0.166667    0.00057870  62 t-inv F
  0.000000 -0.500000  0.166667    0.00057870  62 t-inv F
  0.500000 -0.500000 -0.166667    0.00057870  62 t-inv F
 -0.500000  0.000000 -0.166667    0.00057870  62 t-inv F
  0.083333  0.083333 -0.166667    0.00057870  63 t-inv F
 -0.166667  0.083333  0.166667    0.00057870  63 t-inv F
  0.083333 -0.166667  0.166667    0.00057870  63 t-inv F
  0.083333 -0.166667 -0.166667    0.00057870  63 t-inv F
 -0.166667  0.083333 -0.166667    0.00057870  63 t-inv F
  0.083333  0.166667 -0.166667    0.00057870  64 t-inv F
 -0.250000  0.166667  0.166667    0.00057870  64 t-inv F
  0.083333 -0.250000  0.166667    0.00057870  64 t-inv F
  0.166667 -0.250000 -0.166667    0.00057870  64 t-inv F
 -0.250000  0.083333 -0.166667    0.00057870  64 t-inv F
  0.250000 -0.083333 -0.166667    0.00057870  65 t-inv F
 -0.166667 -0.083333  0.166667    0.00057870  65 t-inv F
  0.250000 -0.166667  0.166667    0.00057870  65 t-inv F
 -0.083333 -0.166667 -0.166667    0.00057870  65 t-inv F
 -0.166667  0.250000 -0.166667    0.00057870  65 t-inv F
  0.083333  0.250000 -0.166667    0.00057870  66 t-inv F
 -0.333333  0.250000  0.166667    0.00057870  66 t-inv F
  0.083333 -0.333333  0.166667    0.00057870  66 t-inv F
  0.250000 -0.333333 -0.166667    0.00057870  66 t-inv F
 -0.333333  0.083333 -0.166667    0.00057870  66 t-inv F
  0.333333 -0.083333 -0.166667    0.00057870  67 t-inv F
 -0.250000 -0.083333  0.166667    0.00057870  67 t-inv F
  0.333333 -0.250000  0.166667    0.00057870  67 t-inv F
 -0.083333 -0.250000 -0.166667    0.00057870  67 t-inv F
 -0.250000  0.333333 -0.166667    0.00057870  67 t-inv F
  0.083333  0.333333 -0.166667    0.00057870  68 t-inv F
 -0.416667  0.333333  0.166667    0.00057870  68 t-inv F
  0.083333 -0.416667  0.166667    0.00057870  68 t-inv F
  0.333333 -0.416667 -0.166667    0.00057870  68 t-inv F
 -0.416667  0.083333 -0.166667    0.00057870  68 t-inv F
  0.416667 -0.083333 -0.166667    0.00057870  69 t-inv F
 -0.333333 -0.083333  0.166667    0.00057870  69 t-inv F
  0.416667 -0.333333  0.166667    0.00057870  69 t-inv F
 -0.083333 -0.333333 -0.166667    0.00057870  69 t-inv F
 -0.333333  0.416667 -0.166667    0.00057870  69 t-inv F
  0.083333  0.416667 -0.166667    0.00057870  70 t-inv F
 -0.500000  0.416667  0.166667    0.00057870  70 t-inv F
  0.083333 -0.500000  0.166667    0.00057870  70 t-inv F
  0.416667 -0.500000 -0.166667    0.00057870  70 t-inv F
 -0.500000  0.083333 -0.166667    0.00057870  70 t-inv F
  0.500000 -0.083333 -0.166667    0.00057870  71 t-inv F
 -0.416667 -0.083333  0.166667    0.00057870  71 t-inv F
  0.500000 -0.416667  0.166667    0.00057870  71 t-inv F
 -0.083333 -0.416667 -0.166667    0.00057870  71 t-inv F
 -0.416667  0.500000 -0.166667    0.00057870  71 t-inv F
  0.166667  0.166667 -0.166667    0.00057870  72 t-inv F
 -0.333333  0.166667  0.166667    0.00057870  72 t-inv F
  0.166667 -0.333333  0.166667    0.00057870  72 t-inv F
  0.166667 -0.333333 -0.166667    0.00057870  72 t-inv F
 -0.333333  0.166667 -0.166667    0.00057870  72 t-inv F
  0.166667  0.250000 -0.166667    0.00057870  73 t-inv F
 -0.416667  0.250000  0.166667    0.00057870  73 t-inv F
  0.166667 -0.416667  0.166667    0.00057870  73 t-inv F
  0.250000 -0.416667 -0.166667    0.00057870  73 t-inv F
 -0.416667  0.166667 -0.166667    0.00057870  73 t-inv F
  0.416667 -0.166667 -0.166667    0.00057870  74 t-inv F
 -0.250000 -0.166667  0.166667    0.00057870  74 t-inv F
  0.416667 -0.250000  0.166667    0.00057870  74 t-inv F
 -0.166667 -0.250000 -0.166667    0.00057870  74 t-inv F
 -0.250000  0.416667 -0.166667    0.00057870  74 t-inv F
  0.166667  0.333333 -0.166667    0.00057870  75 t-inv F
 -0.500000  0.333333  0.166667    0.00057870  75 t-inv F
  0.166667 -0.500000  0.166667    0.00057870  75 t-inv F
  0.333333 -0.500000 -0.166667    0.00057870  75 t-inv F
 -0.500000  0.166667 -0.166667    0.00057870  75 t-inv F
  0.500000 -0.166667 -0.166667    0.00057870  76 t-inv F
 -0.333333 -0.166667  0.166667    0.00057870  76 t-inv F
  0.500000 -0.333333  0.166667    0.00057870  76 t-inv F
 -0.166667 -0.333333 -0.166667    0.00057870  76 t-inv F
 -0.333333  0.500000 -0.166667    0.00057870  76 t-inv F
  0.166667  0.416667 -0.166667    0.00057870  77 t-inv F
 -0.583333  0.416667  0.166667    0.00057870  77 t-inv F
  0.166667 -0.583333  0.166667    0.00057870  77 t-inv F
  0.416667 -0.583333 -0.166667    0.00057870  77 t-inv F
 -0.583333  0.166667 -0.166667    0.00057870  77 t-inv F
  0.250000  0.250000 -0.166667    0.00057870  78 t-inv F
 -0.500000  0.250000  0.166667    0.00057870  78 t-inv F
  0.250000 -0.500000  0.166667    0.00057870  78 t-inv F
  0.250000 -0.500000 -0.166667    0.00057870  78 t-inv F
 -0.500000  0.250000 -0.166667    0.00057870  78 t-inv F
  0.250000  0.333333 -0.166667    0.00057870  79 t-inv F
 -0.583333  0.333333  0.166667    0.00057870  79 t-inv F
  0.250000 -0.583333  0.166667    0.00057870  79 t-inv F
  0.333333 -0.583333 -0.166667    0.00057870  79 t-inv F
 -0.583333  0.250000 -0.166667    0.00057870  79 t-inv F
 -0.416667 -0.250000 -0.166667    0.00057870  80 t-inv F
  0.666667 -0.250000  0.166667    0.00057870  80 t-inv F
 -0.416667  0.666667  0.166667    0.00057870  80 t-inv F
 -0.250000  0.666667 -0.166667    0.00057870  80 t-inv F
  0.666667 -0.416667 -0.166667    0.00057870  80 t-inv F
  0.333333  0.333333 -0.166667    0.00057870  81 t-inv F
 -0.000000  0.000000 -0.250000    0.00057870  82 t-inv F
  0.000000  0.083333 -0.250000    0.00057870  83 t-inv F
 -0.083333  0.083333  0.250000    0.00057870  83 t-inv F
  0.000000 -0.083333  0.250000    0.00057870  83 t-inv F
  0.083333 -0.083333 -0.250000    0.00057870  83 t-inv F
 -0.083333  0.000000 -0.250000    0.00057870  83 t-inv F
  0.083333  0.000000 -0.250000    0.00057870  84 t-inv F
 -0.083333  0.000000  0.250000    0.00057870  84 t-inv F
  0.083333 -0.083333  0.250000    0.00057870  84 t-inv F
  0.000000 -0.083333 -0.250000    0.00057870  84 t-inv F
 -0.083333  0.083333 -0.250000    0.00057870  84 t-inv F
 -0.000000  0.166667 -0.250000    0.00057870  85 t-inv F
 -0.166667  0.166667  0.250000    0.00057870  85 t-inv F
 -0.000000 -0.166667  0.250000    0.00057870  85 t-inv F
  0.166667 -0.166667 -0.250000    0.00057870  85 t-inv F
 -0.166667 -0.000000 -0.250000    0.00057870  85 t-inv F
  0.166667  0.000000 -0.250000    0.00057870  86 t-inv F
 -0.166667  0.000000  0.250000    0.00057870  86 t-inv F
  0.166667 -0.166667  0.250000    0.00057870  86 t-inv F
  0.000000 -0.166667 -0.250000    0.00057870  86 t-inv F
 -0.166667  0.166667 -0.250000    0.00057870  86 t-inv F
 -0.000000  0.250000 -0.250000    0.00057870  87 t-inv F
 -0.250000  0.250000  0.250000    0.00057870  87 t-inv F
 -0.000000 -0.250000  0.250000    0.00057870  87 t-inv F
  0.250000 -0.250000 -0.250000    0.00057870  87 t-inv F
 -0.250000 -0.000000 -0.250000    0.00057870  87 t-inv F
  0.250000  0.000000 -0.250000    0.00057870  88 t-inv F
 -0.250000  0.000000  0.250000    0.00057870  88 t-inv F
  0.250000 -0.250000  0.250000    0.00057870  88 t-inv F
  0.000000 -0.250000 -0.250000    0.00057870  88 t-inv F
 -0.250000  0.250000 -0.250000    0.00057870  88 t-inv F
 -0.000000  0.333333 -0.250000    0.00057870  89 t-inv F
 -0.333333  0.333333  0.250000    0.00057870  89 t-inv F
 -0.000000 -0.333333  0.250000    0.00057870  89 t-inv F
  0.333333 -0.333333 -0.250000    0.00057870  89 t-inv F
 -0.333333 -0.000000 -0.250000    0.00057870  89 t-inv F
  0.333333  0.000000 -0.250000    0.00057870  90 t-inv F
 -0.333333  0.000000  0.250000    0.00057870  90 t-inv F
  0.333333 -0.333333  0.250000    0.00057870  90 t-inv F
  0.000000 -0.333333 -0.250000    0.00057870  90 t-inv F
 -0.333333  0.333333 -0.250000    0.00057870  90 t-inv F
 -0.000000  0.416667 -0.250000    0.00057870  91 t-inv F
 -0.416667  0.416667  0.250000    0.00057870  91 t-inv F
 -0.000000 -0.416667  0.250000    0.00057870  91 t-inv F
  0.416667 -0.416667 -0.250000    0.00057870  91 t-inv F
 -0.416667 -0.000000 -0.250000    0.00057870  91 t-inv F
  0.416667  0.000000 -0.250000    0.00057870  92 t-inv F
 -0.416667  0.000000  0.250000    0.00057870  92 t-inv F
  0.416667 -0.416667  0.250000    0.00057870  92 t-inv F
  0.000000 -0.416667 -0.250000    0.00057870  92 t-inv F
 -0.416667  0.416667 -0.250000    0.00057870  92 t-inv F
  0.000000  0.500000 -0.250000    0.00057870  93 t-inv F
 -0.500000  0.500000  0.250000    0.00057870  93 t-inv F
  0.000000 -0.500000  0.250000    0.00057870  93 t-inv F
  0.500000 -0.500000 -0.250000    0.00057870  93 t-inv F
 -0.500000  0.000000 -0.250000    0.00057870  93 t-inv F
  0.083333  0.083333 -0.250000    0.00057870  94 t-inv F
 -0.166667  0.083333  0.250000    0.00057870  94 t-inv F
  0.083333 -0.166667  0.250000    0.00057870  94 t-inv F
  0.083333 -0.166667 -0.250000    0.00057870  94 t-inv F
 -0.166667  0.083333 -0.250000    0.00057870  94 t-inv F
  0.083333  0.166667 -0.250000    0.00057870  95 t-inv F
 -0.250000  0.166667  0.250000    0.00057870  95 t-inv F
  0.083333 -0.250000  0.250000    0.00057870  95 t-inv F
  0.166667 -0.250000 -0.250000    0.00057870  95 t-inv F
 -0.250000  0.083333 -0.250000    0.00057870  95 t-inv F
  0.250000 -0.083333 -0.250000    0.00057870  96 t-inv F
 -0.166667 -0.083333  0.250000    0.00057870  96 t-inv F
  0.250000 -0.166667  0.250000    0.00057870  96 t-inv F
 -0.083333 -0.166667 -0.250000    0.00057870  96 t-inv F
 -0.166667  0.250000 -0.250000    0.00057870  96 t-inv F
  0.083333  0.250000 -0.250000    0.00057870  97 t-inv F
 -0.333333  0.250000  0.250000    0.00057870  97 t-inv F
  0.083333 -0.333333  0.250000    0.00057870  97 t-inv F
  0.250000 -0.333333 -0.250000    0.00057870  97 t-inv F
 -0.333333  0.083333 -0.250000    0.00057870  97 t-inv F
  0.333333 -0.083333 -0.250000    0.00057870  98 t-inv F
 -0.250000 -0.083333  0.250000    0.00057870  98 t-inv F
  0.333333 -0.250000  0.250000    0.00057870  98 t-inv F
 -0.083333 -0.250000 -0.250000    0.00057870  98 t-inv F
 -0.250000  0.333333 -0.250000    0.00057870  98 t-inv F
  0.083333  0.333333 -0.250000    0.00057870  99 t-inv F
 -0.416667  0.333333  0.250000    0.00057870  99 t-inv F
  0.083333 -0.416667  0.250000    0.00057870  99 t-inv F
  0.333333 -0.416667 -0.250000    0.00057870  99 t-inv F
 -0.416667  0.083333 -0.250000    0.00057870  99 t-inv F
  0.416667 -0.083333 -0.250000    0.00057870 100 t-inv F
 -0.333333 -0.083333  0.250000    0.00057870 100 t-inv F
  0.416667 -0.333333  0.250000    0.00057870 100 t-inv F
 -0.083333 -0.333333 -0.250000    0.00057870 100 t-inv F
 -0.333333  0.416667 -0.250000    0.00057870 100 t-inv F
  0.083333  0.416667 -0.250000    0.00057870 101 t-inv F
 -0.500000  0.416667  0.250000    0.00057870 101 t-inv F
  0.083333 -0.500000  0.250000    0.00057870 101 t-inv F
  0.416667 -0.500000 -0.250000    0.00057870 101 t-inv F
 -0.500000  0.083333 -0.250000    0.00057870 101 t-inv F
  0.500000 -0.083333 -0.250000    0.00057870 102 t-inv F
 -0.416667 -0.083333  0.250000    0.00057870 102 t-inv F
  0.500000 -0.416667  0.250000    0.00057870 102 t-inv F
 -0.083333 -0.416667 -0.250000    0.00057870 102 t-inv F
 -0.416667  0.500000 -0.250000    0.00057870 102 t-inv F
  0.166667  0.166667 -0.250000    0.00057870 103 t-inv F
 -0.333333  0.166667  0.250000    0.00057870 103 t-inv F
  0.166667 -0.333333  0.250000    0.00057870 103 t-inv F
  0.166667 -0.333333 -0.250000    0.00057870 103 t-inv F
 -0.333333  0.166667 -0.250000    0.00057870 103 t-inv F
  0.166667  0.250000 -0.250000    0.00057870 104 t-inv F
 -0.416667  0.250000  0.250000    0.00057870 104 t-inv F
  0.166667 -0.416667  0.250000    0.00057870 104 t-inv F
  0.250000 -0.416667 -0.250000    0.00057870 104 t-inv F
 -0.416667  0.166667 -0.250000    0.00057870 104 t-inv F
  0.416667 -0.166667 -0.250000    0.00057870 105 t-inv F
 -0.250000 -0.166667  0.250000    0.00057870 105 t-inv F
  0.416667 -0.250000  0.250000    0.00057870 105 t-inv F
 -0.166667 -0.250000 -0.250000    0.00057870 105 t-inv F
 -0.250000  0.416667 -0.250000    0.00057870 105 t-inv F
  0.166667  0.333333 -0.250000    0.00057870 106 t-inv F
 -0.500000  0.333333  0.250000    0.00057870 106 t-inv F
  0.166667 -0.500000  0.250000    0.00057870 106 t-inv F
  0.333333 -0.500000 -0.250000    0.00057870 106 t-inv F
 -0.500000  0.166667 -0.250000    0.00057870 106 t-inv F
  0.500000 -0.166667 -0.250000    0.00057870 107 t-inv F
 -0.333333 -0.166667  0.250000    0.00057870 107 t-inv F
  0.500000 -0.333333  0.250000    0.00057870 107 t-inv F
 -0.166667 -0.333333 -0.250000    0.00057870 107 t-inv F
 -0.333333  0.500000 -0.250000    0.00057870 107 t-inv F
  0.166667  0.416667 -0.250000    0.00057870 108 t-inv F
 -0.583333  0.416667  0.250000    0.00057870 108 t-inv F
  0.166667 -0.583333  0.250000    0.00057870 108 t-inv F
  0.416667 -0.583333 -0.250000    0.00057870 108 t-inv F
 -0.583333  0.166667 -0.250000    0.00057870 108 t-inv F
  0.250000  0.250000 -0.250000    0.00057870 109 t-inv F
 -0.500000  0.250000  0.250000    0.00057870 109 t-inv F
  0.250000 -0.500000  0.250000    0.00057870 109 t-inv F
  0.250000 -0.500000 -0.250000    0.00057870 109 t-inv F
 -0.500000  0.250000 -0.250000    0.00057870 109 t-inv F
  0.250000  0.333333 -0.250000    0.00057870 110 t-inv F
 -0.583333  0.333333  0.250000    0.00057870 110 t-inv F
  0.250000 -0.583333  0.250000    0.00057870 110 t-inv F
  0.333333 -0.583333 -0.250000    0.00057870 110 t-inv F
 -0.583333  0.250000 -0.250000    0.00057870 110 t-inv F
 -0.416667 -0.250000 -0.250000    0.00057870 111 t-inv F
  0.666667 -0.250000  0.250000    0.00057870 111 t-inv F
 -0.416667  0.666667  0.250000    0.00057870 111 t-inv F
 -0.250000  0.666667 -0.250000    0.00057870 111 t-inv F
  0.666667 -0.416667 -0.250000    0.00057870 111 t-inv F
  0.333333  0.333333 -0.250000    0.00057870 112 t-inv F
 -0.000000  0.000000 -0.333333    0.00057870 113 t-inv F
 -0.000000  0.083333 -0.333333    0.00057870 114 t-inv F
 -0.083333  0.083333  0.333333    0.00057870 114 t-inv F
 -0.000000 -0.083333  0.333333    0.00057870 114 t-inv F
  0.083333 -0.083333 -0.333333    0.00057870 114 t-inv F
 -0.083333 -0.000000 -0.333333    0.00057870 114 t-inv F
  0.083333  0.000000 -0.333333    0.00057870 115 t-inv F
 -0.083333  0.000000  0.333333    0.00057870 115 t-inv F
  0.083333 -0.083333  0.333333    0.00057870 115 t-inv F
  0.000000 -0.083333 -0.333333    0.00057870 115 t-inv F
 -0.083333  0.083333 -0.333333    0.00057870 115 t-inv F
  0.000000  0.166667 -0.333333    0.00057870 116 t-inv F
 -0.166667  0.166667  0.333333    0.00057870 116 t-inv F
  0.000000 -0.166667  0.333333    0.00057870 116 t-inv F
  0.166667 -0.166667 -0.333333    0.00057870 116 t-inv F
 -0.166667  0.000000 -0.333333    0.00057870 116 t-inv F
  0.166667  0.000000 -0.333333    0.00057870 117 t-inv F
 -0.166667  0.000000  0.333333    0.00057870 117 t-inv F
  0.166667 -0.166667  0.333333    0.00057870 117 t-inv F
  0.000000 -0.166667 -0.333333    0.00057870 117 t-inv F
 -0.166667  0.166667 -0.333333    0.00057870 117 t-inv F
  0.000000  0.250000 -0.333333    0.00057870 118 t-inv F
 -0.250000  0.250000  0.333333    0.00057870 118 t-inv F
  0.000000 -0.250000  0.333333    0.00057870 118 t-inv F
  0.250000 -0.250000 -0.333333    0.00057870 118 t-inv F
 -0.250000  0.000000 -0.333333    0.00057870 118 t-inv F
  0.250000  0.000000 -0.333333    0.00057870 119 t-inv F
 -0.250000  0.000000  0.333333    0.00057870 119 t-inv F
  0.250000 -0.250000  0.333333    0.00057870 119 t-inv F
  0.000000 -0.250000 -0.333333    0.00057870 119 t-inv F
 -0.250000  0.250000 -0.333333    0.00057870 119 t-inv F
 -0.000000  0.333333 -0.333333    0.00057870 120 t-inv F
 -0.333333  0.333333  0.333333    0.00057870 120 t-inv F
 -0.000000 -0.333333  0.333333    0.00057870 120 t-inv F
  0.333333 -0.333333 -0.333333    0.00057870 120 t-inv F
 -0.333333 -0.000000 -0.333333    0.00057870 120 t-inv F
  0.333333  0.000000 -0.333333    0.00057870 121 t-inv F
 -0.333333  0.000000  0.333333    0.00057870 121 t-inv F
  0.333333 -0.333333  0.333333    0.00057870 121 t-inv F
  0.000000 -0.333333 -0.333333    0.00057870 121 t-inv F
 -0.333333  0.333333 -0.333333    0.00057870 121 t-inv F
 -0.000000  0.416667 -0.333333    0.00057870 122 t-inv F
 -0.416667  0.416667  0.333333    0.00057870 122 t-inv F
 -0.000000 -0.416667  0.333333    0.00057870 122 t-inv F
  0.416667 -0.416667 -0.333333    0.00057870 122 t-inv F
 -0.416667 -0.000000 -0.333333    0.00057870 122 t-inv F
  0.416667  0.000000 -0.333333    0.00057870 123 t-inv F
 -0.416667  0.000000  0.333333    0.00057870 123 t-inv F
  0.416667 -0.416667  0.333333    0.00057870 123 t-inv F
  0.000000 -0.416667 -0.333333    0.00057870 123 t-inv F
 -0.416667  0.416667 -0.333333    0.00057870 123 t-inv F
  0.000000  0.500000 -0.333333    0.00057870 124 t-inv F
 -0.500000  0.500000  0.333333    0.00057870 124 t-inv F
  0.000000 -0.500000  0.333333    0.00057870 124 t-inv F
  0.500000 -0.500000 -0.333333    0.00057870 124 t-inv F
 -0.500000  0.000000 -0.333333    0.00057870 124 t-inv F
  0.083333  0.083333 -0.333333    0.00057870 125 t-inv F
 -0.166667  0.083333  0.333333    0.00057870 125 t-inv F
  0.083333 -0.166667  0.333333    0.00057870 125 t-inv F
  0.083333 -0.166667 -0.333333    0.00057870 125 t-inv F
 -0.166667  0.083333 -0.333333    0.00057870 125 t-inv F
  0.083333  0.166667 -0.333333    0.00057870 126 t-inv F
 -0.250000  0.166667  0.333333    0.00057870 126 t-inv F
  0.083333 -0.250000  0.333333    0.00057870 126 t-inv F
  0.166667 -0.250000 -0.333333    0.00057870 126 t-inv F
 -0.250000  0.083333 -0.333333    0.00057870 126 t-inv F
  0.250000 -0.083333 -0.333333    0.00057870 127 t-inv F
 -0.166667 -0.083333  0.333333    0.00057870 127 t-inv F
  0.250000 -0.166667  0.333333    0.00057870 127 t-inv F
 -0.083333 -0.166667 -0.333333    0.00057870 127 t-inv F
 -0.166667  0.250000 -0.333333    0.00057870 127 t-inv F
  0.083333  0.250000 -0.333333    0.00057870 128 t-inv F
 -0.333333  0.250000  0.333333    0.00057870 128 t-inv F
  0.083333 -0.333333  0.333333    0.00057870 128 t-inv F
  0.250000 -0.333333 -0.333333    0.00057870 128 t-inv F
 -0.333333  0.083333 -0.333333    0.00057870 128 t-inv F
  0.333333 -0.083333 -0.333333    0.00057870 129 t-inv F
 -0.250000 -0.083333  0.333333    0.00057870 129 t-inv F
  0.333333 -0.250000  0.333333    0.00057870 129 t-inv F
 -0.083333 -0.250000 -0.333333    0.00057870 129 t-inv F
 -0.250000  0.333333 -0.333333    0.00057870 129 t-inv F
  0.083333  0.333333 -0.333333    0.00057870 130 t-inv F
 -0.416667  0.333333  0.333333    0.00057870 130 t-inv F
  0.083333 -0.416667  0.333333    0.00057870 130 t-inv F
  0.333333 -0.416667 -0.333333    0.00057870 130 t-inv F
 -0.416667  0.083333 -0.333333    0.00057870 130 t-inv F
  0.416667 -0.083333 -0.333333    0.00057870 131 t-inv F
 -0.333333 -0.083333  0.333333    0.00057870 131 t-inv F
  0.416667 -0.333333  0.333333    0.00057870 131 t-inv F
 -0.083333 -0.333333 -0.333333    0.00057870 131 t-inv F
 -0.333333  0.416667 -0.333333    0.00057870 131 t-inv F
  0.083333  0.416667 -0.333333    0.00057870 132 t-inv F
 -0.500000  0.416667  0.333333    0.00057870 132 t-inv F
  0.083333 -0.500000  0.333333    0.00057870 132 t-inv F
  0.416667 -0.500000 -0.333333    0.00057870 132 t-inv F
 -0.500000  0.083333 -0.333333    0.00057870 132 t-inv F
  0.500000 -0.083333 -0.333333    0.00057870 133 t-inv F
 -0.416667 -0.083333  0.333333    0.00057870 133 t-inv F
  0.500000 -0.416667  0.333333    0.00057870 133 t-inv F
 -0.083333 -0.416667 -0.333333    0.00057870 133 t-inv F
 -0.416667  0.500000 -0.333333    0.00057870 133 t-inv F
  0.166667  0.166667 -0.333333    0.00057870 134 t-inv F
 -0.333333  0.166667  0.333333    0.00057870 134 t-inv F
  0.166667 -0.333333  0.333333    0.00057870 134 t-inv F
  0.166667 -0.333333 -0.333333    0.00057870 134 t-inv F
 -0.333333  0.166667 -0.333333    0.00057870 134 t-inv F
  0.166667  0.250000 -0.333333    0.00057870 135 t-inv F
 -0.416667  0.250000  0.333333    0.00057870 135 t-inv F
  0.166667 -0.416667  0.333333    0.00057870 135 t-inv F
  0.250000 -0.416667 -0.333333    0.00057870 135 t-inv F
 -0.416667  0.166667 -0.333333    0.00057870 135 t-inv F
  0.416667 -0.166667 -0.333333    0.00057870 136 t-inv F
 -0.250000 -0.166667  0.333333    0.00057870 136 t-inv F
  0.416667 -0.250000  0.333333    0.00057870 136 t-inv F
 -0.166667 -0.250000 -0.333333    0.00057870 136 t-inv F
 -0.250000  0.416667 -0.333333    0.00057870 136 t-inv F
  0.166667  0.333333 -0.333333    0.00057870 137 t-inv F
 -0.500000  0.333333  0.333333    0.00057870 137 t-inv F
  0.166667 -0.500000  0.333333    0.00057870 137 t-inv F
  0.333333 -0.500000 -0.333333    0.00057870 137 t-inv F
 -0.500000  0.166667 -0.333333    0.00057870 137 t-inv F
  0.500000 -0.166667 -0.333333    0.00057870 138 t-inv F
 -0.333333 -0.166667  0.333333    0.00057870 138 t-inv F
  0.500000 -0.333333  0.333333    0.00057870 138 t-inv F
 -0.166667 -0.333333 -0.333333    0.00057870 138 t-inv F
 -0.333333  0.500000 -0.333333    0.00057870 138 t-inv F
  0.166667  0.416667 -0.333333    0.00057870 139 t-inv F
 -0.583333  0.416667  0.333333    0.00057870 139 t-inv F
  0.166667 -0.583333  0.333333    0.00057870 139 t-inv F
  0.416667 -0.583333 -0.333333    0.00057870 139 t-inv F
 -0.583333  0.166667 -0.333333    0.00057870 139 t-inv F
  0.250000  0.250000 -0.333333    0.00057870 140 t-inv F
 -0.500000  0.250000  0.333333    0.00057870 140 t-inv F
  0.250000 -0.500000  0.333333    0.00057870 140 t-inv F
  0.250000 -0.500000 -0.333333    0.00057870 140 t-inv F
 -0.500000  0.250000 -0.333333    0.00057870 140 t-inv F
  0.250000  0.333333 -0.333333    0.00057870 141 t-inv F
 -0.583333  0.333333  0.333333    0.00057870 141 t-inv F
  0.250000 -0.583333  0.333333    0.00057870 141 t-inv F
  0.333333 -0.583333 -0.333333    0.00057870 141 t-inv F
 -0.583333  0.250000 -0.333333    0.00057870 141 t-inv F
 -0.416667 -0.250000 -0.333333    0.00057870 142 t-inv F
  0.666667 -0.250000  0.333333    0.00057870 142 t-inv F
 -0.416667  0.666667  0.333333    0.00057870 142 t-inv F
 -0.250000  0.666667 -0.333333    0.00057870 142 t-inv F
  0.666667 -0.416667 -0.333333    0.00057870 142 t-inv F
  0.333333  0.333333 -0.333333    0.00057870 143 t-inv F
 -0.000000  0.000000 -0.416667    0.00057870 144 t-inv F
 -0.000000  0.083333 -0.416667    0.00057870 145 t-inv F
 -0.083333  0.083333  0.416667    0.00057870 145 t-inv F
 -0.000000 -0.083333  0.416667    0.00057870 145 t-inv F
  0.083333 -0.083333 -0.416667    0.00057870 145 t-inv F
 -0.083333 -0.000000 -0.416667    0.00057870 145 t-inv F
  0.083333  0.000000 -0.416667    0.00057870 146 t-inv F
 -0.083333  0.000000  0.416667    0.00057870 146 t-inv F
  0.083333 -0.083333  0.416667    0.00057870 146 t-inv F
  0.000000 -0.083333 -0.416667    0.00057870 146 t-inv F
 -0.083333  0.083333 -0.416667    0.00057870 146 t-inv F
  0.000000  0.166667 -0.416667    0.00057870 147 t-inv F
 -0.166667  0.166667  0.416667    0.00057870 147 t-inv F
  0.000000 -0.166667  0.416667    0.00057870 147 t-inv F
  0.166667 -0.166667 -0.416667    0.00057870 147 t-inv F
 -0.166667  0.000000 -0.416667    0.00057870 147 t-inv F
  0.166667  0.000000 -0.416667    0.00057870 148 t-inv F
 -0.166667  0.000000  0.416667    0.00057870 148 t-inv F
  0.166667 -0.166667  0.416667    0.00057870 148 t-inv F
  0.000000 -0.166667 -0.416667    0.00057870 148 t-inv F
 -0.166667  0.166667 -0.416667    0.00057870 148 t-inv F
  0.000000  0.250000 -0.416667    0.00057870 149 t-inv F
 -0.250000  0.250000  0.416667    0.00057870 149 t-inv F
  0.000000 -0.250000  0.416667    0.00057870 149 t-inv F
  0.250000 -0.250000 -0.416667    0.00057870 149 t-inv F
 -0.250000  0.000000 -0.416667    0.00057870 149 t-inv F
  0.250000  0.000000 -0.416667    0.00057870 150 t-inv F
 -0.250000  0.000000  0.416667    0.00057870 150 t-inv F
  0.250000 -0.250000  0.416667    0.00057870 150 t-inv F
[...]
      9       4.8387      2.00000
     10       6.2990      0.00000
     11       7.6413      0.00000
     12       7.7676      0.00000
     13      10.2575      0.00000
     14      10.8287      0.00000
     15      12.1573      0.00000
     16      12.3700      0.00000
     17      12.9682      0.00000
     18      13.8006      0.00000
     19      13.9644      0.00000
     20      15.7457      0.00000
     21      16.0449      0.00000
     22      16.3508      0.00000
     23      17.2071      0.00000
     24      17.3964      0.00000
     25      18.1897      0.00000
     26      18.8661      0.00000
     27      19.7059      0.00000
     28      20.3977      0.00000
     29      21.1681      0.00000
     30      21.2504      0.00000
     31      22.0655      0.00000
     32      22.4540      0.00000
     33      22.5988      0.00000
     34      23.0433      0.00000
     35      23.5767      0.00000
     36      24.2393      0.00000
     37      24.4431      0.00000
     38      24.6447      0.00000
     39      26.1576      0.00000
     40      26.6798      0.00000
     41      26.8810      0.00000
     42      27.3763      0.00000
     43      27.6733      0.00000
     44      27.9403      0.00000
     45      28.1294      0.00000
     46      28.3041      0.00000
     47      28.8787      0.00000
     48      29.3496      0.00000

 k-point   188 :       0.2500    0.1667    0.5000
  band No.  band energies     occupation 
      1      -6.4466      2.00000
      2      -6.2970      2.00000
      3      -3.9818      2.00000
      4       0.7567      2.00000
      5       1.4458      2.00000
      6       1.6938      2.00000
      7       3.8884      2.00000
      8       4.2668      2.00000
      9       4.9118      2.00000
     10       6.4837      0.00000
     11       7.4612      0.00000
     12       7.6978      0.00000
     13      10.3216      0.00000
     14      11.2688      0.00000
     15      11.9673      0.00000
     16      12.6669      0.00000
     17      13.6347      0.00000
     18      14.1498      0.00000
     19      14.8161      0.00000
     20      15.5874      0.00000
     21      16.5264      0.00000
     22      16.6569      0.00000
     23      17.0030      0.00000
     24      17.6097      0.00000
     25      18.0609      0.00000
     26      18.8425      0.00000
     27      20.1350      0.00000
     28      20.7024      0.00000
     29      20.9559      0.00000
     30      21.1266      0.00000
     31      21.6661      0.00000
     32      22.0792      0.00000
     33      22.6088      0.00000
     34      22.9061      0.00000
     35      23.4946      0.00000
     36      24.0073      0.00000
     37      24.5820      0.00000
     38      24.7311      0.00000
     39      25.2969      0.00000
     40      25.6493      0.00000
     41      26.1248      0.00000
     42      26.3053      0.00000
     43      27.0297      0.00000
     44      27.1716      0.00000
     45      27.3892      0.00000
     46      27.8009      0.00000
     47      28.1484      0.00000
     48      29.3288      0.00000

 k-point   189 :       0.3333    0.1667    0.5000
  band No.  band energies     occupation 
      1      -6.3246      2.00000
      2      -6.1022      2.00000
      3      -4.2766      2.00000
      4       0.3963      2.00000
      5       1.2914      2.00000
      6       1.4611      2.00000
      7       4.0656      2.00000
      8       4.4015      2.00000
      9       5.1577      2.00000
     10       6.5517      0.00000
     11       7.1226      0.00000
     12       7.6107      0.00000
     13      10.4554      0.00000
     14      11.2982      0.00000
     15      12.3604      0.00000
     16      13.0851      0.00000
     17      14.0755      0.00000
     18      14.6520      0.00000
     19      15.1160      0.00000
     20      15.4605      0.00000
     21      15.9661      0.00000
     22      16.4314      0.00000
     23      17.5358      0.00000
     24      18.0278      0.00000
     25      18.9653      0.00000
     26      19.3492      0.00000
     27      19.6952      0.00000
     28      19.9183      0.00000
     29      20.2561      0.00000
     30      21.1037      0.00000
     31      21.8354      0.00000
     32      22.1967      0.00000
     33      22.8893      0.00000
     34      22.9878      0.00000
     35      23.5206      0.00000
     36      23.9663      0.00000
     37      24.1396      0.00000
     38      24.4372      0.00000
     39      24.6480      0.00000
     40      25.1415      0.00000
     41      25.7402      0.00000
     42      26.0784      0.00000
     43      26.4583      0.00000
     44      26.7259      0.00000
     45      27.1116      0.00000
     46      27.6700      0.00000
     47      28.0820      0.00000
     48      28.7198      0.00000

 k-point   190 :       0.4167    0.1667    0.5000
  band No.  band energies     occupation 
      1      -6.2778      2.00000
      2      -6.0145      2.00000
      3      -4.3996      2.00000
      4       0.2583      2.00000
      5       1.2726      2.00000
      6       1.3550      2.00000
      7       4.2176      2.00000
      8       4.2936      2.00000
      9       5.4751      2.00000
     10       6.2991      0.00000
     11       7.1213      0.00000
     12       7.5512      0.00000
     13      10.5585      0.00000
     14      11.1248      0.00000
     15      13.2401      0.00000
     16      13.3718      0.00000
     17      13.6176      0.00000
     18      14.3816      0.00000
     19      14.7778      0.00000
     20      15.5757      0.00000
     21      16.5981      0.00000
     22      16.7824      0.00000
     23      17.6176      0.00000
     24      18.1238      0.00000
     25      18.6990      0.00000
     26      18.8096      0.00000
     27      19.6947      0.00000
     28      19.9246      0.00000
     29      21.3020      0.00000
     30      21.3345      0.00000
     31      21.5763      0.00000
     32      21.8888      0.00000
     33      22.3882      0.00000
     34      22.9048      0.00000
     35      23.2001      0.00000
     36      23.5595      0.00000
     37      24.3932      0.00000
     38      24.4173      0.00000
     39      24.5406      0.00000
     40      25.3722      0.00000
     41      25.6250      0.00000
     42      26.0729      0.00000
     43      26.4438      0.00000
     44      26.4446      0.00000
     45      27.0987      0.00000
     46      27.7166      0.00000
     47      28.2628      0.00000
     48      28.3115      0.00000

 k-point   191 :       0.2500    0.2500    0.5000
  band No.  band energies     occupation 
      1      -6.2950      2.00000
      2      -6.1449      2.00000
      3      -4.2483      2.00000
      4       0.6061      2.00000
      5       0.9928      2.00000
      6       1.3157      2.00000
      7       4.2869      2.00000
      8       4.6691      2.00000
      9       5.1966      2.00000
     10       6.3463      0.00000
     11       7.2744      0.00000
     12       7.3105      0.00000
     13      10.6829      0.00000
     14      11.5769      0.00000
     15      12.1049      0.00000
     16      12.2632      0.00000
     17      14.3283      0.00000
     18      14.4636      0.00000
     19      15.4127      0.00000
     20      15.7638      0.00000
     21      15.9859      0.00000
     22      16.3825      0.00000
     23      17.2942      0.00000
     24      18.2892      0.00000
     25      18.8727      0.00000
     26      19.6490      0.00000
     27      19.7279      0.00000
     28      20.5135      0.00000
     29      20.5756      0.00000
     30      21.0616      0.00000
     31      21.4263      0.00000
     32      21.6756      0.00000
     33      22.1758      0.00000
     34      23.3854      0.00000
     35      23.5852      0.00000
     36      23.9904      0.00000
     37      24.3940      0.00000
     38      24.4755      0.00000
     39      24.7210      0.00000
     40      25.0045      0.00000
     41      25.4907      0.00000
     42      26.0140      0.00000
     43      26.2361      0.00000
     44      26.4112      0.00000
     45      27.2538      0.00000
     46      27.5146      0.00000
     47      27.7165      0.00000
     48      28.8202      0.00000

 k-point   192 :       0.3333    0.2500    0.5000
  band No.  band energies     occupation 
      1      -6.1909      2.00000
      2      -6.0489      2.00000
      3      -4.4171      2.00000
      4       0.4591      2.00000
      5       0.8845      2.00000
      6       1.0325      2.00000
      7       4.5263      2.00000
      8       4.9858      2.00000
      9       5.4482      2.00000
     10       6.1896      0.00000
     11       6.9361      0.00000
     12       7.1461      0.00000
     13      11.0157      0.00000
     14      11.6439      0.00000
     15      12.4077      0.00000
     16      12.5904      0.00000
     17      13.5235      0.00000
     18      13.8514      0.00000
     19      15.7086      0.00000
     20      16.2440      0.00000
     21      16.6294      0.00000
     22      17.1726      0.00000
     23      17.8399      0.00000
     24      18.2294      0.00000
     25      18.9423      0.00000
     26      19.4606      0.00000
     27      19.6205      0.00000
     28      20.2906      0.00000
     29      20.5772      0.00000
     30      20.8582      0.00000
     31      21.3043      0.00000
     32      21.9531      0.00000
     33      22.1541      0.00000
     34      22.9506      0.00000
     35      23.3088      0.00000
     36      23.5633      0.00000
     37      23.8686      0.00000
     38      24.4710      0.00000
     39      24.7362      0.00000
     40      25.0280      0.00000
     41      25.3075      0.00000
     42      25.7325      0.00000
     43      26.0846      0.00000
     44      26.3010      0.00000
     45      26.8405      0.00000
     46      27.9615      0.00000
     47      28.3097      0.00000
     48      28.4815      0.00000

 k-point   193 :       0.3333    0.3333    0.5000
  band No.  band energies     occupation 
      1      -6.0849      2.00000
      2      -6.0849      2.00000
      3      -4.4662      2.00000
      4       0.5989      2.00000
      5       0.7506      2.00000
      6       0.7506      2.00000
      7       4.6871      2.00000
      8       5.5666      1.99479
      9       5.5666      1.99479
     10       5.7559      0.01049
     11       6.8774      0.00000
     12       6.8774      0.00000
     13      11.4926      0.00000
     14      12.0824      0.00000
     15      12.0824      0.00000
     16      12.6191      0.00000
     17      13.0744      0.00000
     18      13.0744      0.00000
     19      16.7095      0.00000
     20      16.7753      0.00000
     21      16.7753      0.00000
     22      17.2561      0.00000
     23      17.9747      0.00000
     24      17.9747      0.00000
     25      19.0350      0.00000
     26      19.0350      0.00000
     27      19.9311      0.00000
     28      20.3903      0.00000
     29      20.7223      0.00000
     30      20.7224      0.00000
     31      21.6223      0.00000
     32      21.6224      0.00000
     33      22.0770      0.00000
     34      22.2706      0.00000
     35      23.2936      0.00000
     36      23.2937      0.00000
     37      24.0796      0.00000
     38      24.0796      0.00000
     39      24.6943      0.00000
     40      24.9342      0.00000
     41      24.9342      0.00000
     42      25.5660      0.00000
     43      26.4980      0.00000
     44      26.6783      0.00000
     45      26.6783      0.00000
     46      27.7165      0.00000
     47      28.5871      0.00000
     48      28.5871      0.00000


--------------------------------------------------------------------------------------------------------


 soft charge-density along one line, spin component           1
         0         1         2         3         4         5         6         7         8         9
 total charge-density along one line
 
 pseudopotential strength for first ion, spin component:           1
 51.783  56.341   0.000   0.000  -0.049   0.000   0.000  -0.071
 56.341  61.303   0.000   0.000  -0.053   0.000   0.000  -0.077
  0.000   0.000  12.743   0.010   0.000  18.368   0.014   0.000
  0.000   0.000   0.010  12.759   0.000   0.014  18.391   0.000
 -0.049  -0.053   0.000   0.000  12.759   0.000   0.000  18.391
  0.000   0.000  18.368   0.014   0.000  26.487   0.020   0.000
  0.000   0.000   0.014  18.391   0.000   0.020  26.519   0.000
 -0.071  -0.077   0.000   0.000  18.391   0.000   0.000  26.520
  0.000   0.000  -0.010   0.000   0.000  -0.014   0.001   0.000
  0.015   0.016   0.000   0.000   0.000   0.000   0.000   0.001
  0.007   0.008  -0.000  -0.000   0.006  -0.000  -0.000   0.009
  0.000   0.000   0.000  -0.009   0.000   0.001  -0.013   0.000
  0.012   0.013   0.000  -0.000  -0.009   0.000  -0.000  -0.014
 total augmentation occupancy for first ion, spin component:           1
 12.871  -9.319   0.000   0.000   2.170   0.000  -0.000  -0.586   0.000  -0.160  -0.092  -0.000  -0.115
 -9.319   7.989  -0.000  -0.000  -1.816   0.000   0.000   0.498  -0.000   0.145   0.083   0.000   0.104
  0.000   0.000   2.613   0.206   0.000  -0.516  -0.189  -0.000  -0.055  -0.000   0.000  -0.050  -0.000
  0.000  -0.000   0.206   2.941   0.000  -0.190  -0.819  -0.000  -0.048  -0.000  -0.000  -0.121  -0.000
  2.170  -1.816   0.000   0.000   2.834  -0.000  -0.000  -0.761   0.000  -0.055  -0.015  -0.000  -0.054
  0.000   0.000  -0.516  -0.190  -0.000   0.177   0.074   0.000   0.014   0.000  -0.000   0.018   0.000
 -0.000   0.000  -0.189  -0.819  -0.000   0.074   0.293   0.000   0.018   0.000  -0.000   0.037   0.000
 -0.586   0.498  -0.000  -0.000  -0.761   0.000   0.000   0.263  -0.000   0.016   0.004   0.000   0.014
  0.000  -0.000  -0.055  -0.048   0.000   0.014   0.018  -0.000   0.009  -0.000  -0.000   0.010  -0.000
 -0.160   0.145  -0.000  -0.000  -0.055   0.000   0.000   0.016  -0.000   0.013   0.004   0.000   0.003
 -0.092   0.083   0.000  -0.000  -0.015  -0.000  -0.000   0.004  -0.000   0.004   0.007   0.000  -0.001
 -0.000   0.000  -0.050  -0.121  -0.000   0.018   0.037   0.000   0.010   0.000   0.000   0.025   0.000
 -0.115   0.104  -0.000  -0.000  -0.054   0.000   0.000   0.014  -0.000   0.003  -0.001   0.000   0.009


------------------------ aborting loop because EDIFF is reached ----------------------------------------


    CHARGE:  cpu time      0.0158: real time      0.0158
    FORLOC:  cpu time      0.0001: real time      0.0002
    FORNL :  cpu time      0.0432: real time      0.0433
    STRESS:  cpu time      0.3933: real time      0.3933
    FORCOR:  cpu time      0.0019: real time      0.0021
    FORHAR:  cpu time      0.0005: real time      0.0006
    MIXING:  cpu time      0.0005: real time      0.0005
    OFIELD:  cpu time      0.0000: real time      0.0001

  FORCE on cell =-STRESS in cart. coord.  units (eV):
  Direction    XX          YY          ZZ          XY          YZ          ZX
  --------------------------------------------------------------------------------------
  Alpha Z     2.22732     2.22732     2.22732
  Ewald    -235.18533  -235.18533  -197.82143    -0.00000     0.00000    -0.00000
  Hartree    11.78072    11.78072    21.59150    -0.00000    -0.00000    -0.00000
  E(xc)     -70.21806   -70.21807   -69.75614    -0.00001     0.00000     0.00000
  Local    -114.59546  -114.59580  -152.97049    -0.00029     0.00000     0.00000
  n-local   332.31671   331.78568   327.92091    -0.40583    -0.48890    -0.82005
  augment   -81.03732   -81.03701   -78.89721     0.00026     0.00000    -0.00000
  Kinetic   155.74004   154.13190   147.64939    -4.21867    -0.49955     1.15772
  Fock        0.00000     0.00000     0.00000     0.00000     0.00000     0.00000
  -------------------------------------------------------------------------------------
  Total      -0.04099    -0.04099    -0.05615     0.00000     0.00000    -0.00000
  in kB      -0.62580    -0.62580    -0.85714     0.00000     0.00000    -0.00000
  external pressure =       -0.70 kB  Pullay stress =        0.00 kB


 VOLUME and BASIS-vectors are now :
 -----------------------------------------------------------------------------
  energy-cutoff  :      227.48
  volume of cell :      104.95
      direct lattice vectors                 reciprocal lattice vectors
     4.507880000  0.000000000  0.000000000     0.221833767  0.128075785  0.000000000
    -2.253940000  3.903938597  0.000000000     0.000000000  0.256151570  0.000000000
     0.000000000  0.000000000  5.963460000    -0.000000000 -0.000000000  0.167687886

  length of vectors
     4.507880000  4.507880000  5.963460000     0.256151570  0.256151570  0.167687886


 FORCES acting on ions
    electron-ion (+dipol)            ewald-force                    non-local-force                 convergence-correction
 -----------------------------------------------------------------------------------------------
   -.118E+02 0.999E-06 -.117E-05   0.168E+02 -.102E-11 -.508E-11   -.505E+01 -.181E-16 -.365E-15   0.276E-02 0.352E-07 0.212E-08
   0.588E+01 -.102E+02 0.141E-05   -.840E+01 0.146E+02 0.508E-11   0.252E+01 -.437E+01 -.454E-15   -.138E-02 0.239E-02 -.211E-08
   0.588E+01 0.102E+02 -.177E-06   -.840E+01 -.146E+02 0.225E-17   0.252E+01 0.437E+01 0.664E-15   -.138E-02 -.239E-02 -.108E-10
 -----------------------------------------------------------------------------------------------
   -.209E-05 -.376E-05 0.550E-07   -.178E-14 0.355E-14 0.225E-17   -.444E-15 0.000E+00 -.155E-15   -.220E-07 -.381E-07 -.151E-12
 
 
 POSITION                                       TOTAL-FORCE (eV/Angst)
 -----------------------------------------------------------------------------------
      1.21559      0.00000      1.98782         0.000025      0.000000      0.000000
     -0.60780      1.05274      3.97564        -0.000012      0.000021      0.000000
      1.64614      2.85120      0.00000        -0.000012     -0.000021     -0.000000
 -----------------------------------------------------------------------------------
    total drift:                               -0.000002     -0.000004      0.000000


--------------------------------------------------------------------------------------------------------



  FREE ENERGIE OF THE ION-ELECTRON SYSTEM (eV)
  ---------------------------------------------------
  free  energy   TOTEN  =        -9.42384339 eV

  energy  without entropy=       -9.42384083  energy(sigma->0) =       -9.42384211
 


--------------------------------------------------------------------------------------------------------


    POTLOK:  cpu time      0.0039: real time      0.0039


--------------------------------------------------------------------------------------------------------


 writing wavefunctions
     LOOP+:  cpu time     25.1304: real time     25.1488
    4ORBIT:  cpu time      0.0000: real time      0.0000

 total amount of memory used by VASP MPI-rank0    50725. kBytes
=======================================================================

   base      :      30000. kBytes
   nonl-proj :      17383. kBytes
   fftplans  :        101. kBytes
   grid      :        401. kBytes
   one-center:         24. kBytes
   wavefun   :       2816. kBytes
 
  
  
 General timing and accounting informations for this job:
 ========================================================
  
                  Total CPU time used (sec):       26.182
                            User time (sec):       25.630
                          System time (sec):        0.552
                         Elapsed time (sec):       26.565
  
                   Maximum memory used (kb):      226580.
                   Average memory used (kb):          N/A
  
                          Minor page faults:        23688
                          Major page faults:            0
                 Voluntary context switches:         4220
