 DBCSR| CPU Multiplication driver                                           BLAS (U)
 DBCSR| Multrec recursion limit                                              512 (U)
 DBCSR| Multiplication stack size                                           1000 (D)
 DBCSR| Maximum elements for images                                    UNLIMITED (U)
 DBCSR| Multiplicative factor virtual images                                   1 (U)
 DBCSR| Use multiplication densification                                       T (D)
 DBCSR| Multiplication size stacks                                             3 (U)
 DBCSR| Use memory pool for CPU allocation                                     F (U)
 DBCSR| Number of 3D layers                                               SINGLE (U)
 DBCSR| Use MPI memory allocation                                              F (U)
 DBCSR| Use RMA algorithm                                                      F (U)
 DBCSR| Use Communication thread                                               T (U)
 DBCSR| Communication thread load                                             45 (D)
 DBCSR| MPI: My process id                                                     0
 DBCSR| MPI: Number of processes                                              16
 DBCSR| OMP: Current number of threads                                        12
 DBCSR| OMP: Max number of threads                                            12
 DBCSR| Split modifier for TAS multiplication algorithm                  1.0E+00 (U)


  **** **** ******  **  PROGRAM STARTED AT               2025-08-05 17:50:34.997
 ***** ** ***  *** **   PROGRAM STARTED ON                          i01r07c04s09
 **    ****   ******    PROGRAM STARTED BY                               di38fab
 ***** **    ** ** **   PROGRAM PROCESS ID                               4191851
  **** **  *******  **  PROGRAM STARTED IN /hppfs/scratch/04/di38fab/09_GTH/Delt
                                           a_Set/Cu/aug-TZVP-MOLOPT-GTH-tier-2/8
                                           x8x8

 CP2K| version string:                 CP2K version 2025.1 (Development Version)
 CP2K| source code revision number:                                  git:3130539
 CP2K| cp2kflags: omp libint fftw3 libxc parallel scalapack max_contr=4         
 CP2K| is freely available from                            https://www.cp2k.org/
 CP2K| Program compiled at                         Tue Jun  3 16:14:32 CEST 2025
 CP2K| Program compiled on                                               login01
 CP2K| Program compiled for                                        Supermuc-foss
 CP2K| Data directory path                  /hppfs/work/pn36zo/di38fab/cp2k/data
 CP2K| Input file name                                                    GW.inp

 GLOBAL| Force Environment number                                              1
 GLOBAL| Basis set file name            /hppfs/scratch/04/di38fab/09_GTH/BASIS_A
 GLOBAL| Potential file name            /hppfs/work/pn36zo/di38fab/cp2k/data/GTH
 GLOBAL| MM Potential file name                                     MM_POTENTIAL
 GLOBAL| Coordinate file name                                             Cu.cif
 GLOBAL| Method name                                                        CP2K
 GLOBAL| Project name                                                       WSe2
 GLOBAL| Run type                                                         ENERGY
 GLOBAL| FFT library                                                       FFTW3
 GLOBAL| Diagonalization library                                       ScaLAPACK
 GLOBAL| Cholesky decomposition library                                ScaLAPACK
 GLOBAL| DGEMM library                                                      BLAS
 GLOBAL| Orthonormality check for eigenvectors                          DISABLED
 GLOBAL| Matrix multiplication library                                 ScaLAPACK
 GLOBAL| All-to-all communication in single precision                          F
 GLOBAL| FFTs using library dependent lengths                                  F
 GLOBAL| Grid backend                                                       AUTO
 GLOBAL| Global print level                                               MEDIUM
 GLOBAL| MPI I/O enabled                                                       T
 GLOBAL| Total number of message passing processes                            16
 GLOBAL| Number of threads for this process                                   12
 GLOBAL| This output is from process                                           0
 GLOBAL| OpenMP stack size per thread (OMP_STACKSIZE)                    default
 GLOBAL| CPU model name             Intel(R) Xeon(R) Platinum 8174 CPU @ 3.10GHz

 MEMORY| system memory details [Kb]
 MEMORY|                        rank 0           min           max       average
 MEMORY| MemTotal             98436660      98436660      98436692      98436670
 MEMORY| MemFree              85177212      84680008      85177212      84820319
 MEMORY| Buffers                     0             0             0             0
 MEMORY| Cached                2383372       2383372       2404560       2393348
 MEMORY| Slab                  1259580       1259580       1298300       1284353
 MEMORY| SReclaimable           280476        277160        283248        280556
 MEMORY| MemLikelyFree        87841060      87345372      87841060      87494223


 *** Fundamental physical constants (SI units) ***

 *** Literature: B. J. Mohr and B. N. Taylor,
 ***             CODATA recommended values of the fundamental physical
 ***             constants: 2006, Web Version 5.1
 ***             http://physics.nist.gov/constants

 Speed of light in vacuum [m/s]                             2.99792458000000E+08
 Magnetic constant or permeability of vacuum [N/A**2]       1.25663706143592E-06
 Electric constant or permittivity of vacuum [F/m]          8.85418781762039E-12
 Planck constant (h) [J*s]                                  6.62606896000000E-34
 Planck constant (h-bar) [J*s]                              1.05457162825177E-34
 Elementary charge [C]                                      1.60217648700000E-19
 Electron mass [kg]                                         9.10938215000000E-31
 Electron g factor [ ]                                     -2.00231930436220E+00
 Proton mass [kg]                                           1.67262163700000E-27
 Fine-structure constant                                    7.29735253760000E-03
 Rydberg constant [1/m]                                     1.09737315685270E+07
 Avogadro constant [1/mol]                                  6.02214179000000E+23
 Boltzmann constant [J/K]                                   1.38065040000000E-23
 Atomic mass unit [kg]                                      1.66053878200000E-27
 Bohr radius [m]                                            5.29177208590000E-11

 *** Conversion factors ***

 [u] -> [a.u.]                                              1.82288848426455E+03
 [Angstrom] -> [Bohr] = [a.u.]                              1.88972613288564E+00
 [a.u.] = [Bohr] -> [Angstrom]                              5.29177208590000E-01
 [a.u.] -> [s]                                              2.41888432650478E-17
 [a.u.] -> [fs]                                             2.41888432650478E-02
 [a.u.] -> [J]                                              4.35974393937059E-18
 [a.u.] -> [N]                                              8.23872205491840E-08
 [a.u.] -> [K]                                              3.15774647902944E+05
 [a.u.] -> [kJ/mol]                                         2.62549961709828E+03
 [a.u.] -> [kcal/mol]                                       6.27509468713739E+02
 [a.u.] -> [Pa]                                             2.94210107994716E+13
 [a.u.] -> [bar]                                            2.94210107994716E+08
 [a.u.] -> [atm]                                            2.90362800883016E+08
 [a.u.] -> [eV]                                             2.72113838565563E+01
 [a.u.] -> [Hz]                                             6.57968392072181E+15
 [a.u.] -> [1/cm] (wave numbers)                            2.19474631370540E+05
 [a.u./Bohr**2] -> [1/cm]                                   5.14048714338585E+03
 

 CELL_TOP| Volume [angstrom^3]:                                        48.105031
 CELL_TOP| Vector a [angstrom     3.637     0.000     0.000   |a| =     3.636890
 CELL_TOP| Vector b [angstrom     0.000     3.637     0.000   |b| =     3.636890
 CELL_TOP| Vector c [angstrom     0.000     0.000     3.637   |c| =     3.636890
 CELL_TOP| Angle (b,c), alpha [degree]:                                90.000000
 CELL_TOP| Angle (a,c), beta  [degree]:                                90.000000
 CELL_TOP| Angle (a,b), gamma [degree]:                                90.000000
 CELL_TOP| Numerically orthorhombic:                                         YES
 CELL_TOP| Periodicity                                                       XYZ

 CELL_CIF| Volume [angstrom^3]:                                        48.105031
 CELL_CIF| Vector a [angstrom     3.637     0.000     0.000   |a| =     3.636890
 CELL_CIF| Vector b [angstrom     0.000     3.637     0.000   |b| =     3.636890
 CELL_CIF| Vector c [angstrom     0.000     0.000     3.637   |c| =     3.636890
 CELL_CIF| Angle (b,c), alpha [degree]:                                90.000000
 CELL_CIF| Angle (a,c), beta  [degree]:                                90.000000
 CELL_CIF| Angle (a,b), gamma [degree]:                                90.000000
 CELL_CIF| Numerically orthorhombic:                                         YES
 CELL_CIF| Periodicity                                                       XYZ

 GENERATE|  Preliminary Number of Bonds generated:                             0
 GENERATE|  Achieved consistency in connectivity generation.

 CELL| Volume [angstrom^3]:                                            48.105031
 CELL| Vector a [angstrom]:       3.637     0.000     0.000   |a| =     3.636890
 CELL| Vector b [angstrom]:       0.000     3.637     0.000   |b| =     3.636890
 CELL| Vector c [angstrom]:       0.000     0.000     3.637   |c| =     3.636890
 CELL| Angle (b,c), alpha [degree]:                                    90.000000
 CELL| Angle (a,c), beta  [degree]:                                    90.000000
 CELL| Angle (a,b), gamma [degree]:                                    90.000000
 CELL| Numerically orthorhombic:                                             YES
 CELL| Periodicity                                                           XYZ

 CELL_REF| Volume [angstrom^3]:                                        48.105031
 CELL_REF| Vector a [angstrom     3.637     0.000     0.000   |a| =     3.636890
 CELL_REF| Vector b [angstrom     0.000     3.637     0.000   |b| =     3.636890
 CELL_REF| Vector c [angstrom     0.000     0.000     3.637   |c| =     3.636890
 CELL_REF| Angle (b,c), alpha [degree]:                                90.000000
 CELL_REF| Angle (a,c), beta  [degree]:                                90.000000
 CELL_REF| Angle (a,b), gamma [degree]:                                90.000000
 CELL_REF| Numerically orthorhombic:                                         YES
 CELL_REF| Periodicity                                                       XYZ

 *** WARNING in cryssym.F:180 :: Symmetry library SPGLIB not available ***


 *******************************************************************************
                                    Kpoints
 *******************************************************************************
 BRILLOUIN| K-point scheme                                        Monkhorst-Pack
 BRILLOUIN| K-Point grid                                             8    8    8
 BRILLOUIN| Accuracy in Symmetry determination                      0.100000E-05
 BRILLOUIN| K-Point point group symmetrization                               OFF
 BRILLOUIN| Wavefunction type                                            COMPLEX
 BRILLOUIN| List of Kpoints [2 Pi/Bohr]                                      256
 BRILLOUIN| Number           Weight            X              Y              Z
 BRILLOUIN|     1           0.00391       -0.43750       -0.43750       -0.43750
 BRILLOUIN|     2           0.00391       -0.43750       -0.43750       -0.31250
 BRILLOUIN|     3           0.00391       -0.43750       -0.43750       -0.18750
 BRILLOUIN|     4           0.00391       -0.43750       -0.43750       -0.06250
 BRILLOUIN|     5           0.00391       -0.43750       -0.43750        0.06250
 BRILLOUIN|     6           0.00391       -0.43750       -0.43750        0.18750
 BRILLOUIN|     7           0.00391       -0.43750       -0.43750        0.31250
 BRILLOUIN|     8           0.00391       -0.43750       -0.43750        0.43750
 BRILLOUIN|     9           0.00391       -0.43750       -0.31250       -0.43750
 BRILLOUIN|    10           0.00391       -0.43750       -0.31250       -0.31250
 BRILLOUIN|    11           0.00391       -0.43750       -0.31250       -0.18750
 BRILLOUIN|    12           0.00391       -0.43750       -0.31250       -0.06250
 BRILLOUIN|    13           0.00391       -0.43750       -0.31250        0.06250
 BRILLOUIN|    14           0.00391       -0.43750       -0.31250        0.18750
 BRILLOUIN|    15           0.00391       -0.43750       -0.31250        0.31250
 BRILLOUIN|    16           0.00391       -0.43750       -0.31250        0.43750
 BRILLOUIN|    17           0.00391       -0.43750       -0.18750       -0.43750
 BRILLOUIN|    18           0.00391       -0.43750       -0.18750       -0.31250
 BRILLOUIN|    19           0.00391       -0.43750       -0.18750       -0.18750
 BRILLOUIN|    20           0.00391       -0.43750       -0.18750       -0.06250
 BRILLOUIN|    21           0.00391       -0.43750       -0.18750        0.06250
 BRILLOUIN|    22           0.00391       -0.43750       -0.18750        0.18750
 BRILLOUIN|    23           0.00391       -0.43750       -0.18750        0.31250
 BRILLOUIN|    24           0.00391       -0.43750       -0.18750        0.43750
 BRILLOUIN|    25           0.00391       -0.43750       -0.06250       -0.43750
 BRILLOUIN|    26           0.00391       -0.43750       -0.06250       -0.31250
 BRILLOUIN|    27           0.00391       -0.43750       -0.06250       -0.18750
 BRILLOUIN|    28           0.00391       -0.43750       -0.06250       -0.06250
 BRILLOUIN|    29           0.00391       -0.43750       -0.06250        0.06250
 BRILLOUIN|    30           0.00391       -0.43750       -0.06250        0.18750
 BRILLOUIN|    31           0.00391       -0.43750       -0.06250        0.31250
 BRILLOUIN|    32           0.00391       -0.43750       -0.06250        0.43750
 BRILLOUIN|    33           0.00391       -0.43750        0.06250       -0.43750
 BRILLOUIN|    34           0.00391       -0.43750        0.06250       -0.31250
 BRILLOUIN|    35           0.00391       -0.43750        0.06250       -0.18750
 BRILLOUIN|    36           0.00391       -0.43750        0.06250       -0.06250
 BRILLOUIN|    37           0.00391       -0.43750        0.06250        0.06250
 BRILLOUIN|    38           0.00391       -0.43750        0.06250        0.18750
 BRILLOUIN|    39           0.00391       -0.43750        0.06250        0.31250
 BRILLOUIN|    40           0.00391       -0.43750        0.06250        0.43750
 BRILLOUIN|    41           0.00391       -0.43750        0.18750       -0.43750
 BRILLOUIN|    42           0.00391       -0.43750        0.18750       -0.31250
 BRILLOUIN|    43           0.00391       -0.43750        0.18750       -0.18750
 BRILLOUIN|    44           0.00391       -0.43750        0.18750       -0.06250
 BRILLOUIN|    45           0.00391       -0.43750        0.18750        0.06250
 BRILLOUIN|    46           0.00391       -0.43750        0.18750        0.18750
 BRILLOUIN|    47           0.00391       -0.43750        0.18750        0.31250
 BRILLOUIN|    48           0.00391       -0.43750        0.18750        0.43750
 BRILLOUIN|    49           0.00391       -0.43750        0.31250       -0.43750
 BRILLOUIN|    50           0.00391       -0.43750        0.31250       -0.31250
 BRILLOUIN|    51           0.00391       -0.43750        0.31250       -0.18750
 BRILLOUIN|    52           0.00391       -0.43750        0.31250       -0.06250
 BRILLOUIN|    53           0.00391       -0.43750        0.31250        0.06250
 BRILLOUIN|    54           0.00391       -0.43750        0.31250        0.18750
 BRILLOUIN|    55           0.00391       -0.43750        0.31250        0.31250
 BRILLOUIN|    56           0.00391       -0.43750        0.31250        0.43750
 BRILLOUIN|    57           0.00391       -0.43750        0.43750       -0.43750
 BRILLOUIN|    58           0.00391       -0.43750        0.43750       -0.31250
 BRILLOUIN|    59           0.00391       -0.43750        0.43750       -0.18750
 BRILLOUIN|    60           0.00391       -0.43750        0.43750       -0.06250
 BRILLOUIN|    61           0.00391       -0.43750        0.43750        0.06250
 BRILLOUIN|    62           0.00391       -0.43750        0.43750        0.18750
 BRILLOUIN|    63           0.00391       -0.43750        0.43750        0.31250
 BRILLOUIN|    64           0.00391       -0.43750        0.43750        0.43750
 BRILLOUIN|    65           0.00391       -0.31250       -0.43750       -0.43750
 BRILLOUIN|    66           0.00391       -0.31250       -0.43750       -0.31250
 BRILLOUIN|    67           0.00391       -0.31250       -0.43750       -0.18750
 BRILLOUIN|    68           0.00391       -0.31250       -0.43750       -0.06250
 BRILLOUIN|    69           0.00391       -0.31250       -0.43750        0.06250
 BRILLOUIN|    70           0.00391       -0.31250       -0.43750        0.18750
 BRILLOUIN|    71           0.00391       -0.31250       -0.43750        0.31250
 BRILLOUIN|    72           0.00391       -0.31250       -0.43750        0.43750
 BRILLOUIN|    73           0.00391       -0.31250       -0.31250       -0.43750
 BRILLOUIN|    74           0.00391       -0.31250       -0.31250       -0.31250
 BRILLOUIN|    75           0.00391       -0.31250       -0.31250       -0.18750
 BRILLOUIN|    76           0.00391       -0.31250       -0.31250       -0.06250
 BRILLOUIN|    77           0.00391       -0.31250       -0.31250        0.06250
 BRILLOUIN|    78           0.00391       -0.31250       -0.31250        0.18750
 BRILLOUIN|    79           0.00391       -0.31250       -0.31250        0.31250
 BRILLOUIN|    80           0.00391       -0.31250       -0.31250        0.43750
 BRILLOUIN|    81           0.00391       -0.31250       -0.18750       -0.43750
 BRILLOUIN|    82           0.00391       -0.31250       -0.18750       -0.31250
 BRILLOUIN|    83           0.00391       -0.31250       -0.18750       -0.18750
 BRILLOUIN|    84           0.00391       -0.31250       -0.18750       -0.06250
 BRILLOUIN|    85           0.00391       -0.31250       -0.18750        0.06250
 BRILLOUIN|    86           0.00391       -0.31250       -0.18750        0.18750
 BRILLOUIN|    87           0.00391       -0.31250       -0.18750        0.31250
 BRILLOUIN|    88           0.00391       -0.31250       -0.18750        0.43750
 BRILLOUIN|    89           0.00391       -0.31250       -0.06250       -0.43750
 BRILLOUIN|    90           0.00391       -0.31250       -0.06250       -0.31250
 BRILLOUIN|    91           0.00391       -0.31250       -0.06250       -0.18750
 BRILLOUIN|    92           0.00391       -0.31250       -0.06250       -0.06250
 BRILLOUIN|    93           0.00391       -0.31250       -0.06250        0.06250
 BRILLOUIN|    94           0.00391       -0.31250       -0.06250        0.18750
 BRILLOUIN|    95           0.00391       -0.31250       -0.06250        0.31250
 BRILLOUIN|    96           0.00391       -0.31250       -0.06250        0.43750
 BRILLOUIN|    97           0.00391       -0.31250        0.06250       -0.43750
 BRILLOUIN|    98           0.00391       -0.31250        0.06250       -0.31250
 BRILLOUIN|    99           0.00391       -0.31250        0.06250       -0.18750
 BRILLOUIN|   100           0.00391       -0.31250        0.06250       -0.06250
 BRILLOUIN|   101           0.00391       -0.31250        0.06250        0.06250
 BRILLOUIN|   102           0.00391       -0.31250        0.06250        0.18750
 BRILLOUIN|   103           0.00391       -0.31250        0.06250        0.31250
 BRILLOUIN|   104           0.00391       -0.31250        0.06250        0.43750
 BRILLOUIN|   105           0.00391       -0.31250        0.18750       -0.43750
 BRILLOUIN|   106           0.00391       -0.31250        0.18750       -0.31250
 BRILLOUIN|   107           0.00391       -0.31250        0.18750       -0.18750
 BRILLOUIN|   108           0.00391       -0.31250        0.18750       -0.06250
 BRILLOUIN|   109           0.00391       -0.31250        0.18750        0.06250
 BRILLOUIN|   110           0.00391       -0.31250        0.18750        0.18750
 BRILLOUIN|   111           0.00391       -0.31250        0.18750        0.31250
 BRILLOUIN|   112           0.00391       -0.31250        0.18750        0.43750
 BRILLOUIN|   113           0.00391       -0.31250        0.31250       -0.43750
 BRILLOUIN|   114           0.00391       -0.31250        0.31250       -0.31250
 BRILLOUIN|   115           0.00391       -0.31250        0.31250       -0.18750
 BRILLOUIN|   116           0.00391       -0.31250        0.31250       -0.06250
 BRILLOUIN|   117           0.00391       -0.31250        0.31250        0.06250
 BRILLOUIN|   118           0.00391       -0.31250        0.31250        0.18750
 BRILLOUIN|   119           0.00391       -0.31250        0.31250        0.31250
 BRILLOUIN|   120           0.00391       -0.31250        0.31250        0.43750
 BRILLOUIN|   121           0.00391       -0.31250        0.43750       -0.43750
 BRILLOUIN|   122           0.00391       -0.31250        0.43750       -0.31250
 BRILLOUIN|   123           0.00391       -0.31250        0.43750       -0.18750
 BRILLOUIN|   124           0.00391       -0.31250        0.43750       -0.06250
 BRILLOUIN|   125           0.00391       -0.31250        0.43750        0.06250
 BRILLOUIN|   126           0.00391       -0.31250        0.43750        0.18750
 BRILLOUIN|   127           0.00391       -0.31250        0.43750        0.31250
 BRILLOUIN|   128           0.00391       -0.31250        0.43750        0.43750
 BRILLOUIN|   129           0.00391       -0.18750       -0.43750       -0.43750
 BRILLOUIN|   130           0.00391       -0.18750       -0.43750       -0.31250
 BRILLOUIN|   131           0.00391       -0.18750       -0.43750       -0.18750
 BRILLOUIN|   132           0.00391       -0.18750       -0.43750       -0.06250
 BRILLOUIN|   133           0.00391       -0.18750       -0.43750        0.06250
 BRILLOUIN|   134           0.00391       -0.18750       -0.43750        0.18750
 BRILLOUIN|   135           0.00391       -0.18750       -0.43750        0.31250
 BRILLOUIN|   136           0.00391       -0.18750       -0.43750        0.43750
 BRILLOUIN|   137           0.00391       -0.18750       -0.31250       -0.43750
 BRILLOUIN|   138           0.00391       -0.18750       -0.31250       -0.31250
 BRILLOUIN|   139           0.00391       -0.18750       -0.31250       -0.18750
 BRILLOUIN|   140           0.00391       -0.18750       -0.31250       -0.06250
 BRILLOUIN|   141           0.00391       -0.18750       -0.31250        0.06250
 BRILLOUIN|   142           0.00391       -0.18750       -0.31250        0.18750
 BRILLOUIN|   143           0.00391       -0.18750       -0.31250        0.31250
 BRILLOUIN|   144           0.00391       -0.18750       -0.31250        0.43750
 BRILLOUIN|   145           0.00391       -0.18750       -0.18750       -0.43750
 BRILLOUIN|   146           0.00391       -0.18750       -0.18750       -0.31250
 BRILLOUIN|   147           0.00391       -0.18750       -0.18750       -0.18750
 BRILLOUIN|   148           0.00391       -0.18750       -0.18750       -0.06250
 BRILLOUIN|   149           0.00391       -0.18750       -0.18750        0.06250
 BRILLOUIN|   150           0.00391       -0.18750       -0.18750        0.18750
 BRILLOUIN|   151           0.00391       -0.18750       -0.18750        0.31250
 BRILLOUIN|   152           0.00391       -0.18750       -0.18750        0.43750
 BRILLOUIN|   153           0.00391       -0.18750       -0.06250       -0.43750
 BRILLOUIN|   154           0.00391       -0.18750       -0.06250       -0.31250
 BRILLOUIN|   155           0.00391       -0.18750       -0.06250       -0.18750
 BRILLOUIN|   156           0.00391       -0.18750       -0.06250       -0.06250
 BRILLOUIN|   157           0.00391       -0.18750       -0.06250        0.06250
 BRILLOUIN|   158           0.00391       -0.18750       -0.06250        0.18750
 BRILLOUIN|   159           0.00391       -0.18750       -0.06250        0.31250
 BRILLOUIN|   160           0.00391       -0.18750       -0.06250        0.43750
 BRILLOUIN|   161           0.00391       -0.18750        0.06250       -0.43750
 BRILLOUIN|   162           0.00391       -0.18750        0.06250       -0.31250
 BRILLOUIN|   163           0.00391       -0.18750        0.06250       -0.18750
 BRILLOUIN|   164           0.00391       -0.18750        0.06250       -0.06250
 BRILLOUIN|   165           0.00391       -0.18750        0.06250        0.06250
 BRILLOUIN|   166           0.00391       -0.18750        0.06250        0.18750
 BRILLOUIN|   167           0.00391       -0.18750        0.06250        0.31250
 BRILLOUIN|   168           0.00391       -0.18750        0.06250        0.43750
 BRILLOUIN|   169           0.00391       -0.18750        0.18750       -0.43750
 BRILLOUIN|   170           0.00391       -0.18750        0.18750       -0.31250
 BRILLOUIN|   171           0.00391       -0.18750        0.18750       -0.18750
 BRILLOUIN|   172           0.00391       -0.18750        0.18750       -0.06250
 BRILLOUIN|   173           0.00391       -0.18750        0.18750        0.06250
 BRILLOUIN|   174           0.00391       -0.18750        0.18750        0.18750
 BRILLOUIN|   175           0.00391       -0.18750        0.18750        0.31250
 BRILLOUIN|   176           0.00391       -0.18750        0.18750        0.43750
 BRILLOUIN|   177           0.00391       -0.18750        0.31250       -0.43750
 BRILLOUIN|   178           0.00391       -0.18750        0.31250       -0.31250
 BRILLOUIN|   179           0.00391       -0.18750        0.31250       -0.18750
 BRILLOUIN|   180           0.00391       -0.18750        0.31250       -0.06250
 BRILLOUIN|   181           0.00391       -0.18750        0.31250        0.06250
 BRILLOUIN|   182           0.00391       -0.18750        0.31250        0.18750
 BRILLOUIN|   183           0.00391       -0.18750        0.31250        0.31250
 BRILLOUIN|   184           0.00391       -0.18750        0.31250        0.43750
 BRILLOUIN|   185           0.00391       -0.18750        0.43750       -0.43750
 BRILLOUIN|   186           0.00391       -0.18750        0.43750       -0.31250
 BRILLOUIN|   187           0.00391       -0.18750        0.43750       -0.18750
 BRILLOUIN|   188           0.00391       -0.18750        0.43750       -0.06250
 BRILLOUIN|   189           0.00391       -0.18750        0.43750        0.06250
 BRILLOUIN|   190           0.00391       -0.18750        0.43750        0.18750
 BRILLOUIN|   191           0.00391       -0.18750        0.43750        0.31250
 BRILLOUIN|   192           0.00391       -0.18750        0.43750        0.43750
 BRILLOUIN|   193           0.00391       -0.06250       -0.43750       -0.43750
 BRILLOUIN|   194           0.00391       -0.06250       -0.43750       -0.31250
 BRILLOUIN|   195           0.00391       -0.06250       -0.43750       -0.18750
 BRILLOUIN|   196           0.00391       -0.06250       -0.43750       -0.06250
 BRILLOUIN|   197           0.00391       -0.06250       -0.43750        0.06250
 BRILLOUIN|   198           0.00391       -0.06250       -0.43750        0.18750
 BRILLOUIN|   199           0.00391       -0.06250       -0.43750        0.31250
 BRILLOUIN|   200           0.00391       -0.06250       -0.43750        0.43750
 BRILLOUIN|   201           0.00391       -0.06250       -0.31250       -0.43750
 BRILLOUIN|   202           0.00391       -0.06250       -0.31250       -0.31250
 BRILLOUIN|   203           0.00391       -0.06250       -0.31250       -0.18750
 BRILLOUIN|   204           0.00391       -0.06250       -0.31250       -0.06250
 BRILLOUIN|   205           0.00391       -0.06250       -0.31250        0.06250
 BRILLOUIN|   206           0.00391       -0.06250       -0.31250        0.18750
 BRILLOUIN|   207           0.00391       -0.06250       -0.31250        0.31250
 BRILLOUIN|   208           0.00391       -0.06250       -0.31250        0.43750
 BRILLOUIN|   209           0.00391       -0.06250       -0.18750       -0.43750
 BRILLOUIN|   210           0.00391       -0.06250       -0.18750       -0.31250
 BRILLOUIN|   211           0.00391       -0.06250       -0.18750       -0.18750
 BRILLOUIN|   212           0.00391       -0.06250       -0.18750       -0.06250
 BRILLOUIN|   213           0.00391       -0.06250       -0.18750        0.06250
 BRILLOUIN|   214           0.00391       -0.06250       -0.18750        0.18750
 BRILLOUIN|   215           0.00391       -0.06250       -0.18750        0.31250
 BRILLOUIN|   216           0.00391       -0.06250       -0.18750        0.43750
 BRILLOUIN|   217           0.00391       -0.06250       -0.06250       -0.43750
 BRILLOUIN|   218           0.00391       -0.06250       -0.06250       -0.31250
 BRILLOUIN|   219           0.00391       -0.06250       -0.06250       -0.18750
 BRILLOUIN|   220           0.00391       -0.06250       -0.06250       -0.06250
 BRILLOUIN|   221           0.00391       -0.06250       -0.06250        0.06250
 BRILLOUIN|   222           0.00391       -0.06250       -0.06250        0.18750
 BRILLOUIN|   223           0.00391       -0.06250       -0.06250        0.31250
 BRILLOUIN|   224           0.00391       -0.06250       -0.06250        0.43750
 BRILLOUIN|   225           0.00391       -0.06250        0.06250       -0.43750
 BRILLOUIN|   226           0.00391       -0.06250        0.06250       -0.31250
 BRILLOUIN|   227           0.00391       -0.06250        0.06250       -0.18750
 BRILLOUIN|   228           0.00391       -0.06250        0.06250       -0.06250
 BRILLOUIN|   229           0.00391       -0.06250        0.06250        0.06250
 BRILLOUIN|   230           0.00391       -0.06250        0.06250        0.18750
 BRILLOUIN|   231           0.00391       -0.06250        0.06250        0.31250
 BRILLOUIN|   232           0.00391       -0.06250        0.06250        0.43750
 BRILLOUIN|   233           0.00391       -0.06250        0.18750       -0.43750
 BRILLOUIN|   234           0.00391       -0.06250        0.18750       -0.31250
 BRILLOUIN|   235           0.00391       -0.06250        0.18750       -0.18750
 BRILLOUIN|   236           0.00391       -0.06250        0.18750       -0.06250
 BRILLOUIN|   237           0.00391       -0.06250        0.18750        0.06250
 BRILLOUIN|   238           0.00391       -0.06250        0.18750        0.18750
 BRILLOUIN|   239           0.00391       -0.06250        0.18750        0.31250
 BRILLOUIN|   240           0.00391       -0.06250        0.18750        0.43750
 BRILLOUIN|   241           0.00391       -0.06250        0.31250       -0.43750
 BRILLOUIN|   242           0.00391       -0.06250        0.31250       -0.31250
 BRILLOUIN|   243           0.00391       -0.06250        0.31250       -0.18750
 BRILLOUIN|   244           0.00391       -0.06250        0.31250       -0.06250
 BRILLOUIN|   245           0.00391       -0.06250        0.31250        0.06250
 BRILLOUIN|   246           0.00391       -0.06250        0.31250        0.18750
 BRILLOUIN|   247           0.00391       -0.06250        0.31250        0.31250
 BRILLOUIN|   248           0.00391       -0.06250        0.31250        0.43750
 BRILLOUIN|   249           0.00391       -0.06250        0.43750       -0.43750
 BRILLOUIN|   250           0.00391       -0.06250        0.43750       -0.31250
 BRILLOUIN|   251           0.00391       -0.06250        0.43750       -0.18750
 BRILLOUIN|   252           0.00391       -0.06250        0.43750       -0.06250
 BRILLOUIN|   253           0.00391       -0.06250        0.43750        0.06250
 BRILLOUIN|   254           0.00391       -0.06250        0.43750        0.18750
 BRILLOUIN|   255           0.00391       -0.06250        0.43750        0.31250
 BRILLOUIN|   256           0.00391       -0.06250        0.43750        0.43750
 *******************************************************************************

 *******************************************************************************
 *******************************************************************************
 **                                                                           **
 **     #####                         ##              ##                      **
 **    ##   ##            ##          ##              ##                      **
 **   ##     ##                       ##            ######                    **
 **   ##     ##  ##   ##  ##   #####  ##  ##   ####   ##    #####    #####    **
 **   ##     ##  ##   ##  ##  ##      ## ##   ##      ##   ##   ##  ##   ##   **
 **   ##  ## ##  ##   ##  ##  ##      ####     ###    ##   ######   ######    **
 **    ##  ###   ##   ##  ##  ##      ## ##      ##   ##   ##       ##        **
 **     #######   #####   ##   #####  ##  ##  ####    ##    #####   ##        **
 **           ##                                                    ##        **
 **                                                                           **
 **                                                ... make the atoms dance   **
 **                                                                           **
 **            Copyright (C) by CP2K developers group (2000-2025)             **
 **                      J. Chem. Phys. 152, 194103 (2020)                    **
 **                                                                           **
 *******************************************************************************

 DFT| Spin restricted Kohn-Sham (RKS) calculation                            RKS
 DFT| Multiplicity                                                             1
 DFT| Number of spin states                                                    1
 DFT| Charge                                                                   0
 DFT| Self-interaction correction (SIC)                                       NO
 DFT| Cutoffs: density                                              1.000000E-10
 DFT|          gradient                                             1.000000E-10
 DFT|          tau                                                  1.000000E-10
 DFT|          cutoff_smoothing_range                               0.000000E+00
 DFT| XC density smoothing                                                  NONE
 DFT| XC derivatives                                                          PW

 FUNCTIONAL| PBE:
 FUNCTIONAL| J.P.Perdew, K.Burke, M.Ernzerhof, Phys. Rev. Letter, vol. 77, n 18,
 FUNCTIONAL|  pp. 3865-3868, (1996) {spin unpolarized}                          


 QS| Method:                                                                 GPW
 QS| Density plane wave grid type                        NON-SPHERICAL FULLSPACE
 QS| Number of grid levels:                                                    4
 QS| Density cutoff [a.u.]:                                                500.0
 QS| Multi grid cutoff [a.u.]: 1) grid level                               500.0
 QS|                           2) grid level                               166.7
 QS|                           3) grid level                                55.6
 QS|                           4) grid level                                18.5
 QS| Grid level progression factor:                                          3.0
 QS| Relative density cutoff [a.u.]:                                        50.0
 QS| Interaction thresholds: eps_pgf_orb:                                1.0E-16
 QS|                         eps_filter_matrix:                          0.0E+00
 QS|                         eps_core_charge:                            1.0E-18
 QS|                         eps_rho_gspace:                             1.0E-16
 QS|                         eps_rho_rspace:                             1.0E-16
 QS|                         eps_gvg_rspace:                             1.0E-08
 QS|                         eps_ppl:                                    1.0E-02
 QS|                         eps_ppnl:                                   1.0E-10


 ATOMIC KIND INFORMATION

  1. Atomic kind: Cu                                    Number of atoms:       4

     Orbital Basis Set                                aug-TZVP-MOLOPT-GTH-tier-2

       Number of orbital shell sets:                                           1
       Number of orbital shells:                                              16
       Number of primitive Cartesian functions:                                7
       Number of Cartesian basis functions:                                   85
       Number of spherical basis functions:                                   66
       Norm type:                                                              2

       Normalised Cartesian orbitals:

                        Set   Shell   Orbital            Exponent    Coefficient

                          1       1    2s                0.051019      -0.024740
                                                         0.082085       0.000000
                                                         0.132068      -0.107932
                                                         0.348398      -0.084913
                                                         0.920319       0.321564
                                                         2.492896      -0.095154
                                                         5.668552       0.017997

                          1       2    3s                0.051019      -0.079068
                                                         0.082085       0.000000
                                                         0.132068      -0.050936
                                                         0.348398       0.309887
                                                         0.920319      -0.418598
                                                         2.492896       0.157918
                                                         5.668552      -0.044972

                          1       3    4s                0.051019      -0.086827
                                                         0.082085       0.000000
                                                         0.132068       0.192251
                                                         0.348398      -0.070901
                                                         0.920319       0.573893
                                                         2.492896      -0.310267
                                                         5.668552       0.097846

                          1       4    5s                0.051019       0.016983
                                                         0.082085       0.018324
                                                         0.132068       0.026609
                                                         0.348398       0.048646
                                                         0.920319       0.112306
                                                         2.492896       0.354716
                                                         5.668552       0.469210

                          1       5    3px               0.051019       0.016038
                                                         0.082085       0.000000
                                                         0.132068       0.051356
                                                         0.348398       0.097519
                                                         0.920319      -0.113914
                                                         2.492896       0.001327
                                                         5.668552      -0.012916
                          1       5    3py               0.051019       0.016038
                                                         0.082085       0.000000
                                                         0.132068       0.051356
                                                         0.348398       0.097519
                                                         0.920319      -0.113914
                                                         2.492896       0.001327
                                                         5.668552      -0.012916
                          1       5    3pz               0.051019       0.016038
                                                         0.082085       0.000000
                                                         0.132068       0.051356
                                                         0.348398       0.097519
                                                         0.920319      -0.113914
                                                         2.492896       0.001327
                                                         5.668552      -0.012916

                          1       6    4px               0.051019       0.036110
                                                         0.082085       0.000000
                                                         0.132068      -0.027086
                                                         0.348398      -0.458378
                                                         0.920319       1.010306
                                                         2.492896      -0.160991
                                                         5.668552       0.061867
                          1       6    4py               0.051019       0.036110
                                                         0.082085       0.000000
                                                         0.132068      -0.027086
                                                         0.348398      -0.458378
                                                         0.920319       1.010306
                                                         2.492896      -0.160991
                                                         5.668552       0.061867
                          1       6    4pz               0.051019       0.036110
                                                         0.082085       0.000000
                                                         0.132068      -0.027086
                                                         0.348398      -0.458378
                                                         0.920319       1.010306
                                                         2.492896      -0.160991
                                                         5.668552       0.061867

                          1       7    5px               0.051019       0.011294
                                                         0.082085       0.000000
                                                         0.132068      -0.045873
                                                         0.348398      -0.056621
                                                         0.920319      -1.003065
                                                         2.492896       0.292632
                                                         5.668552       0.092574
                          1       7    5py               0.051019       0.011294
                                                         0.082085       0.000000
                                                         0.132068      -0.045873
                                                         0.348398      -0.056621
                                                         0.920319      -1.003065
                                                         2.492896       0.292632
                                                         5.668552       0.092574
                          1       7    5pz               0.051019       0.011294
                                                         0.082085       0.000000
                                                         0.132068      -0.045873
                                                         0.348398      -0.056621
                                                         0.920319      -1.003065
                                                         2.492896       0.292632
                                                         5.668552       0.092574

                          1       8    6px               0.051019      -0.000220
                                                         0.082085       0.000110
                                                         0.132068       0.000021
                                                         0.348398       0.001078
                                                         0.920319       0.017644
                                                         2.492896       4.801375
                                                         5.668552      -1.359559
                          1       8    6py               0.051019      -0.000220
                                                         0.082085       0.000110
                                                         0.132068       0.000021
                                                         0.348398       0.001078
                                                         0.920319       0.017644
                                                         2.492896       4.801375
                                                         5.668552      -1.359559
                          1       8    6pz               0.051019      -0.000220
                                                         0.082085       0.000110
                                                         0.132068       0.000021
                                                         0.348398       0.001078
                                                         0.920319       0.017644
                                                         2.492896       4.801375
                                                         5.668552      -1.359559

                          1       9    4dx2              0.051019       0.000135
                                                         0.082085       0.000000
                                                         0.132068       0.004123
                                                         0.348398       0.056100
                                                         0.920319       0.469382
                                                         2.492896       3.190769
                                                         5.668552      10.310672
                          1       9    4dxy              0.051019       0.000235
                                                         0.082085       0.000000
                                                         0.132068       0.007141
                                                         0.348398       0.097169
                                                         0.920319       0.812993
                                                         2.492896       5.526575
                                                         5.668552      17.858609
                          1       9    4dxz              0.051019       0.000235
                                                         0.082085       0.000000
                                                         0.132068       0.007141
                                                         0.348398       0.097169
                                                         0.920319       0.812993
                                                         2.492896       5.526575
                                                         5.668552      17.858609
                          1       9    4dy2              0.051019       0.000135
                                                         0.082085       0.000000
                                                         0.132068       0.004123
                                                         0.348398       0.056100
                                                         0.920319       0.469382
                                                         2.492896       3.190769
                                                         5.668552      10.310672
                          1       9    4dyz              0.051019       0.000235
                                                         0.082085       0.000000
                                                         0.132068       0.007141
                                                         0.348398       0.097169
                                                         0.920319       0.812993
                                                         2.492896       5.526575
                                                         5.668552      17.858609
                          1       9    4dz2              0.051019       0.000135
                                                         0.082085       0.000000
                                                         0.132068       0.004123
                                                         0.348398       0.056100
                                                         0.920319       0.469382
                                                         2.492896       3.190769
                                                         5.668552      10.310672

                          1      10    5dx2              0.051019       0.007063
                                                         0.082085       0.000000
                                                         0.132068      -0.011954
                                                         0.348398       0.215109
                                                         0.920319      -0.282182
                                                         2.492896      -1.721302
                                                         5.668552      -2.306199
                          1      10    5dxy              0.051019       0.012233
                                                         0.082085       0.000000
                                                         0.132068      -0.020705
                                                         0.348398       0.372579
                                                         0.920319      -0.488753
                                                         2.492896      -2.981382
                                                         5.668552      -3.994454
                          1      10    5dxz              0.051019       0.012233
                                                         0.082085       0.000000
                                                         0.132068      -0.020705
                                                         0.348398       0.372579
                                                         0.920319      -0.488753
                                                         2.492896      -2.981382
                                                         5.668552      -3.994454
                          1      10    5dy2              0.051019       0.007063
                                                         0.082085       0.000000
                                                         0.132068      -0.011954
                                                         0.348398       0.215109
                                                         0.920319      -0.282182
                                                         2.492896      -1.721302
                                                         5.668552      -2.306199
                          1      10    5dyz              0.051019       0.012233
                                                         0.082085       0.000000
                                                         0.132068      -0.020705
                                                         0.348398       0.372579
                                                         0.920319      -0.488753
                                                         2.492896      -2.981382
                                                         5.668552      -3.994454
                          1      10    5dz2              0.051019       0.007063
                                                         0.082085       0.000000
                                                         0.132068      -0.011954
                                                         0.348398       0.215109
                                                         0.920319      -0.282182
                                                         2.492896      -1.721302
                                                         5.668552      -2.306199

                          1      11    6dx2              0.051019       0.008300
                                                         0.082085       0.000000
                                                         0.132068      -0.006625
                                                         0.348398      -0.209956
                                                         0.920319       0.332771
                                                         2.492896       1.364013
                                                         5.668552       3.373264
                          1      11    6dxy              0.051019       0.014376
                                                         0.082085       0.000000
                                                         0.132068      -0.011475
                                                         0.348398      -0.363654
                                                         0.920319       0.576376
                                                         2.492896       2.362540
                                                         5.668552       5.842665
                          1      11    6dxz              0.051019       0.014376
                                                         0.082085       0.000000
                                                         0.132068      -0.011475
                                                         0.348398      -0.363654
                                                         0.920319       0.576376
                                                         2.492896       2.362540
                                                         5.668552       5.842665
                          1      11    6dy2              0.051019       0.008300
                                                         0.082085       0.000000
                                                         0.132068      -0.006625
                                                         0.348398      -0.209956
                                                         0.920319       0.332771
                                                         2.492896       1.364013
                                                         5.668552       3.373264
                          1      11    6dyz              0.051019       0.014376
                                                         0.082085       0.000000
                                                         0.132068      -0.011475
                                                         0.348398      -0.363654
                                                         0.920319       0.576376
                                                         2.492896       2.362540
                                                         5.668552       5.842665
                          1      11    6dz2              0.051019       0.008300
                                                         0.082085       0.000000
                                                         0.132068      -0.006625
                                                         0.348398      -0.209956
                                                         0.920319       0.332771
                                                         2.492896       1.364013
                                                         5.668552       3.373264

                          1      12    7dx2              0.051019       0.012329
                                                         0.082085      -0.009734
                                                         0.132068       0.002794
                                                         0.348398      -0.023219
                                                         0.920319      -0.065137
                                                         2.492896       0.156956
                                                         5.668552       6.071997
                          1      12    7dxy              0.051019       0.021354
                                                         0.082085      -0.016860
                                                         0.132068       0.004839
                                                         0.348398      -0.040217
                                                         0.920319      -0.112821
                                                         2.492896       0.271855
                                                         5.668552      10.517007
                          1      12    7dxz              0.051019       0.021354
                                                         0.082085      -0.016860
                                                         0.132068       0.004839
                                                         0.348398      -0.040217
                                                         0.920319      -0.112821
                                                         2.492896       0.271855
                                                         5.668552      10.517007
                          1      12    7dy2              0.051019       0.012329
                                                         0.082085      -0.009734
                                                         0.132068       0.002794
                                                         0.348398      -0.023219
                                                         0.920319      -0.065137
                                                         2.492896       0.156956
                                                         5.668552       6.071997
                          1      12    7dyz              0.051019       0.021354
                                                         0.082085      -0.016860
                                                         0.132068       0.004839
                                                         0.348398      -0.040217
                                                         0.920319      -0.112821
                                                         2.492896       0.271855
                                                         5.668552      10.517007
                          1      12    7dz2              0.051019       0.012329
                                                         0.082085      -0.009734
                                                         0.132068       0.002794
                                                         0.348398      -0.023219
                                                         0.920319      -0.065137
                                                         2.492896       0.156956
                                                         5.668552       6.071997

                          1      13    5fx3              0.051019      -0.000571
                                                         0.082085       0.000000
                                                         0.132068      -0.003684
                                                         0.348398      -0.078439
                                                         0.920319      -0.256952
                                                         2.492896       0.057730
                                                         5.668552      -0.258812
                          1      13    5fx2y             0.051019      -0.001276
                                                         0.082085       0.000000
                                                         0.132068      -0.008238
                                                         0.348398      -0.175396
                                                         0.920319      -0.574563
                                                         2.492896       0.129089
                                                         5.668552      -0.578721
                          1      13    5fx2z             0.051019      -0.001276
                                                         0.082085       0.000000
                                                         0.132068      -0.008238
                                                         0.348398      -0.175396
                                                         0.920319      -0.574563
                                                         2.492896       0.129089
                                                         5.668552      -0.578721
                          1      13    5fxy2             0.051019      -0.001276
                                                         0.082085       0.000000
                                                         0.132068      -0.008238
                                                         0.348398      -0.175396
                                                         0.920319      -0.574563
                                                         2.492896       0.129089
                                                         5.668552      -0.578721
                          1      13    5fxyz             0.051019      -0.002210
                                                         0.082085       0.000000
                                                         0.132068      -0.014268
                                                         0.348398      -0.303794
                                                         0.920319      -0.995172
                                                         2.492896       0.223588
                                                         5.668552      -1.002374
                          1      13    5fxz2             0.051019      -0.001276
                                                         0.082085       0.000000
                                                         0.132068      -0.008238
                                                         0.348398      -0.175396
                                                         0.920319      -0.574563
                                                         2.492896       0.129089
                                                         5.668552      -0.578721
                          1      13    5fy3              0.051019      -0.000571
                                                         0.082085       0.000000
                                                         0.132068      -0.003684
                                                         0.348398      -0.078439
                                                         0.920319      -0.256952
                                                         2.492896       0.057730
                                                         5.668552      -0.258812
                          1      13    5fy2z             0.051019      -0.001276
                                                         0.082085       0.000000
                                                         0.132068      -0.008238
                                                         0.348398      -0.175396
                                                         0.920319      -0.574563
                                                         2.492896       0.129089
                                                         5.668552      -0.578721
                          1      13    5fyz2             0.051019      -0.001276
                                                         0.082085       0.000000
                                                         0.132068      -0.008238
                                                         0.348398      -0.175396
                                                         0.920319      -0.574563
                                                         2.492896       0.129089
                                                         5.668552      -0.578721
                          1      13    5fz3              0.051019      -0.000571
                                                         0.082085       0.000000
                                                         0.132068      -0.003684
                                                         0.348398      -0.078439
                                                         0.920319      -0.256952
                                                         2.492896       0.057730
                                                         5.668552      -0.258812

                          1      14    6fx3              0.051019       0.001620
                                                         0.082085       0.000000
                                                         0.132068      -0.000552
                                                         0.348398      -0.052045
                                                         0.920319      -0.313386
                                                         2.492896      -0.597973
                                                         5.668552       0.722507
                          1      14    6fx2y             0.051019       0.003623
                                                         0.082085       0.000000
                                                         0.132068      -0.001234
                                                         0.348398      -0.116375
                                                         0.920319      -0.700753
                                                         2.492896      -1.337109
                                                         5.668552       1.615575
                          1      14    6fx2z             0.051019       0.003623
                                                         0.082085       0.000000
                                                         0.132068      -0.001234
                                                         0.348398      -0.116375
                                                         0.920319      -0.700753
                                                         2.492896      -1.337109
                                                         5.668552       1.615575
                          1      14    6fxy2             0.051019       0.003623
                                                         0.082085       0.000000
                                                         0.132068      -0.001234
                                                         0.348398      -0.116375
                                                         0.920319      -0.700753
                                                         2.492896      -1.337109
                                                         5.668552       1.615575
                          1      14    6fxyz             0.051019       0.006275
                                                         0.082085       0.000000
                                                         0.132068      -0.002137
                                                         0.348398      -0.201568
                                                         0.920319      -1.213740
                                                         2.492896      -2.315940
                                                         5.668552       2.798258
                          1      14    6fxz2             0.051019       0.003623
                                                         0.082085       0.000000
                                                         0.132068      -0.001234
                                                         0.348398      -0.116375
                                                         0.920319      -0.700753
                                                         2.492896      -1.337109
                                                         5.668552       1.615575
                          1      14    6fy3              0.051019       0.001620
                                                         0.082085       0.000000
                                                         0.132068      -0.000552
                                                         0.348398      -0.052045
                                                         0.920319      -0.313386
                                                         2.492896      -0.597973
                                                         5.668552       0.722507
                          1      14    6fy2z             0.051019       0.003623
                                                         0.082085       0.000000
                                                         0.132068      -0.001234
                                                         0.348398      -0.116375
                                                         0.920319      -0.700753
                                                         2.492896      -1.337109
                                                         5.668552       1.615575
                          1      14    6fyz2             0.051019       0.003623
                                                         0.082085       0.000000
                                                         0.132068      -0.001234
                                                         0.348398      -0.116375
                                                         0.920319      -0.700753
                                                         2.492896      -1.337109
                                                         5.668552       1.615575
                          1      14    6fz3              0.051019       0.001620
                                                         0.082085       0.000000
                                                         0.132068      -0.000552
                                                         0.348398      -0.052045
                                                         0.920319      -0.313386
                                                         2.492896      -0.597973
                                                         5.668552       0.722507

                          1      15    7fx3              0.051019       0.001395
                                                         0.082085       0.000393
                                                         0.132068       0.001350
                                                         0.348398       0.011972
                                                         0.920319       0.074241
                                                         2.492896       3.080652
                                                         5.668552       7.120389
                          1      15    7fx2y             0.051019       0.003120
                                                         0.082085       0.000878
                                                         0.132068       0.003019
                                                         0.348398       0.026770
                                                         0.920319       0.166007
                                                         2.492896       6.888547
                                                         5.668552      15.921674
                          1      15    7fx2z             0.051019       0.003120
                                                         0.082085       0.000878
                                                         0.132068       0.003019
                                                         0.348398       0.026770
                                                         0.920319       0.166007
                                                         2.492896       6.888547
                                                         5.668552      15.921674
                          1      15    7fxy2             0.051019       0.003120
                                                         0.082085       0.000878
                                                         0.132068       0.003019
                                                         0.348398       0.026770
                                                         0.920319       0.166007
                                                         2.492896       6.888547
                                                         5.668552      15.921674
                          1      15    7fxyz             0.051019       0.005404
                                                         0.082085       0.001521
                                                         0.132068       0.005229
                                                         0.348398       0.046367
                                                         0.920319       0.287532
                                                         2.492896      11.931313
                                                         5.668552      27.577148
                          1      15    7fxz2             0.051019       0.003120
                                                         0.082085       0.000878
                                                         0.132068       0.003019
                                                         0.348398       0.026770
                                                         0.920319       0.166007
                                                         2.492896       6.888547
                                                         5.668552      15.921674
                          1      15    7fy3              0.051019       0.001395
                                                         0.082085       0.000393
                                                         0.132068       0.001350
                                                         0.348398       0.011972
                                                         0.920319       0.074241
                                                         2.492896       3.080652
                                                         5.668552       7.120389
                          1      15    7fy2z             0.051019       0.003120
                                                         0.082085       0.000878
                                                         0.132068       0.003019
                                                         0.348398       0.026770
                                                         0.920319       0.166007
                                                         2.492896       6.888547
                                                         5.668552      15.921674
                          1      15    7fyz2             0.051019       0.003120
                                                         0.082085       0.000878
                                                         0.132068       0.003019
                                                         0.348398       0.026770
                                                         0.920319       0.166007
                                                         2.492896       6.888547
                                                         5.668552      15.921674
                          1      15    7fz3              0.051019       0.001395
                                                         0.082085       0.000393
                                                         0.132068       0.001350
                                                         0.348398       0.011972
                                                         0.920319       0.074241
                                                         2.492896       3.080652
                                                         5.668552       7.120389

                          1      16    6gx4              0.051019      -0.000180
                                                         0.082085       0.000413
                                                         0.132068       0.000785
                                                         0.348398      -0.006024
                                                         0.920319       0.339124
                                                         2.492896       5.481935
                                                         5.668552      55.898854
                          1      16    6gx3y             0.051019      -0.000475
                                                         0.082085       0.001093
                                                         0.132068       0.002078
                                                         0.348398      -0.015939
                                                         0.920319       0.897238
                                                         2.492896      14.503835
                                                         5.668552     147.894467
                          1      16    6gx3z             0.051019      -0.000475
                                                         0.082085       0.001093
                                                         0.132068       0.002078
                                                         0.348398      -0.015939
                                                         0.920319       0.897238
                                                         2.492896      14.503835
                                                         5.668552     147.894467
                          1      16    6gx2y2            0.051019      -0.000613
                                                         0.082085       0.001411
                                                         0.132068       0.002683
                                                         0.348398      -0.020577
                                                         0.920319       1.158330
                                                         2.492896      18.724371
                                                         5.668552     190.930936
                          1      16    6gx2yz            0.051019      -0.001063
[...]

 -------------------------------------------------------------------------------
 -                                                                             -
 -                                DBCSR STATISTICS                             -
 -                                                                             -
 -------------------------------------------------------------------------------
 COUNTER                                    TOTAL       BLAS       SMM       ACC
 flops inhomo. stacks                           0       0.0%      0.0%      0.0%
 flops total                         0.000000E+00       0.0%      0.0%      0.0%
 flops max/rank                      0.000000E+00       0.0%      0.0%      0.0%
 matmuls inhomo. stacks                         0       0.0%      0.0%      0.0%
 matmuls total                                  0       0.0%      0.0%      0.0%
 number of processed stacks                     0       0.0%      0.0%      0.0%
 average stack size                                     0.0       0.0       0.0
 marketing flops                     0.000000E+00
 -------------------------------------------------------------------------------
 -                                                                             -
 -                      DBCSR MESSAGE PASSING PERFORMANCE                      -
 -                                                                             -
 -------------------------------------------------------------------------------
 ROUTINE             CALLS      AVE VOLUME [Bytes]
 MP_Bcast                1                     12.
 MP_Allreduce           19                     21.
 MP_Alltoall        522824                  19762.
 -------------------------------------------------------------------------------

 -------------------------------------------------------------------------------
 -                                                                             -
 -                                DBM STATISTICS                               -
 -                                                                             -
 -------------------------------------------------------------------------------
    M  x    N  x    K                                          COUNT     PERCENT
 -------------------------------------------------------------------------------

 -------------------------------------------------------------------------------
 -                                                                             -
 -                                GRID STATISTICS                              -
 -                                                                             -
 -------------------------------------------------------------------------------
 LP    KERNEL             BACKEND                              COUNT     PERCENT
 8     collocate ortho    CPU                                3188680      51.16%
 8     integrate ortho    CPU                                3043740      48.84%
 0     collocate general  CPU                                      8       0.00%
 0     integrate general  CPU                                      4       0.00%
 -------------------------------------------------------------------------------

 MEMORY| Estimated peak process memory [MiB]                                1302

 -------------------------------------------------------------------------------
 ----                             MULTIGRID INFO                            ----
 -------------------------------------------------------------------------------
 count for grid        1:         279624          cutoff [a.u.]          500.00
 count for grid        2:         201188          cutoff [a.u.]          166.67
 count for grid        3:         270940          cutoff [a.u.]           55.56
 count for grid        4:         273748          cutoff [a.u.]           18.52
 total gridlevel count  :        1025500

 -------------------------------------------------------------------------------
 -                                                                             -
 -                         MESSAGE PASSING PERFORMANCE                         -
 -                                                                             -
 -------------------------------------------------------------------------------

 ROUTINE             CALLS      AVE VOLUME [Bytes]
 MP_Group                6
 MP_Bcast           197270                   1841.
 MP_Allreduce       189824                     72.
 MP_Sync                 4
 MP_Alltoall           427                 976247.
 MP_SendRecv          1350                  67405.
 MP_ISendRecv         1275                  65908.
 MP_Wait            134831
 MP_comm_split           4
 MP_ISend           137884                   9383.
 MP_IRecv           229936                   5308.
 -------------------------------------------------------------------------------


 -------------------------------------------------------------------------------
 -                                                                             -
 -                           R E F E R E N C E S                               -
 -                                                                             -
 -------------------------------------------------------------------------------
 
 CP2K version 2025.1 (Development Version), the CP2K developers group (2025).
 CP2K is freely available from https://www.cp2k.org/ .
 
 T. D. Kuehne, M. Iannuzzi, M. Del Ben, V. V. Rybkin, P. Seewald, F. Stein, T. 
 Laino, R. Z. Khaliullin, O. Schuett, F. Schiffmann, D. Golze, J. Wilhelm, S. 
 Chulkov, M. H. Bani-Hashemian, V. Weber, U. Borstnik, M. Taillefumier, A. S. 
 Jakobovits, A. Lazzaro, H. Pabst, T. Mueller, R. Schade, M. Guidon, S. 
 Andermatt, N. Holmberg, G. K. Schenter, A. Hehn, A. Bussy, F. Belleflamme, G. 
 Tabacchi, A. Gloess, M. Lass, I. Bethune, C. J. Mundy, C. Plessl, M. Watkins, 
 J. VandeVondele, M. Krack, J. Hutter.
 J. Chem. Phys. 152, 194103 (2020).
 CP2K: An electronic structure and molecular dynamics software package - 
 Quickstep: Efficient and accurate electronic structure calculations.
 https://doi.org/10.1063/5.0007045

 O. Schuett, P. Messmer, J. Hutter, J. VandeVondele.
 Electronic Structure Calculations on Graphics Processing Units, 173-190 (2016).
 GPU-Accelerated Sparse Matrix-Matrix Multiplication for Linear Scaling Density 
 Functional Theory.
 https://doi.org/10.1002/9781118670712.ch8

 J. Hutter, M. Iannuzzi, F. Schiffmann, J. VandeVondele.
 WIREs Comput Mol Sci. 4, 15-25 (2014).
 CP2K: atomistic simulations of condensed matter systems.
 https://doi.org/10.1002/wcms.1159

 U. Borstnik, J. VandeVondele, V. Weber, J. Hutter.
 Parallel Comput. 40, 47-58 (2014).
 Sparse matrix multiplication: The distributed block-compressed sparse row 
 library.
 https://doi.org/10.1016/j.parco.2014.03.012

 J. VandeVondele, J. Hutter.
 J. Chem. Phys. 127, 114105 (2007).
 Gaussian basis sets for accurate calculations on molecular systems in gas and 
 condensed phases.
 https://doi.org/10.1063/1.2770708

 J. VandeVondele, M. Krack, F. Mohamed, M. Parrinello, T. Chassaing, J. Hutter.
 Comput. Phys. Commun. 167, 103-128 (2005).
 QUICKSTEP: Fast and accurate density functional calculations using a mixed 
 Gaussian and plane waves approach.
 https://doi.org/10.1016/j.cpc.2004.12.014

 M. Krack.
 Theor. Chem. Acc. 114, 145-152 (2005).
 Pseudopotentials for H to Kr optimized for gradient-corrected 
 exchange-correlation functionals.
 https://doi.org/10.1007/s00214-005-0655-y

 M. Frigo, S. G. Johnson.
 Proc. IEEE 93, 216-231 (2005).
 The design and implementation of FFTW3.
 https://doi.org/10.1109/JPROC.2004.840301

 C. Hartwigsen, S. Goedecker, J. Hutter.
 Phys. Rev. B 58, 3641-3662 (1998).
 Relativistic separable dual-space Gaussian pseudopotentials from H to Rn.
 https://doi.org/10.1103/PhysRevB.58.3641

 G. Lippert, J. Hutter, M. Parrinello.
 Mol. Phys. 92, 477-487 (1997).
 A hybrid Gaussian and plane wave density functional scheme.
 https://doi.org/10.1080/002689797170220

 S. Goedecker, M. Teter, J. Hutter.
 Phys. Rev. B 54, 1703-1710 (1996).
 Separable dual-space Gaussian pseudopotentials.
 https://doi.org/10.1103/PhysRevB.54.1703

 J. P. Perdew, K. Burke, M. Ernzerhof.
 Phys. Rev. Lett. 77, 3865-3868 (1996).
 Generalized gradient approximation made simple.
 https://doi.org/10.1103/PhysRevLett.77.3865


 -------------------------------------------------------------------------------
 -                                                                             -
 -                                T I M I N G                                  -
 -                                                                             -
 -------------------------------------------------------------------------------
 SUBROUTINE                       CALLS  ASD         SELF TIME        TOTAL TIME
                                MAXIMUM       AVERAGE  MAXIMUM  AVERAGE  MAXIMUM
 CP2K                                 1  1.0    0.023    0.027  803.690  803.690
 qs_energies                          1  2.0    0.016    0.105  803.360  803.432
 scf_env_do_scf                       1  3.0    0.000    0.000  781.425  781.425
 scf_env_do_scf_inner_loop           21  4.0    0.057    0.060  781.424  781.425
 do_general_diag_kp                  22  5.9    0.145    0.160  740.258  758.697
 qs_scf_new_mos_kp                   21  5.0    0.000    0.000  725.666  744.032
 mp_alltoall_i22                  89028  8.7  279.097  698.148  279.097  698.148
 dbcsr_desymmetrize_deep          50186  7.4    1.078    1.382  202.837  492.337
 rskp_transform                   11048  6.9  269.549  443.303  269.549  443.303
 dbcsr_complete_redistribute      38842  8.1    2.305    2.649   98.701  228.384
 kpoint_density_transform            21  7.0    0.089    0.098  226.153  226.665
 copy_fm_to_dbcsr                 10752  8.0    0.072    0.080   86.734  215.815
 transform_dmat                    5376  8.0  129.535  210.935  129.535  210.935
 qs_ks_update_qs_env                 21  5.0    0.000    0.000   23.015   34.407
 rebuild_ks_matrix                   21  6.0    0.000    0.000   19.863   31.254
 qs_ks_build_kohn_sham_matrix        21  7.0    0.106    0.112   19.863   31.254
 sum_up_and_integrate                21  8.0    0.000    0.000   19.080   30.428
 integrate_v_rspace                  21  9.0    0.331    0.540   19.079   30.427
 grid_integrate_task_list            21 10.0   18.539   29.720   18.539   29.720
 transfer_rs2pw                      90  8.0    0.001    0.001   10.056   25.343
 transfer_rs2pw_500                  24  8.9    0.029    0.031   10.021   25.315
 mp_sendrecv_dv                    1350 10.0   10.019   25.306   10.019   25.306
 copy_dbcsr_to_fm                 28090  6.7    0.345    0.370   22.929   23.959
 qs_rho_update_rho_low               22  5.0    0.000    0.000   21.450   21.523
 calculate_rho_elec                  22  6.0    0.050    0.102   21.449   21.523
 density_rs2pw                       22  7.0    0.001    0.001    8.522   21.467
 grid_collocate_task_list            22  7.0   12.876   20.977   12.876   20.977
 cp_cfm_geeig_canon                 373  6.7    0.017    0.025   19.861   20.058
 cp_cfm_heevd                       746  7.7    0.001    0.001   16.303   16.451
 cp_cfm_heevd_base                  746  8.7   16.302   16.450   16.302   16.450
 cp_fm_start_copy_general         32848  7.3    1.559    1.975   15.351   15.690
 mp_allgather_i                   65696  8.3   12.136   12.542   12.136   12.542
 write_kpoints_restart               21  5.0    0.028    0.039    9.410    9.411
 cp_fm_write_unformatted           5994  6.0    1.994    4.388    2.566    5.306
 mp_alltoall_d11v                267084  9.2    4.811    5.271    4.811    5.271
 qs_energies_init_hamiltonians        1  3.0    0.000    0.000    4.722    4.722
 dbcsr_finalize                  137236  7.7    0.544    0.698    3.840    4.350
 build_core_hamiltonian_matrix        1  4.0    0.011    0.011    2.617    4.181
 qs_env_update_s_mstruct              1  4.0    0.000    0.000    1.896    3.945
 calculate_rho_core                   1  5.0    0.001    0.002    1.571    3.913
 dbcsr_dot                       125875  8.0    1.162    1.611    3.388    3.905
 mp_sum_d                        126463  9.0    2.056    3.558    2.056    3.558
 cp_cfm_gemm                       1119  7.7    3.451    3.492    3.451    3.492
 mp_cart_sub                      56183  8.7    3.271    3.289    3.271    3.289
 mp_send_dv                        5994  7.0    0.514    3.201    0.514    3.201
 hybrid_alltoall_any              50186  8.4    0.221    0.236    2.817    3.163
 evaluate_core_matrix_traces         21  6.0    0.000    0.000    3.152    3.152
 calculate_ptrace_kp                 42  7.0    0.093    0.096    3.152    3.152
 mp_alltoall_i11v                166712  8.9    2.749    3.103    2.749    3.103
 cp_dbcsr_alloc_block_from_nbl    21107  5.0    1.399    2.358    1.820    3.035
 dbcsr_create_new                274874  7.7    2.355    2.749    2.572    2.971
 self_consistency_check              21  5.0    0.090    0.093    2.195    2.701
 dbcsr_merge_all                  38842 10.1    1.336    1.800    2.213    2.597
 kpoint_set_mo_occupation            21  7.0    1.981    1.997    2.299    2.567
 cp_sm_mix                        62937  6.0    0.503    0.738    1.857    2.534
 kpoint_density_matrices             21  7.0    0.024    0.026    2.200    2.499
 parallel_gemm_fm                  1344  8.0    0.002    0.002    2.132    2.427
 parallel_gemm_fm_gemm             1344  9.0    0.002    0.002    2.130    2.425
 cp_fm_gemm                        1344 10.0    2.128    2.423    2.128    2.423
 build_core_ppnl                      1  5.0    1.448    2.319    1.448    2.319
 mp_max_d                         62939  7.0    1.204    2.244    1.204    2.244
 mp_cart_create                   28097  8.7    1.922    1.975    1.922    1.975
 init_scf_run                         1  3.0    0.000    0.000    1.335    1.842
 scf_env_initial_rho_setup            1  4.0    0.000    0.000    1.335    1.842
 cp_fm_finish_copy_general        12244  7.8    1.448    1.569    1.477    1.607
 dbcsr_copy                      139623  6.7    0.827    0.916    1.263    1.404
 copy_fm_to_dbcsr_bc              10752  9.0    0.187    0.208    0.926    1.215
 mp_bcast_iv                     131416  8.3    1.086    1.174    1.086    1.174
 dbcsr_work_create                89028  8.7    0.563    0.590    0.950    1.020
 dbcsr_set                       204879  7.2    0.190    0.200    0.669    0.943
 dbcsr_iterator_start            436207  8.6    0.778    0.805    0.925    0.941
 mp_recv_dv                       23976  7.0    0.057    0.918    0.057    0.918
 mixing_allocate                      1  3.0    0.017    0.018    0.569    0.894
 copy_dbcsr_to_fm_bc              28090  7.7    0.445    0.515    0.811    0.874
 calculate_first_density_matrix       1  5.0    0.002    0.002    0.347    0.855
 calculate_atomic_block_dm            1  6.0    0.001    0.001    0.334    0.849
 dbcsr_reserve_blocks             31859  7.7    0.492    0.767    0.512    0.794
 dbcsr_data_new                  987371  9.5    0.696    0.775    0.696    0.775
 build_kinetic_matrix_low             1  5.0    0.143    0.260    0.416    0.759
 tree_to_linear_d                 38842 11.1    0.637    0.758    0.637    0.758
 dbcsr_zero                      204879  8.2    0.479    0.744    0.479    0.744
 dbcsr_work_destroy_all           89028  9.7    0.435    0.443    0.719    0.742
 dbcsr_data_release             1523950  9.9    0.651    0.690    0.651    0.690
 build_overlap_matrix_low             1  5.0    0.153    0.274    0.419    0.686
 dbcsr_iterator_stop             436207  8.6    0.491    0.501    0.590    0.606
 mp_sum_dm3                          21  8.0    0.318    0.588    0.318    0.588
 dbcsr_destroy                   149000  7.4    0.258    0.278    0.533    0.586
 calculate_ecore_overlap              1  4.0    0.000    0.000    0.182    0.476
 qs_env_rebuild_rho                   1  5.0    0.000    0.000    0.283    0.440
 qs_rho_rebuild                       1  6.0    0.009    0.009    0.283    0.440
 mp_sum_iv                           24  5.3    0.180    0.435    0.180    0.435
 qs_scf_ensure_work_matrices          1  3.0    0.000    0.000    0.180    0.435
 fft_wrap_pw1pw2                    383 10.0    0.003    0.003    0.283    0.358
 quick_finalize                   50186  9.4    0.177    0.189    0.325    0.342
 mp_comm_free                     84314  8.7    0.303    0.335    0.303    0.335
 fft_wrap_pw1pw2_500                254 11.3    0.011    0.011    0.255    0.330
 fft3d_ps                           383 12.0    0.060    0.068    0.249    0.323
 mp_bcast_im                      65696  8.3    0.310    0.321    0.310    0.321
 mp_waitall_1                    134831  8.3    0.139    0.314    0.139    0.314
 potential_pw2rs                     21 10.0    0.001    0.001    0.210    0.285
 dbcsr_copy_into_existing         13749  9.1    0.141    0.187    0.221    0.270
 mp_sum_dv                          316  3.3    0.106    0.251    0.106    0.251
 mp_alltoall_z22v                   383 14.0    0.162    0.237    0.162    0.237
 mp_isend_dv                      32848  8.3    0.190    0.217    0.190    0.217
 yz_to_x                            151 13.1    0.006    0.007    0.126    0.201
 dbcsr_data_copy_aa2              38842 11.0    0.097    0.191    0.097    0.191
 cp_cfm_scale_and_add_fm           1492  6.7    0.158    0.165    0.158    0.165
 dbcsr_iterator_seek             436207  9.6    0.147    0.164    0.147    0.164
 dbcsr_make_index_exist          274874  8.7    0.143    0.163    0.143    0.163
 dbcsr_reserve_all_blocks         10752 10.0    0.019    0.023    0.118    0.148
 dbcsr_sort_indices              120887 10.3    0.122    0.143    0.122    0.143
 qs_vxc_create                       21  8.0    0.000    0.000    0.137    0.137
 xc_vxc_pw_create                    21  9.0    0.005    0.005    0.136    0.137
 transfer_pw2rs                      85 11.0    0.000    0.001    0.105    0.105
 parser_read_line                  5707  4.1    0.002    0.002    0.096    0.097
 restraint_control                    1  2.0    0.000    0.000    0.072    0.097
 mp_sum_i                             5  4.6    0.072    0.097    0.072    0.097
 parser_read_line_low                23  6.2    0.006    0.034    0.094    0.095
 xc_pw_derive                       126 11.0    0.000    0.000    0.090    0.094
 merge_index                      38842 11.1    0.078    0.093    0.078    0.093
 scf_post_calculation_gpw             1  3.0    0.000    0.000    0.091    0.091
 write_available_results              1  4.0    0.000    0.000    0.091    0.091
 broadcast_input_information         23  7.2    0.026    0.038    0.088    0.091
 write_mo_free_results                1  5.0    0.001    0.001    0.091    0.091
 cp_cfm_to_fm                       373  6.7    0.082    0.085    0.082    0.085
 gspace_mixing                       20  5.0    0.004    0.004    0.083    0.083
 -------------------------------------------------------------------------------

 The number of warnings for this run is : 1
 
 -------------------------------------------------------------------------------
  **** **** ******  **  PROGRAM ENDED AT                 2025-08-05 18:03:59.092
 ***** ** ***  *** **   PROGRAM RAN ON                              i01r07c04s09
 **    ****   ******    PROGRAM RAN BY                                   di38fab
 ***** **    ** ** **   PROGRAM PROCESS ID                               4191851
  **** **  *******  **  PROGRAM STOPPED IN /hppfs/scratch/04/di38fab/09_GTH/Delt
                                           a_Set/Cu/aug-TZVP-MOLOPT-GTH-tier-2/8
                                           x8x8
