   4   4   0   0
  0.3207961E+02  0.5043860E-09  0.5043860E-09  0.5043860E-09  0.5000000E-15
  1.000000000000000E-004
  CAR 
 Pb                                      
     23.11954614    -13.41618532  301      6.61729487      1.00000000
    -13.416  0.0000E+00  0.0000E+00
    -13.294  0.0000E+00  0.0000E+00
    -13.173  0.0000E+00  0.0000E+00
    -13.051  0.0000E+00  0.0000E+00
    -12.929  0.0000E+00  0.0000E+00
    -12.807  0.0000E+00  0.0000E+00
    -12.685  0.0000E+00  0.0000E+00
    -12.564  0.0000E+00  0.0000E+00
    -12.442  0.0000E+00  0.0000E+00
    -12.320  0.0000E+00  0.0000E+00
    -12.198  0.0000E+00  0.0000E+00
    -12.077  0.0000E+00  0.0000E+00
    -11.955  0.4152E-07  0.5057E-08
    -11.833  0.2248E+00  0.2738E-01
    -11.711  0.7189E+02  0.8782E+01
    -11.589  0.5918E+02  0.1599E+02
    -11.468  0.9215E-01  0.1600E+02
    -11.346  0.5280E-08  0.1600E+02
    -11.224  0.0000E+00  0.1600E+02
    -11.102  0.0000E+00  0.1600E+02
    -10.980  0.0000E+00  0.1600E+02
    -10.859  0.0000E+00  0.1600E+02
    -10.737  0.0000E+00  0.1600E+02
    -10.615  0.0000E+00  0.1600E+02
    -10.493  0.0000E+00  0.1600E+02
    -10.372  0.0000E+00  0.1600E+02
    -10.250  0.0000E+00  0.1600E+02
    -10.128  0.0000E+00  0.1600E+02
    -10.006  0.0000E+00  0.1600E+02
     -9.884  0.0000E+00  0.1600E+02
     -9.763  0.0000E+00  0.1600E+02
     -9.641  0.0000E+00  0.1600E+02
     -9.519  0.5316E-13  0.1600E+02
     -9.397  0.1037E-03  0.1600E+02
     -9.275  0.6068E+01  0.1674E+02
     -9.154  0.1003E+03  0.2895E+02
     -9.032  0.7856E+02  0.3852E+02
     -8.910  0.1210E+02  0.4000E+02
     -8.788  0.2973E-01  0.4000E+02
     -8.667  0.1478E-07  0.4000E+02
     -8.545  0.0000E+00  0.4000E+02
     -8.423  0.0000E+00  0.4000E+02
     -8.301  0.0000E+00  0.4000E+02
     -8.179  0.0000E+00  0.4000E+02
     -8.058  0.0000E+00  0.4000E+02
     -7.936  0.0000E+00  0.4000E+02
     -7.814  0.0000E+00  0.4000E+02
     -7.692  0.0000E+00  0.4000E+02
     -7.570  0.0000E+00  0.4000E+02
     -7.449  0.0000E+00  0.4000E+02
     -7.327  0.0000E+00  0.4000E+02
     -7.205  0.0000E+00  0.4000E+02
     -7.083  0.0000E+00  0.4000E+02
     -6.962  0.0000E+00  0.4000E+02
     -6.840  0.0000E+00  0.4000E+02
     -6.718  0.0000E+00  0.4000E+02
     -6.596  0.0000E+00  0.4000E+02
     -6.474  0.0000E+00  0.4000E+02
     -6.353  0.0000E+00  0.4000E+02
     -6.231  0.0000E+00  0.4000E+02
     -6.109  0.0000E+00  0.4000E+02
     -5.987  0.0000E+00  0.4000E+02
     -5.865  0.0000E+00  0.4000E+02
     -5.744  0.0000E+00  0.4000E+02
     -5.622  0.0000E+00  0.4000E+02
     -5.500  0.0000E+00  0.4000E+02
     -5.378  0.0000E+00  0.4000E+02
     -5.257  0.0000E+00  0.4000E+02
     -5.135  0.0000E+00  0.4000E+02
     -5.013  0.0000E+00  0.4000E+02
     -4.891  0.2254E-10  0.4000E+02
     -4.769  0.8479E-04  0.4000E+02
     -4.648  0.4390E-01  0.4001E+02
     -4.526  0.2379E+00  0.4003E+02
     -4.404  0.4436E+00  0.4009E+02
     -4.282  0.4576E+00  0.4014E+02
     -4.160  0.5741E+00  0.4021E+02
     -4.039  0.6388E+00  0.4029E+02
     -3.917  0.7712E+00  0.4039E+02
     -3.795  0.8636E+00  0.4049E+02
     -3.673  0.5697E+00  0.4056E+02
     -3.552  0.1130E+01  0.4070E+02
     -3.430  0.1066E+01  0.4083E+02
     -3.308  0.7282E+00  0.4092E+02
     -3.186  0.1186E+01  0.4106E+02
     -3.064  0.1019E+01  0.4118E+02
     -2.943  0.1470E+01  0.4136E+02
     -2.821  0.1192E+01  0.4151E+02
     -2.699  0.8423E+00  0.4161E+02
     -2.577  0.1567E+01  0.4180E+02
     -2.455  0.1751E+01  0.4202E+02
     -2.334  0.1221E+01  0.4216E+02
     -2.212  0.1607E+01  0.4236E+02
     -2.090  0.1386E+01  0.4253E+02
     -1.968  0.2021E+01  0.4278E+02
     -1.847  0.1504E+01  0.4296E+02
     -1.725  0.2602E+01  0.4328E+02
     -1.603  0.1650E+01  0.4348E+02
     -1.481  0.1972E+01  0.4372E+02
     -1.359  0.2906E+01  0.4407E+02
     -1.238  0.3389E+01  0.4448E+02
     -1.116  0.2694E+01  0.4481E+02
     -0.994  0.3165E+01  0.4520E+02
     -0.872  0.2223E+01  0.4547E+02
     -0.750  0.3062E+01  0.4584E+02
     -0.629  0.2920E+01  0.4620E+02
     -0.507  0.3156E+01  0.4658E+02
     -0.385  0.2142E+01  0.4684E+02
     -0.263  0.2772E+01  0.4718E+02
     -0.142  0.3707E+01  0.4763E+02
     -0.020  0.2616E+01  0.4795E+02
      0.102  0.4221E+00  0.4800E+02
      0.224  0.4236E-03  0.4800E+02
      0.346  0.2990E-10  0.4800E+02
      0.467  0.0000E+00  0.4800E+02
      0.589  0.0000E+00  0.4800E+02
      0.711  0.0000E+00  0.4800E+02
      0.833  0.0000E+00  0.4800E+02
      0.955  0.0000E+00  0.4800E+02
      1.076  0.0000E+00  0.4800E+02
      1.198  0.0000E+00  0.4800E+02
      1.320  0.0000E+00  0.4800E+02
      1.442  0.0000E+00  0.4800E+02
      1.563  0.0000E+00  0.4800E+02
      1.685  0.0000E+00  0.4800E+02
      1.807  0.0000E+00  0.4800E+02
      1.929  0.0000E+00  0.4800E+02
      2.051  0.0000E+00  0.4800E+02
      2.172  0.0000E+00  0.4800E+02
      2.294  0.0000E+00  0.4800E+02
      2.416  0.1389E-11  0.4800E+02
      2.538  0.4074E-04  0.4800E+02
      2.660  0.2679E-01  0.4800E+02
      2.781  0.3523E+00  0.4805E+02
      2.903  0.3803E+00  0.4809E+02
      3.025  0.8436E+00  0.4820E+02
      3.147  0.7184E+00  0.4828E+02
      3.268  0.9290E+00  0.4840E+02
      3.390  0.1136E+01  0.4853E+02
      3.512  0.1409E+01  0.4871E+02
      3.634  0.1384E+01  0.4887E+02
      3.756  0.1780E+01  0.4909E+02
      3.877  0.2610E+01  0.4941E+02
      3.999  0.2831E+01  0.4975E+02
      4.121  0.2864E+01  0.5010E+02
      4.243  0.3476E+01  0.5053E+02
      4.365  0.4157E+01  0.5103E+02
      4.486  0.4719E+01  0.5161E+02
      4.608  0.4246E+01  0.5212E+02
      4.730  0.2986E+01  0.5249E+02
      4.852  0.1790E+01  0.5271E+02
      4.973  0.1317E+01  0.5287E+02
      5.095  0.2080E+01  0.5312E+02
      5.217  0.1270E+01  0.5327E+02
      5.339  0.1463E+01  0.5345E+02
      5.461  0.1935E+01  0.5369E+02
      5.582  0.1299E+01  0.5385E+02
      5.704  0.5794E+00  0.5392E+02
      5.826  0.2007E+01  0.5416E+02
      5.948  0.2905E+01  0.5451E+02
      6.070  0.3537E+01  0.5495E+02
      6.191  0.1396E+01  0.5512E+02
      6.313  0.1997E+01  0.5536E+02
      6.435  0.1691E+01  0.5556E+02
      6.557  0.2017E+01  0.5581E+02
      6.678  0.3212E+01  0.5620E+02
      6.800  0.3164E+01  0.5659E+02
      6.922  0.1249E+01  0.5674E+02
      7.044  0.8287E+00  0.5684E+02
      7.166  0.3293E+01  0.5724E+02
      7.287  0.3385E+01  0.5765E+02
      7.409  0.1099E+01  0.5779E+02
      7.531  0.2095E+01  0.5804E+02
      7.653  0.3395E+01  0.5846E+02
      7.775  0.2392E+01  0.5875E+02
      7.896  0.2586E+01  0.5906E+02
      8.018  0.2865E+01  0.5941E+02
      8.140  0.2168E+01  0.5967E+02
      8.262  0.3027E+01  0.6004E+02
      8.383  0.2023E+01  0.6029E+02
      8.505  0.3471E+01  0.6071E+02
      8.627  0.2910E+01  0.6107E+02
      8.749  0.2506E+01  0.6137E+02
      8.871  0.3023E+01  0.6174E+02
      8.992  0.3092E+01  0.6212E+02
      9.114  0.3414E+01  0.6253E+02
      9.236  0.3431E+01  0.6295E+02
      9.358  0.3516E+01  0.6338E+02
      9.480  0.3211E+01  0.6377E+02
      9.601  0.3222E+01  0.6416E+02
      9.723  0.2748E+01  0.6450E+02
      9.845  0.2362E+01  0.6478E+02
      9.967  0.3817E+01  0.6525E+02
     10.088  0.3382E+01  0.6566E+02
     10.210  0.2626E+01  0.6598E+02
     10.332  0.2115E+01  0.6624E+02
     10.454  0.2347E+01  0.6652E+02
     10.576  0.3731E+01  0.6698E+02
     10.697  0.2602E+01  0.6730E+02
     10.819  0.2431E+01  0.6759E+02
     10.941  0.2112E+01  0.6785E+02
     11.063  0.1953E+01  0.6809E+02
     11.185  0.3433E+01  0.6851E+02
     11.306  0.2581E+01  0.6882E+02
     11.428  0.1101E+01  0.6895E+02
     11.550  0.1961E+01  0.6919E+02
     11.672  0.1323E+01  0.6935E+02
     11.793  0.1595E+01  0.6955E+02
     11.915  0.2393E+01  0.6984E+02
     12.037  0.1862E+01  0.7007E+02
     12.159  0.1751E+01  0.7028E+02
     12.281  0.1343E+01  0.7044E+02
     12.402  0.1264E+01  0.7060E+02
     12.524  0.1745E+01  0.7081E+02
     12.646  0.2164E+01  0.7107E+02
     12.768  0.2466E+01  0.7137E+02
     12.890  0.1389E+01  0.7154E+02
     13.011  0.1577E+01  0.7173E+02
     13.133  0.2468E+01  0.7203E+02
     13.255  0.2332E+01  0.7232E+02
     13.377  0.1467E+01  0.7250E+02
     13.498  0.2302E+01  0.7278E+02
     13.620  0.2720E+01  0.7311E+02
     13.742  0.2655E+01  0.7343E+02
     13.864  0.2017E+01  0.7368E+02
     13.986  0.2396E+01  0.7397E+02
     14.107  0.2941E+01  0.7433E+02
     14.229  0.3213E+01  0.7472E+02
     14.351  0.2216E+01  0.7499E+02
     14.473  0.1966E+01  0.7523E+02
     14.595  0.3031E+01  0.7560E+02
     14.716  0.3997E+01  0.7608E+02
     14.838  0.2669E+01  0.7641E+02
     14.960  0.3749E+01  0.7687E+02
     15.082  0.3735E+01  0.7732E+02
     15.203  0.4657E+01  0.7789E+02
     15.325  0.2729E+01  0.7822E+02
     15.447  0.5571E+01  0.7890E+02
     15.569  0.2927E+01  0.7926E+02
     15.691  0.3969E+01  0.7974E+02
     15.812  0.5343E+01  0.8039E+02
     15.934  0.2685E+01  0.8072E+02
     16.056  0.2344E+01  0.8100E+02
     16.178  0.2552E+01  0.8131E+02
     16.300  0.2261E+01  0.8159E+02
     16.421  0.1993E+01  0.8183E+02
     16.543  0.1669E+01  0.8203E+02
     16.665  0.2198E+01  0.8230E+02
     16.787  0.3043E+01  0.8267E+02
     16.908  0.2207E+01  0.8294E+02
     17.030  0.3565E+01  0.8338E+02
     17.152  0.1913E+01  0.8361E+02
     17.274  0.4805E+01  0.8419E+02
     17.396  0.3081E+01  0.8457E+02
     17.517  0.1876E+01  0.8480E+02
     17.639  0.2503E+01  0.8510E+02
     17.761  0.3717E+01  0.8555E+02
     17.883  0.3991E+01  0.8604E+02
     18.005  0.4563E+01  0.8660E+02
     18.126  0.2589E+01  0.8691E+02
     18.248  0.2682E+01  0.8724E+02
     18.370  0.2732E+01  0.8757E+02
     18.492  0.3497E+01  0.8800E+02
     18.613  0.3685E+01  0.8845E+02
     18.735  0.4782E+01  0.8903E+02
     18.857  0.4108E+01  0.8953E+02
     18.979  0.5261E+01  0.9017E+02
     19.101  0.4847E+01  0.9076E+02
     19.222  0.3622E+01  0.9120E+02
     19.344  0.3484E+01  0.9163E+02
     19.466  0.4936E+01  0.9223E+02
     19.588  0.5035E+01  0.9284E+02
     19.710  0.3864E+01  0.9331E+02
     19.831  0.4365E+01  0.9384E+02
     19.953  0.3768E+01  0.9430E+02
     20.075  0.2939E+01  0.9466E+02
     20.197  0.1753E+01  0.9487E+02
     20.318  0.1821E+01  0.9509E+02
     20.440  0.1500E+01  0.9528E+02
     20.562  0.1804E+01  0.9550E+02
     20.684  0.1192E+01  0.9564E+02
     20.806  0.6002E+00  0.9571E+02
     20.927  0.9564E+00  0.9583E+02
     21.049  0.7506E+00  0.9592E+02
     21.171  0.4672E+00  0.9598E+02
     21.293  0.1128E+00  0.9599E+02
     21.415  0.8298E-02  0.9599E+02
     21.536  0.4818E-01  0.9600E+02
     21.658  0.5580E-03  0.9600E+02
     21.780  0.2762E-09  0.9600E+02
     21.902  0.0000E+00  0.9600E+02
     22.023  0.0000E+00  0.9600E+02
     22.145  0.0000E+00  0.9600E+02
     22.267  0.0000E+00  0.9600E+02
     22.389  0.0000E+00  0.9600E+02
     22.511  0.0000E+00  0.9600E+02
     22.632  0.0000E+00  0.9600E+02
     22.754  0.0000E+00  0.9600E+02
     22.876  0.0000E+00  0.9600E+02
     22.998  0.0000E+00  0.9600E+02
     23.120  0.0000E+00  0.9600E+02
