    4    4    1    1
  0.3207961E+02  0.5043860E-09  0.5043860E-09  0.5043860E-09  0.5000000E-15
  1.000000000000000E-004
  CAR 
 Pb                                      
     56    294     96
 
  0.0000000E+00  0.0000000E+00  0.0000000E+00  0.5787037E-03
      1        -11.755470   1.000000
      2        -11.755467   1.000000
      3        -11.755467   1.000000
      4        -11.755464   1.000000
      5        -11.731075   1.000000
      6        -11.731075   1.000000
      7        -11.731075   1.000000
      8        -11.731069   1.000000
      9        -11.731069   1.000000
     10        -11.731069   1.000000
     11        -11.687109   1.000000
     12        -11.687109   1.000000
     13        -11.687109   1.000000
     14        -11.687104   1.000000
     15        -11.687104   1.000000
     16        -11.687104   1.000000
     17         -9.261111   1.000000
     18         -9.261104   1.000000
     19         -9.237065   1.000000
     20         -9.237065   1.000000
     21         -9.237065   1.000000
     22         -9.237052   1.000000
     23         -9.237052   1.000000
     24         -9.237052   1.000000
     25         -9.179247   1.000000
     26         -9.179246   1.000000
     27         -9.179238   1.000000
     28         -9.179237   1.000000
     29         -9.177851   1.000000
     30         -9.177851   1.000000
     31         -9.177851   1.000000
     32         -9.177842   1.000000
     33         -9.177842   1.000000
     34         -9.177842   1.000000
     35         -8.976478   1.000000
     36         -8.976478   1.000000
     37         -8.976478   1.000000
     38         -8.976472   1.000000
     39         -8.976472   1.000000
     40         -8.976472   1.000000
     41         -4.684218   1.000000
     42         -4.684038   1.000000
     43         -0.087299   1.000000
     44         -0.087299   1.000000
     45         -0.087299   1.000000
     46         -0.087162   1.000000
     47         -0.087162   1.000000
     48         -0.087162   1.000000
     49          3.472403   1.000000
     50          3.472403   1.000000
     51          3.472403   1.000000
     52          3.472611   1.000000
     53          3.472611   1.000000
     54          3.472611   1.000000
     55          8.077401   0.000000
     56          8.077401   0.000000
     57          8.077401   0.000000
     58          8.077492   0.000000
     59          8.077492   0.000000
     60          8.077492   0.000000
     61          9.228135   0.000000
     62          9.228135   0.000000
     63          9.228135   0.000000
     64          9.228237   0.000000
     65          9.228237   0.000000
     66          9.228237   0.000000
     67         11.568955   0.000000
     68         11.568997   0.000000
     69         11.917471   0.000000
     70         11.917471   0.000000
     71         11.917471   0.000000
     72         11.917757   0.000000
     73         11.917757   0.000000
     74         11.917757   0.000000
     75         13.187931   0.000000
     76         13.187931   0.000000
     77         13.187931   0.000000
     78         13.188204   0.000000
     79         13.188204   0.000000
     80         13.188204   0.000000
     81         14.552844   0.000000
     82         14.552894   0.000000
     83         14.552947   0.000000
     84         14.552997   0.000000
     85         16.415968   0.000000
     86         16.416313   0.000000
     87         17.332185   0.000000
     88         17.332493   0.000000
     89         18.674749   0.000000
     90         18.674809   0.000000
     91         18.674871   0.000000
     92         18.674931   0.000000
     93         18.996526   0.000000
     94         18.996587   0.000000
     95         20.777753   0.000000
     96         20.777835   0.000000
 
  0.8333333E-01 -0.2602685E-32  0.0000000E+00  0.3472222E-02
      1        -11.754871   1.000000
      2        -11.754868   1.000000
      3        -11.753839   1.000000
      4        -11.753836   1.000000
      5        -11.731389   1.000000
      6        -11.731382   1.000000
      7        -11.730138   1.000000
      8        -11.730138   1.000000
      9        -11.730132   1.000000
     10        -11.730132   1.000000
     11        -11.688063   1.000000
     12        -11.688059   1.000000
     13        -11.687335   1.000000
     14        -11.687335   1.000000
     15        -11.687331   1.000000
     16        -11.687331   1.000000
     17         -9.258478   1.000000
     18         -9.258471   1.000000
     19         -9.236956   1.000000
     20         -9.236943   1.000000
     21         -9.235533   1.000000
     22         -9.235533   1.000000
     23         -9.235521   1.000000
     24         -9.235521   1.000000
     25         -9.178702   1.000000
     26         -9.178694   1.000000
     27         -9.178471   1.000000
     28         -9.178461   1.000000
     29         -9.177677   1.000000
     30         -9.177670   1.000000
     31         -9.177379   1.000000
     32         -9.177379   1.000000
     33         -9.177369   1.000000
     34         -9.177369   1.000000
     35         -8.980973   1.000000
     36         -8.980967   1.000000
     37         -8.980678   1.000000
     38         -8.980678   1.000000
     39         -8.980672   1.000000
     40         -8.980672   1.000000
     41         -4.642377   1.000000
     42         -4.642197   1.000000
     43         -0.309545   1.000000
     44         -0.309402   1.000000
     45         -0.081402   1.000000
     46         -0.081402   1.000000
     47         -0.081266   1.000000
     48         -0.081266   1.000000
     49          3.522166   1.000000
     50          3.522166   1.000000
     51          3.522373   1.000000
     52          3.522373   1.000000
     53          3.749219   1.000000
     54          3.749420   1.000000
     55          7.920152   0.000000
     56          7.920152   0.000000
     57          7.920246   0.000000
     58          7.920246   0.000000
     59          8.133763   0.000000
     60          8.133854   0.000000
     61          8.993571   0.000000
     62          8.993571   0.000000
     63          8.993677   0.000000
     64          8.993677   0.000000
     65          9.282376   0.000000
     66          9.282477   0.000000
     67         11.418246   0.000000
     68         11.418289   0.000000
     69         11.973947   0.000000
     70         11.974234   0.000000
     71         12.224602   0.000000
     72         12.224602   0.000000
     73         12.224878   0.000000
     74         12.224878   0.000000
     75         13.214222   0.000000
     76         13.214496   0.000000
     77         13.451538   0.000000
     78         13.451538   0.000000
     79         13.451807   0.000000
     80         13.451807   0.000000
     81         14.188170   0.000000
     82         14.188269   0.000000
     83         14.327556   0.000000
     84         14.327646   0.000000
     85         16.227007   0.000000
     86         16.227339   0.000000
     87         17.721030   0.000000
     88         17.721322   0.000000
     89         18.896910   0.000000
     90         18.897013   0.000000
     91         18.953232   0.000000
     92         18.953353   0.000000
     93         19.256826   0.000000
     94         19.256888   0.000000
     95         20.377154   0.000000
     96         20.377359   0.000000
 
  0.1666667E+00 -0.1175676E-32  0.0000000E+00  0.3472222E-02
      1        -11.753296   1.000000
      2        -11.753293   1.000000
      3        -11.749284   1.000000
      4        -11.749281   1.000000
      5        -11.732335   1.000000
      6        -11.732329   1.000000
      7        -11.727308   1.000000
      8        -11.727308   1.000000
      9        -11.727302   1.000000
     10        -11.727302   1.000000
     11        -11.690605   1.000000
     12        -11.690601   1.000000
     13        -11.688006   1.000000
     14        -11.688006   1.000000
     15        -11.688002   1.000000
     16        -11.688002   1.000000
     17         -9.252184   1.000000
     18         -9.252176   1.000000
     19         -9.236677   1.000000
     20         -9.236665   1.000000
     21         -9.231217   1.000000
     22         -9.231217   1.000000
     23         -9.231205   1.000000
     24         -9.231205   1.000000
     25         -9.178991   1.000000
     26         -9.178981   1.000000
     27         -9.177493   1.000000
     28         -9.177485   1.000000
     29         -9.174859   1.000000
     30         -9.174859   1.000000
     31         -9.174849   1.000000
     32         -9.174849   1.000000
     33         -9.173024   1.000000
     34         -9.173017   1.000000
     35         -8.994059   1.000000
     36         -8.994053   1.000000
     37         -8.992837   1.000000
     38         -8.992837   1.000000
     39         -8.992831   1.000000
     40         -8.992831   1.000000
     41         -4.516810   1.000000
     42         -4.516630   1.000000
     43         -0.831505   1.000000
     44         -0.831353   1.000000
     45         -0.065081   1.000000
     46         -0.065081   1.000000
     47         -0.064945   1.000000
     48         -0.064945   1.000000
     49          3.669359   1.000000
     50          3.669359   1.000000
     51          3.669564   1.000000
     52          3.669564   1.000000
     53          4.431150   1.000000
     54          4.431339   1.000000
     55          7.533969   0.000000
     56          7.533969   0.000000
     57          7.534069   0.000000
     58          7.534069   0.000000
     59          8.303111   0.000000
     60          8.303200   0.000000
     61          8.477908   0.000000
     62          8.477908   0.000000
     63          8.478025   0.000000
     64          8.478025   0.000000
     65          9.444205   0.000000
     66          9.444306   0.000000
     67         11.009718   0.000000
     68         11.009764   0.000000
     69         12.146430   0.000000
     70         12.146717   0.000000
     71         12.978372   0.000000
     72         12.978372   0.000000
     73         12.978631   0.000000
     74         12.978631   0.000000
     75         13.293274   0.000000
     76         13.293548   0.000000
     77         13.422410   0.000000
     78         13.422511   0.000000
     79         13.778115   0.000000
     80         13.778207   0.000000
     81         14.137218   0.000000
     82         14.137218   0.000000
     83         14.137475   0.000000
     84         14.137475   0.000000
     85         15.813061   0.000000
     86         15.813375   0.000000
     87         18.361137   0.000000
     88         18.361408   0.000000
     89         19.325116   0.000000
     90         19.325277   0.000000
     91         19.561013   0.000000
     92         19.561078   0.000000
     93         19.623491   0.000000
     94         19.623652   0.000000
     95         19.921269   0.000000
     96         19.921337   0.000000
 
  0.2500000E+00 -0.1486950E-31  0.0000000E+00  0.3472222E-02
      1        -11.751001   1.000000
      2        -11.750997   1.000000
      3        -11.742658   1.000000
      4        -11.742655   1.000000
      5        -11.733849   1.000000
      6        -11.733843   1.000000
      7        -11.722899   1.000000
      8        -11.722899   1.000000
      9        -11.722894   1.000000
     10        -11.722894   1.000000
     11        -11.694698   1.000000
     12        -11.694694   1.000000
     13        -11.689201   1.000000
     14        -11.689201   1.000000
     15        -11.689197   1.000000
     16        -11.689197   1.000000
     17         -9.245114   1.000000
     18         -9.245106   1.000000
     19         -9.236082   1.000000
     20         -9.236070   1.000000
     21         -9.226022   1.000000
     22         -9.226022   1.000000
     23         -9.226012   1.000000
     24         -9.226012   1.000000
     25         -9.179050   1.000000
     26         -9.179040   1.000000
     27         -9.177288   1.000000
     28         -9.177280   1.000000
     29         -9.167883   1.000000
     30         -9.167883   1.000000
     31         -9.167875   1.000000
     32         -9.167875   1.000000
     33         -9.163800   1.000000
     34         -9.163794   1.000000
     35         -9.014158   1.000000
     36         -9.014153   1.000000
     37         -9.010986   1.000000
     38         -9.010986   1.000000
     39         -9.010980   1.000000
     40         -9.010980   1.000000
     41         -4.307706   1.000000
     42         -4.307527   1.000000
     43         -1.455660   1.000000
     44         -1.455500   1.000000
     45         -0.042255   1.000000
     46         -0.042255   1.000000
     47         -0.042120   1.000000
     48         -0.042120   1.000000
     49          3.906902   1.000000
     50          3.906902   1.000000
     51          3.907101   1.000000
     52          3.907101   1.000000
     53          5.309028   1.000000
     54          5.309204   1.000000
     55          7.048587   0.000000
     56          7.048587   0.000000
     57          7.048701   0.000000
     58          7.048701   0.000000
     59          7.925013   0.000000
     60          7.925013   0.000000
     61          7.925149   0.000000
     62          7.925149   0.000000
     63          8.586485   0.000000
     64          8.586570   0.000000
     65          9.711006   0.000000
     66          9.711106   0.000000
     67         10.429154   0.000000
     68         10.429209   0.000000
     69         12.443577   0.000000
     70         12.443864   0.000000
     71         12.560988   0.000000
     72         12.561079   0.000000
     73         13.094822   0.000000
     74         13.094915   0.000000
     75         13.425597   0.000000
     76         13.425872   0.000000
     77         13.975365   0.000000
     78         13.975365   0.000000
     79         13.975611   0.000000
     80         13.975611   0.000000
     81         15.076642   0.000000
     82         15.076642   0.000000
     83         15.076886   0.000000
     84         15.076886   0.000000
     85         15.348661   0.000000
     86         15.348962   0.000000
     87         17.542878   0.000000
     88         17.543143   0.000000
     89         19.793156   0.000000
     90         19.793298   0.000000
     91         20.484725   0.000000
     92         20.484921   0.000000
     93         20.522361   0.000000
     94         20.522430   0.000000
     95         20.816396   0.000000
     96         20.816479   0.000000
 
  0.3333333E+00 -0.8850673E-32  0.0000000E+00  0.3472222E-02
      1        -11.748198   1.000000
      2        -11.748194   1.000000
      3        -11.735818   1.000000
      4        -11.735813   1.000000
      5        -11.734567   1.000000
      6        -11.734564   1.000000
      7        -11.717851   1.000000
      8        -11.717851   1.000000
      9        -11.717846   1.000000
     10        -11.717846   1.000000
     11        -11.700376   1.000000
     12        -11.700373   1.000000
     13        -11.691001   1.000000
     14        -11.691001   1.000000
     15        -11.690997   1.000000
     16        -11.690997   1.000000
     17         -9.239762   1.000000
     18         -9.239753   1.000000
     19         -9.234918   1.000000
     20         -9.234906   1.000000
     21         -9.222804   1.000000
     22         -9.222804   1.000000
     23         -9.222795   1.000000
     24         -9.222795   1.000000
     25         -9.178777   1.000000
     26         -9.178768   1.000000
     27         -9.177825   1.000000
     28         -9.177817   1.000000
     29         -9.154770   1.000000
     30         -9.154770   1.000000
     31         -9.154763   1.000000
     32         -9.154763   1.000000
     33         -9.148199   1.000000
     34         -9.148194   1.000000
     35         -9.039218   1.000000
     36         -9.039212   1.000000
     37         -9.033284   1.000000
     38         -9.033284   1.000000
     39         -9.033278   1.000000
     40         -9.033278   1.000000
     41         -4.015752   1.000000
     42         -4.015574   1.000000
     43         -2.082089   1.000000
     44         -2.081923   1.000000
     45         -0.018810   1.000000
     46         -0.018810   1.000000
     47         -0.018676   1.000000
     48         -0.018676   1.000000
     49          4.218399   1.000000
     50          4.218399   1.000000
     51          4.218587   1.000000
     52          4.218587   1.000000
     53          6.262644   1.000000
     54          6.262805   1.000000
     55          6.533987   0.990771
     56          6.533987   0.990771
     57          6.534126   0.990673
     58          6.534126   0.990673
     59          7.474183   0.000000
     60          7.474183   0.000000
     61          7.474351   0.000000
     62          7.474351   0.000000
     63          8.986146   0.000000
     64          8.986225   0.000000
     65          9.741894   0.000000
     66          9.741965   0.000000
     67         10.078357   0.000000
     68         10.078457   0.000000
     69         11.701026   0.000000
     70         11.701102   0.000000
     71         12.387275   0.000000
     72         12.387371   0.000000
     73         12.879360   0.000000
     74         12.879647   0.000000
     75         13.612085   0.000000
     76         13.612363   0.000000
     77         14.902938   0.000000
     78         14.903230   0.000000
     79         15.108495   0.000000
     80         15.108495   0.000000
     81         15.108730   0.000000
     82         15.108730   0.000000
     83         16.165596   0.000000
     84         16.165596   0.000000
     85         16.165829   0.000000
     86         16.165829   0.000000
     87         16.308252   0.000000
     88         16.308522   0.000000
     89         20.734224   0.000000
     90         20.734305   0.000000
     91         21.003144   0.000000
     92         21.003173   0.000000
     93         21.003284   0.000000
     94         21.003285   0.000000
     95         21.446170   0.000000
     96         21.458831   0.000000
 
  0.4166667E+00 -0.8658478E-32  0.0000000E+00  0.3472222E-02
      1        -11.745017   1.000000
      2        -11.745013   1.000000
      3        -11.738449   1.000000
      4        -11.738444   1.000000
      5        -11.725431   1.000000
      6        -11.725428   1.000000
      7        -11.713421   1.000000
      8        -11.713421   1.000000
      9        -11.713417   1.000000
     10        -11.713417   1.000000
     11        -11.707824   1.000000
     12        -11.707820   1.000000
     13        -11.692922   1.000000
     14        -11.692922   1.000000
     15        -11.692919   1.000000
     16        -11.692919   1.000000
     17         -9.236552   1.000000
     18         -9.236542   1.000000
     19         -9.234332   1.000000
     20         -9.234321   1.000000
     21         -9.221573   1.000000
     22         -9.221573   1.000000
     23         -9.221566   1.000000
     24         -9.221566   1.000000
     25         -9.179058   1.000000
     26         -9.179049   1.000000
     27         -9.178071   1.000000
     28         -9.178062   1.000000
     29         -9.138076   1.000000
     30         -9.138076   1.000000
     31         -9.138070   1.000000
     32         -9.138070   1.000000
     33         -9.125499   1.000000
     34         -9.125494   1.000000
     35         -9.068262   1.000000
     36         -9.068256   1.000000
     37         -9.054915   1.000000
     38         -9.054915   1.000000
     39         -9.054908   1.000000
     40         -9.054908   1.000000
     41         -3.642484   1.000000
     42         -3.642308   1.000000
     43         -2.667365   1.000000
     44         -2.667195   1.000000
     45         -0.001244   1.000000
     46         -0.001244   1.000000
     47         -0.001110   1.000000
     48         -0.001110   1.000000
     49          4.557543   1.000000
     50          4.557543   1.000000
     51          4.557701   1.000000
     52          4.557701   1.000000
     53          6.057528   1.000000
     54          6.057528   1.000000
     55          6.057677   1.000000
     56          6.057677   1.000000
     57          7.192999   0.000000
     58          7.192999   0.000000
     59          7.193191   0.000000
     60          7.193191   0.000000
     61          7.220540   0.000000
     62          7.220682   0.000000
     63          8.975711   0.000000
     64          8.975804   0.000000
     65          9.504897   0.000000
     66          9.504967   0.000000
     67         10.539906   0.000000
     68         10.540005   0.000000
     69         10.883418   0.000000
     70         10.883481   0.000000
     71         11.708649   0.000000
     72         11.708746   0.000000
     73         13.471817   0.000000
     74         13.472102   0.000000
     75         13.853156   0.000000
     76         13.853436   0.000000
     77         14.500350   0.000000
     78         14.500637   0.000000
     79         15.188119   0.000000
     80         15.188396   0.000000
     81         16.269651   0.000000
     82         16.269651   0.000000
     83         16.269880   0.000000
     84         16.269880   0.000000
     85         17.350299   0.000000
     86         17.350299   0.000000
     87         17.350523   0.000000
     88         17.350523   0.000000
     89         19.681397   0.000000
     90         19.681397   0.000000
     91         19.681528   0.000000
     92         19.681528   0.000000
     93         20.055295   0.000000
     94         20.055295   0.000000
     95         20.055421   0.000000
     96         20.055421   0.000000
 
  0.5000000E+00 -0.2973900E-31  0.0000000E+00  0.1736111E-02
      1        -11.741983   1.000000
      2        -11.741983   1.000000
      3        -11.741978   1.000000
      4        -11.741978   1.000000
      5        -11.716583   1.000000
      6        -11.716583   1.000000
      7        -11.716580   1.000000
      8        -11.716580   1.000000
      9        -11.711596   1.000000
     10        -11.711596   1.000000
     11        -11.711593   1.000000
     12        -11.711593   1.000000
     13        -11.693940   1.000000
     14        -11.693940   1.000000
     15        -11.693938   1.000000
     16        -11.693938   1.000000
     17         -9.236045   1.000000
     18         -9.236045   1.000000
     19         -9.236034   1.000000
     20         -9.236034   1.000000
     21         -9.221494   1.000000
     22         -9.221494   1.000000
     23         -9.221487   1.000000
     24         -9.221487   1.000000
     25         -9.179558   1.000000
     26         -9.179558   1.000000
     27         -9.179549   1.000000
     28         -9.179549   1.000000
     29         -9.128983   1.000000
     30         -9.128983   1.000000
     31         -9.128975   1.000000
     32         -9.128975   1.000000
     33         -9.098849   1.000000
     34         -9.098849   1.000000
     35         -9.098844   1.000000
     36         -9.098844   1.000000
     37         -9.066016   1.000000
     38         -9.066016   1.000000
     39         -9.066008   1.000000
     40         -9.066008   1.000000
     41         -3.191077   1.000000
     42         -3.191077   1.000000
     43         -3.190904   1.000000
     44         -3.190904   1.000000
     45          0.005261   1.000000
     46          0.005261   1.000000
     47          0.005394   1.000000
     48          0.005394   1.000000
     49          4.748975   1.000000
     50          4.748975   1.000000
     51          4.749074   1.000000
     52          4.749074   1.000000
     53          5.816864   1.000000
     54          5.816864   1.000000
     55          5.816986   1.000000
     56          5.816986   1.000000
     57          7.098882   0.000000
     58          7.098882   0.000000
     59          7.099082   0.000000
     60          7.099082   0.000000
     61          8.133728   0.000000
     62          8.133728   0.000000
     63          8.133846   0.000000
     64          8.133846   0.000000
     65         10.141835   0.000000
     66         10.141835   0.000000
     67         10.141896   0.000000
     68         10.141896   0.000000
     69         11.087132   0.000000
     70         11.087132   0.000000
     71         11.087230   0.000000
     72         11.087230   0.000000
     73         14.149273   0.000000
     74         14.149273   0.000000
     75         14.149556   0.000000
     76         14.149556   0.000000
     77         14.238447   0.000000
     78         14.238447   0.000000
     79         14.238729   0.000000
     80         14.238729   0.000000
     81         16.980284   0.000000
     82         16.980284   0.000000
     83         16.980519   0.000000
     84         16.980519   0.000000
     85         18.545630   0.000000
     86         18.545630   0.000000
     87         18.545754   0.000000
     88         18.545754   0.000000
     89         18.585998   0.000000
     90         18.585998   0.000000
     91         18.586120   0.000000
     92         18.586120   0.000000
     93         19.120508   0.000000
     94         19.120508   0.000000
     95         19.120697   0.000000
     96         19.120697   0.000000
 
  0.8333333E-01  0.8333333E-01  0.0000000E+00  0.3472222E-02
      1        -11.754491   1.000000
      2        -11.754486   1.000000
      3        -11.751966   1.000000
      4        -11.751965   1.000000
      5        -11.730528   1.000000
      6        -11.730528   1.000000
      7        -11.730522   1.000000
      8        -11.730522   1.000000
      9        -11.729201   1.000000
     10        -11.729195   1.000000
     11        -11.688284   1.000000
     12        -11.688284   1.000000
     13        -11.688279   1.000000
     14        -11.688279   1.000000
     15        -11.687491   1.000000
     16        -11.687487   1.000000
     17         -9.255891   1.000000
     18         -9.255883   1.000000
     19         -9.235703   1.000000
     20         -9.235703   1.000000
     21         -9.235691   1.000000
     22         -9.235691   1.000000
     23         -9.233627   1.000000
     24         -9.233614   1.000000
     25         -9.180608   1.000000
     26         -9.180602   1.000000
     27         -9.177977   1.000000
     28         -9.177977   1.000000
     29         -9.177968   1.000000
     30         -9.177968   1.000000
     31         -9.176815   1.000000
     32         -9.176806   1.000000
     33         -9.173330   1.000000
     34         -9.173323   1.000000
     35         -8.985081   1.000000
     36         -8.985081   1.000000
     37         -8.985075   1.000000
     38         -8.985075   1.000000
     39         -8.984754   1.000000
     40         -8.984748   1.000000
     41         -4.600485   1.000000
     42         -4.600305   1.000000
     43         -0.297830   1.000000
     44         -0.297830   1.000000
     45         -0.297688   1.000000
     46         -0.297688   1.000000
     47         -0.077271   1.000000
     48         -0.077135   1.000000
     49          3.571545   1.000000
     50          3.571751   1.000000
     51          3.788255   1.000000
     52          3.788255   1.000000
     53          3.788455   1.000000
     54          3.788455   1.000000
     55          7.669980   0.000000
     56          7.670115   0.000000
     57          7.979400   0.000000
     58          7.979400   0.000000
     59          7.979490   0.000000
     60          7.979490   0.000000
     61          8.991349   0.000000
     62          8.991479   0.000000
     63          9.051520   0.000000
     64          9.051520   0.000000
     65          9.051622   0.000000
     66          9.051622   0.000000
     67         11.247008   0.000000
     68         11.247039   0.000000
     69         12.277761   0.000000
     70         12.277761   0.000000
     71         12.278038   0.000000
     72         12.278038   0.000000
     73         12.305257   0.000000
     74         12.305534   0.000000
     75         13.478765   0.000000
     76         13.478765   0.000000
     77         13.479033   0.000000
     78         13.479033   0.000000
     79         13.722700   0.000000
     80         13.722736   0.000000
     81         13.804429   0.000000
     82         13.804691   0.000000
     83         14.370396   0.000000
     84         14.370519   0.000000
     85         16.196041   0.000000
     86         16.196365   0.000000
     87         17.836173   0.000000
     88         17.836453   0.000000
     89         18.799717   0.000000
     90         18.799895   0.000000
     91         19.307810   0.000000
     92         19.307914   0.000000
     93         19.721967   0.000000
     94         19.722081   0.000000
     95         20.327142   0.000000
     96         20.327294   0.000000
 
 -0.8333333E-01  0.8333333E-01  0.0000000E+00  0.3472222E-02
      1        -11.754489   1.000000
      2        -11.754487   1.000000
      3        -11.751968   1.000000
      4        -11.751963   1.000000
      5        -11.730528   1.000000
      6        -11.730528   1.000000
      7        -11.730522   1.000000
      8        -11.730522   1.000000
      9        -11.729201   1.000000
     10        -11.729195   1.000000
     11        -11.688284   1.000000
     12        -11.688284   1.000000
     13        -11.688279   1.000000
     14        -11.688279   1.000000
     15        -11.687491   1.000000
     16        -11.687487   1.000000
     17         -9.255890   1.000000
     18         -9.255883   1.000000
     19         -9.235703   1.000000
     20         -9.235703   1.000000
     21         -9.235691   1.000000
     22         -9.235691   1.000000