 DBCSR| CPU Multiplication driver                                           BLAS (U)
 DBCSR| Multrec recursion limit                                              512 (U)
 DBCSR| Multiplication stack size                                           1000 (D)
 DBCSR| Maximum elements for images                                    UNLIMITED (U)
 DBCSR| Multiplicative factor virtual images                                   1 (U)
 DBCSR| Use multiplication densification                                       T (D)
 DBCSR| Multiplication size stacks                                             3 (U)
 DBCSR| Use memory pool for CPU allocation                                     F (U)
 DBCSR| Number of 3D layers                                               SINGLE (U)
 DBCSR| Use MPI memory allocation                                              F (U)
 DBCSR| Use RMA algorithm                                                      F (U)
 DBCSR| Use Communication thread                                               T (U)
 DBCSR| Communication thread load                                             45 (D)
 DBCSR| MPI: My process id                                                     0
 DBCSR| MPI: Number of processes                                               8
 DBCSR| OMP: Current number of threads                                        12
 DBCSR| OMP: Max number of threads                                            12
 DBCSR| Split modifier for TAS multiplication algorithm                  1.0E+00 (U)


  **** **** ******  **  PROGRAM STARTED AT               2025-08-07 19:25:35.026
 ***** ** ***  *** **   PROGRAM STARTED ON                          i06r07c05s02
 **    ****   ******    PROGRAM STARTED BY                               di38fab
 ***** **    ** ** **   PROGRAM PROCESS ID                               2702963
  **** **  *******  **  PROGRAM STARTED IN /hppfs/scratch/04/di38fab/09_GTH/Delt
                                           a_Set/Hf/aug-SZV-MOLOPT-GTH-tier-2/8x
                                           8x8

 CP2K| version string:                 CP2K version 2025.1 (Development Version)
 CP2K| source code revision number:                                  git:3130539
 CP2K| cp2kflags: omp libint fftw3 libxc parallel scalapack max_contr=4         
 CP2K| is freely available from                            https://www.cp2k.org/
 CP2K| Program compiled at                         Tue Jun  3 16:14:32 CEST 2025
 CP2K| Program compiled on                                               login01
 CP2K| Program compiled for                                        Supermuc-foss
 CP2K| Data directory path                  /hppfs/work/pn36zo/di38fab/cp2k/data
 CP2K| Input file name                                                    GW.inp

 GLOBAL| Force Environment number                                              1
 GLOBAL| Basis set file name            /hppfs/scratch/04/di38fab/09_GTH/BASIS_A
 GLOBAL| Potential file name            /hppfs/work/pn36zo/di38fab/cp2k/data/GTH
 GLOBAL| MM Potential file name                                     MM_POTENTIAL
 GLOBAL| Coordinate file name                                             Hf.cif
 GLOBAL| Method name                                                        CP2K
 GLOBAL| Project name                                                       WSe2
 GLOBAL| Run type                                                         ENERGY
 GLOBAL| FFT library                                                       FFTW3
 GLOBAL| Diagonalization library                                       ScaLAPACK
 GLOBAL| Cholesky decomposition library                                ScaLAPACK
 GLOBAL| DGEMM library                                                      BLAS
 GLOBAL| Orthonormality check for eigenvectors                          DISABLED
 GLOBAL| Matrix multiplication library                                 ScaLAPACK
 GLOBAL| All-to-all communication in single precision                          F
 GLOBAL| FFTs using library dependent lengths                                  F
 GLOBAL| Grid backend                                                       AUTO
 GLOBAL| Global print level                                               MEDIUM
 GLOBAL| MPI I/O enabled                                                       T
 GLOBAL| Total number of message passing processes                             8
 GLOBAL| Number of threads for this process                                   12
 GLOBAL| This output is from process                                           0
 GLOBAL| OpenMP stack size per thread (OMP_STACKSIZE)                    default
 GLOBAL| CPU model name             Intel(R) Xeon(R) Platinum 8174 CPU @ 3.10GHz

 MEMORY| system memory details [Kb]
 MEMORY|                        rank 0           min           max       average
 MEMORY| MemTotal             98436712      98436664      98436712      98436688
 MEMORY| MemFree              85949024      84271584      85949024      85110304
 MEMORY| Buffers                     0             0             0             0
 MEMORY| Cached                2362240       2362240       2365088       2363664
 MEMORY| Slab                  1043296       1042912       1268312       1155660
 MEMORY| SReclaimable           246816        246816        287416        267116
 MEMORY| MemLikelyFree        88558080      86924088      88558080      87741084


 *** Fundamental physical constants (SI units) ***

 *** Literature: B. J. Mohr and B. N. Taylor,
 ***             CODATA recommended values of the fundamental physical
 ***             constants: 2006, Web Version 5.1
 ***             http://physics.nist.gov/constants

 Speed of light in vacuum [m/s]                             2.99792458000000E+08
 Magnetic constant or permeability of vacuum [N/A**2]       1.25663706143592E-06
 Electric constant or permittivity of vacuum [F/m]          8.85418781762039E-12
 Planck constant (h) [J*s]                                  6.62606896000000E-34
 Planck constant (h-bar) [J*s]                              1.05457162825177E-34
 Elementary charge [C]                                      1.60217648700000E-19
 Electron mass [kg]                                         9.10938215000000E-31
 Electron g factor [ ]                                     -2.00231930436220E+00
 Proton mass [kg]                                           1.67262163700000E-27
 Fine-structure constant                                    7.29735253760000E-03
 Rydberg constant [1/m]                                     1.09737315685270E+07
 Avogadro constant [1/mol]                                  6.02214179000000E+23
 Boltzmann constant [J/K]                                   1.38065040000000E-23
 Atomic mass unit [kg]                                      1.66053878200000E-27
 Bohr radius [m]                                            5.29177208590000E-11

 *** Conversion factors ***

 [u] -> [a.u.]                                              1.82288848426455E+03
 [Angstrom] -> [Bohr] = [a.u.]                              1.88972613288564E+00
 [a.u.] = [Bohr] -> [Angstrom]                              5.29177208590000E-01
 [a.u.] -> [s]                                              2.41888432650478E-17
 [a.u.] -> [fs]                                             2.41888432650478E-02
 [a.u.] -> [J]                                              4.35974393937059E-18
 [a.u.] -> [N]                                              8.23872205491840E-08
 [a.u.] -> [K]                                              3.15774647902944E+05
 [a.u.] -> [kJ/mol]                                         2.62549961709828E+03
 [a.u.] -> [kcal/mol]                                       6.27509468713739E+02
 [a.u.] -> [Pa]                                             2.94210107994716E+13
 [a.u.] -> [bar]                                            2.94210107994716E+08
 [a.u.] -> [atm]                                            2.90362800883016E+08
 [a.u.] -> [eV]                                             2.72113838565563E+01
 [a.u.] -> [Hz]                                             6.57968392072181E+15
 [a.u.] -> [1/cm] (wave numbers)                            2.19474631370540E+05
 [a.u./Bohr**2] -> [1/cm]                                   5.14048714338585E+03
 

 CELL_TOP| Volume [angstrom^3]:                                        44.992978
 CELL_TOP| Vector a [angstrom     3.203     0.000     0.000   |a| =     3.202730
 CELL_TOP| Vector b [angstrom     1.601     2.774     0.000   |b| =     3.202730
 CELL_TOP| Vector c [angstrom     0.000     0.000     5.065   |c| =     5.064930
 CELL_TOP| Angle (b,c), alpha [degree]:                                90.000000
 CELL_TOP| Angle (a,c), beta  [degree]:                                90.000000
 CELL_TOP| Angle (a,b), gamma [degree]:                                60.000000
 CELL_TOP| Numerically orthorhombic:                                          NO
 CELL_TOP| Periodicity                                                       XYZ

 CELL_CIF| Volume [angstrom^3]:                                        44.992978
 CELL_CIF| Vector a [angstrom     3.203     0.000     0.000   |a| =     3.202730
 CELL_CIF| Vector b [angstrom     1.601     2.774     0.000   |b| =     3.202730
 CELL_CIF| Vector c [angstrom     0.000     0.000     5.065   |c| =     5.064930
 CELL_CIF| Angle (b,c), alpha [degree]:                                90.000000
 CELL_CIF| Angle (a,c), beta  [degree]:                                90.000000
 CELL_CIF| Angle (a,b), gamma [degree]:                                60.000000
 CELL_CIF| Numerically orthorhombic:                                          NO
 CELL_CIF| Periodicity                                                       XYZ

 GENERATE|  Preliminary Number of Bonds generated:                             0
 GENERATE|  Achieved consistency in connectivity generation.

 CELL| Volume [angstrom^3]:                                            44.992978
 CELL| Vector a [angstrom]:       3.203     0.000     0.000   |a| =     3.202730
 CELL| Vector b [angstrom]:       1.601     2.774     0.000   |b| =     3.202730
 CELL| Vector c [angstrom]:       0.000     0.000     5.065   |c| =     5.064930
 CELL| Angle (b,c), alpha [degree]:                                    90.000000
 CELL| Angle (a,c), beta  [degree]:                                    90.000000
 CELL| Angle (a,b), gamma [degree]:                                    60.000000
 CELL| Numerically orthorhombic:                                              NO
 CELL| Periodicity                                                           XYZ

 CELL_REF| Volume [angstrom^3]:                                        44.992978
 CELL_REF| Vector a [angstrom     3.203     0.000     0.000   |a| =     3.202730
 CELL_REF| Vector b [angstrom     1.601     2.774     0.000   |b| =     3.202730
 CELL_REF| Vector c [angstrom     0.000     0.000     5.065   |c| =     5.064930
 CELL_REF| Angle (b,c), alpha [degree]:                                90.000000
 CELL_REF| Angle (a,c), beta  [degree]:                                90.000000
 CELL_REF| Angle (a,b), gamma [degree]:                                60.000000
 CELL_REF| Numerically orthorhombic:                                          NO
 CELL_REF| Periodicity                                                       XYZ

 *** WARNING in cryssym.F:180 :: Symmetry library SPGLIB not available ***


 *******************************************************************************
                                    Kpoints
 *******************************************************************************
 BRILLOUIN| K-point scheme                                        Monkhorst-Pack
 BRILLOUIN| K-Point grid                                             8    8    8
 BRILLOUIN| Accuracy in Symmetry determination                      0.100000E-05
 BRILLOUIN| K-Point point group symmetrization                               OFF
 BRILLOUIN| Wavefunction type                                            COMPLEX
 BRILLOUIN| List of Kpoints [2 Pi/Bohr]                                      256
 BRILLOUIN| Number           Weight            X              Y              Z
 BRILLOUIN|     1           0.00391       -0.43750       -0.43750       -0.43750
 BRILLOUIN|     2           0.00391       -0.43750       -0.43750       -0.31250
 BRILLOUIN|     3           0.00391       -0.43750       -0.43750       -0.18750
 BRILLOUIN|     4           0.00391       -0.43750       -0.43750       -0.06250
 BRILLOUIN|     5           0.00391       -0.43750       -0.43750        0.06250
 BRILLOUIN|     6           0.00391       -0.43750       -0.43750        0.18750
 BRILLOUIN|     7           0.00391       -0.43750       -0.43750        0.31250
 BRILLOUIN|     8           0.00391       -0.43750       -0.43750        0.43750
 BRILLOUIN|     9           0.00391       -0.43750       -0.31250       -0.43750
 BRILLOUIN|    10           0.00391       -0.43750       -0.31250       -0.31250
 BRILLOUIN|    11           0.00391       -0.43750       -0.31250       -0.18750
 BRILLOUIN|    12           0.00391       -0.43750       -0.31250       -0.06250
 BRILLOUIN|    13           0.00391       -0.43750       -0.31250        0.06250
 BRILLOUIN|    14           0.00391       -0.43750       -0.31250        0.18750
 BRILLOUIN|    15           0.00391       -0.43750       -0.31250        0.31250
 BRILLOUIN|    16           0.00391       -0.43750       -0.31250        0.43750
 BRILLOUIN|    17           0.00391       -0.43750       -0.18750       -0.43750
 BRILLOUIN|    18           0.00391       -0.43750       -0.18750       -0.31250
 BRILLOUIN|    19           0.00391       -0.43750       -0.18750       -0.18750
 BRILLOUIN|    20           0.00391       -0.43750       -0.18750       -0.06250
 BRILLOUIN|    21           0.00391       -0.43750       -0.18750        0.06250
 BRILLOUIN|    22           0.00391       -0.43750       -0.18750        0.18750
 BRILLOUIN|    23           0.00391       -0.43750       -0.18750        0.31250
 BRILLOUIN|    24           0.00391       -0.43750       -0.18750        0.43750
 BRILLOUIN|    25           0.00391       -0.43750       -0.06250       -0.43750
 BRILLOUIN|    26           0.00391       -0.43750       -0.06250       -0.31250
 BRILLOUIN|    27           0.00391       -0.43750       -0.06250       -0.18750
 BRILLOUIN|    28           0.00391       -0.43750       -0.06250       -0.06250
 BRILLOUIN|    29           0.00391       -0.43750       -0.06250        0.06250
 BRILLOUIN|    30           0.00391       -0.43750       -0.06250        0.18750
 BRILLOUIN|    31           0.00391       -0.43750       -0.06250        0.31250
 BRILLOUIN|    32           0.00391       -0.43750       -0.06250        0.43750
 BRILLOUIN|    33           0.00391       -0.43750        0.06250       -0.43750
 BRILLOUIN|    34           0.00391       -0.43750        0.06250       -0.31250
 BRILLOUIN|    35           0.00391       -0.43750        0.06250       -0.18750
 BRILLOUIN|    36           0.00391       -0.43750        0.06250       -0.06250
 BRILLOUIN|    37           0.00391       -0.43750        0.06250        0.06250
 BRILLOUIN|    38           0.00391       -0.43750        0.06250        0.18750
 BRILLOUIN|    39           0.00391       -0.43750        0.06250        0.31250
 BRILLOUIN|    40           0.00391       -0.43750        0.06250        0.43750
 BRILLOUIN|    41           0.00391       -0.43750        0.18750       -0.43750
 BRILLOUIN|    42           0.00391       -0.43750        0.18750       -0.31250
 BRILLOUIN|    43           0.00391       -0.43750        0.18750       -0.18750
 BRILLOUIN|    44           0.00391       -0.43750        0.18750       -0.06250
 BRILLOUIN|    45           0.00391       -0.43750        0.18750        0.06250
 BRILLOUIN|    46           0.00391       -0.43750        0.18750        0.18750
 BRILLOUIN|    47           0.00391       -0.43750        0.18750        0.31250
 BRILLOUIN|    48           0.00391       -0.43750        0.18750        0.43750
 BRILLOUIN|    49           0.00391       -0.43750        0.31250       -0.43750
 BRILLOUIN|    50           0.00391       -0.43750        0.31250       -0.31250
 BRILLOUIN|    51           0.00391       -0.43750        0.31250       -0.18750
 BRILLOUIN|    52           0.00391       -0.43750        0.31250       -0.06250
 BRILLOUIN|    53           0.00391       -0.43750        0.31250        0.06250
 BRILLOUIN|    54           0.00391       -0.43750        0.31250        0.18750
 BRILLOUIN|    55           0.00391       -0.43750        0.31250        0.31250
 BRILLOUIN|    56           0.00391       -0.43750        0.31250        0.43750
 BRILLOUIN|    57           0.00391       -0.43750        0.43750       -0.43750
 BRILLOUIN|    58           0.00391       -0.43750        0.43750       -0.31250
 BRILLOUIN|    59           0.00391       -0.43750        0.43750       -0.18750
 BRILLOUIN|    60           0.00391       -0.43750        0.43750       -0.06250
 BRILLOUIN|    61           0.00391       -0.43750        0.43750        0.06250
 BRILLOUIN|    62           0.00391       -0.43750        0.43750        0.18750
 BRILLOUIN|    63           0.00391       -0.43750        0.43750        0.31250
 BRILLOUIN|    64           0.00391       -0.43750        0.43750        0.43750
 BRILLOUIN|    65           0.00391       -0.31250       -0.43750       -0.43750
 BRILLOUIN|    66           0.00391       -0.31250       -0.43750       -0.31250
 BRILLOUIN|    67           0.00391       -0.31250       -0.43750       -0.18750
 BRILLOUIN|    68           0.00391       -0.31250       -0.43750       -0.06250
 BRILLOUIN|    69           0.00391       -0.31250       -0.43750        0.06250
 BRILLOUIN|    70           0.00391       -0.31250       -0.43750        0.18750
 BRILLOUIN|    71           0.00391       -0.31250       -0.43750        0.31250
 BRILLOUIN|    72           0.00391       -0.31250       -0.43750        0.43750
 BRILLOUIN|    73           0.00391       -0.31250       -0.31250       -0.43750
 BRILLOUIN|    74           0.00391       -0.31250       -0.31250       -0.31250
 BRILLOUIN|    75           0.00391       -0.31250       -0.31250       -0.18750
 BRILLOUIN|    76           0.00391       -0.31250       -0.31250       -0.06250
 BRILLOUIN|    77           0.00391       -0.31250       -0.31250        0.06250
 BRILLOUIN|    78           0.00391       -0.31250       -0.31250        0.18750
 BRILLOUIN|    79           0.00391       -0.31250       -0.31250        0.31250
 BRILLOUIN|    80           0.00391       -0.31250       -0.31250        0.43750
 BRILLOUIN|    81           0.00391       -0.31250       -0.18750       -0.43750
 BRILLOUIN|    82           0.00391       -0.31250       -0.18750       -0.31250
 BRILLOUIN|    83           0.00391       -0.31250       -0.18750       -0.18750
 BRILLOUIN|    84           0.00391       -0.31250       -0.18750       -0.06250
 BRILLOUIN|    85           0.00391       -0.31250       -0.18750        0.06250
 BRILLOUIN|    86           0.00391       -0.31250       -0.18750        0.18750
 BRILLOUIN|    87           0.00391       -0.31250       -0.18750        0.31250
 BRILLOUIN|    88           0.00391       -0.31250       -0.18750        0.43750
 BRILLOUIN|    89           0.00391       -0.31250       -0.06250       -0.43750
 BRILLOUIN|    90           0.00391       -0.31250       -0.06250       -0.31250
 BRILLOUIN|    91           0.00391       -0.31250       -0.06250       -0.18750
 BRILLOUIN|    92           0.00391       -0.31250       -0.06250       -0.06250
 BRILLOUIN|    93           0.00391       -0.31250       -0.06250        0.06250
 BRILLOUIN|    94           0.00391       -0.31250       -0.06250        0.18750
 BRILLOUIN|    95           0.00391       -0.31250       -0.06250        0.31250
 BRILLOUIN|    96           0.00391       -0.31250       -0.06250        0.43750
 BRILLOUIN|    97           0.00391       -0.31250        0.06250       -0.43750
 BRILLOUIN|    98           0.00391       -0.31250        0.06250       -0.31250
 BRILLOUIN|    99           0.00391       -0.31250        0.06250       -0.18750
 BRILLOUIN|   100           0.00391       -0.31250        0.06250       -0.06250
 BRILLOUIN|   101           0.00391       -0.31250        0.06250        0.06250
 BRILLOUIN|   102           0.00391       -0.31250        0.06250        0.18750
 BRILLOUIN|   103           0.00391       -0.31250        0.06250        0.31250
 BRILLOUIN|   104           0.00391       -0.31250        0.06250        0.43750
 BRILLOUIN|   105           0.00391       -0.31250        0.18750       -0.43750
 BRILLOUIN|   106           0.00391       -0.31250        0.18750       -0.31250
 BRILLOUIN|   107           0.00391       -0.31250        0.18750       -0.18750
 BRILLOUIN|   108           0.00391       -0.31250        0.18750       -0.06250
 BRILLOUIN|   109           0.00391       -0.31250        0.18750        0.06250
 BRILLOUIN|   110           0.00391       -0.31250        0.18750        0.18750
 BRILLOUIN|   111           0.00391       -0.31250        0.18750        0.31250
 BRILLOUIN|   112           0.00391       -0.31250        0.18750        0.43750
 BRILLOUIN|   113           0.00391       -0.31250        0.31250       -0.43750
 BRILLOUIN|   114           0.00391       -0.31250        0.31250       -0.31250
 BRILLOUIN|   115           0.00391       -0.31250        0.31250       -0.18750
 BRILLOUIN|   116           0.00391       -0.31250        0.31250       -0.06250
 BRILLOUIN|   117           0.00391       -0.31250        0.31250        0.06250
 BRILLOUIN|   118           0.00391       -0.31250        0.31250        0.18750
 BRILLOUIN|   119           0.00391       -0.31250        0.31250        0.31250
 BRILLOUIN|   120           0.00391       -0.31250        0.31250        0.43750
 BRILLOUIN|   121           0.00391       -0.31250        0.43750       -0.43750
 BRILLOUIN|   122           0.00391       -0.31250        0.43750       -0.31250
 BRILLOUIN|   123           0.00391       -0.31250        0.43750       -0.18750
 BRILLOUIN|   124           0.00391       -0.31250        0.43750       -0.06250
 BRILLOUIN|   125           0.00391       -0.31250        0.43750        0.06250
 BRILLOUIN|   126           0.00391       -0.31250        0.43750        0.18750
 BRILLOUIN|   127           0.00391       -0.31250        0.43750        0.31250
 BRILLOUIN|   128           0.00391       -0.31250        0.43750        0.43750
 BRILLOUIN|   129           0.00391       -0.18750       -0.43750       -0.43750
 BRILLOUIN|   130           0.00391       -0.18750       -0.43750       -0.31250
 BRILLOUIN|   131           0.00391       -0.18750       -0.43750       -0.18750
 BRILLOUIN|   132           0.00391       -0.18750       -0.43750       -0.06250
 BRILLOUIN|   133           0.00391       -0.18750       -0.43750        0.06250
 BRILLOUIN|   134           0.00391       -0.18750       -0.43750        0.18750
 BRILLOUIN|   135           0.00391       -0.18750       -0.43750        0.31250
 BRILLOUIN|   136           0.00391       -0.18750       -0.43750        0.43750
 BRILLOUIN|   137           0.00391       -0.18750       -0.31250       -0.43750
 BRILLOUIN|   138           0.00391       -0.18750       -0.31250       -0.31250
 BRILLOUIN|   139           0.00391       -0.18750       -0.31250       -0.18750
 BRILLOUIN|   140           0.00391       -0.18750       -0.31250       -0.06250
 BRILLOUIN|   141           0.00391       -0.18750       -0.31250        0.06250
 BRILLOUIN|   142           0.00391       -0.18750       -0.31250        0.18750
 BRILLOUIN|   143           0.00391       -0.18750       -0.31250        0.31250
 BRILLOUIN|   144           0.00391       -0.18750       -0.31250        0.43750
 BRILLOUIN|   145           0.00391       -0.18750       -0.18750       -0.43750
 BRILLOUIN|   146           0.00391       -0.18750       -0.18750       -0.31250
 BRILLOUIN|   147           0.00391       -0.18750       -0.18750       -0.18750
 BRILLOUIN|   148           0.00391       -0.18750       -0.18750       -0.06250
 BRILLOUIN|   149           0.00391       -0.18750       -0.18750        0.06250
 BRILLOUIN|   150           0.00391       -0.18750       -0.18750        0.18750
 BRILLOUIN|   151           0.00391       -0.18750       -0.18750        0.31250
 BRILLOUIN|   152           0.00391       -0.18750       -0.18750        0.43750
 BRILLOUIN|   153           0.00391       -0.18750       -0.06250       -0.43750
 BRILLOUIN|   154           0.00391       -0.18750       -0.06250       -0.31250
 BRILLOUIN|   155           0.00391       -0.18750       -0.06250       -0.18750
 BRILLOUIN|   156           0.00391       -0.18750       -0.06250       -0.06250
 BRILLOUIN|   157           0.00391       -0.18750       -0.06250        0.06250
 BRILLOUIN|   158           0.00391       -0.18750       -0.06250        0.18750
 BRILLOUIN|   159           0.00391       -0.18750       -0.06250        0.31250
 BRILLOUIN|   160           0.00391       -0.18750       -0.06250        0.43750
 BRILLOUIN|   161           0.00391       -0.18750        0.06250       -0.43750
 BRILLOUIN|   162           0.00391       -0.18750        0.06250       -0.31250
 BRILLOUIN|   163           0.00391       -0.18750        0.06250       -0.18750
 BRILLOUIN|   164           0.00391       -0.18750        0.06250       -0.06250
 BRILLOUIN|   165           0.00391       -0.18750        0.06250        0.06250
 BRILLOUIN|   166           0.00391       -0.18750        0.06250        0.18750
 BRILLOUIN|   167           0.00391       -0.18750        0.06250        0.31250
 BRILLOUIN|   168           0.00391       -0.18750        0.06250        0.43750
 BRILLOUIN|   169           0.00391       -0.18750        0.18750       -0.43750
 BRILLOUIN|   170           0.00391       -0.18750        0.18750       -0.31250
 BRILLOUIN|   171           0.00391       -0.18750        0.18750       -0.18750
 BRILLOUIN|   172           0.00391       -0.18750        0.18750       -0.06250
 BRILLOUIN|   173           0.00391       -0.18750        0.18750        0.06250
 BRILLOUIN|   174           0.00391       -0.18750        0.18750        0.18750
 BRILLOUIN|   175           0.00391       -0.18750        0.18750        0.31250
 BRILLOUIN|   176           0.00391       -0.18750        0.18750        0.43750
 BRILLOUIN|   177           0.00391       -0.18750        0.31250       -0.43750
 BRILLOUIN|   178           0.00391       -0.18750        0.31250       -0.31250
 BRILLOUIN|   179           0.00391       -0.18750        0.31250       -0.18750
 BRILLOUIN|   180           0.00391       -0.18750        0.31250       -0.06250
 BRILLOUIN|   181           0.00391       -0.18750        0.31250        0.06250
 BRILLOUIN|   182           0.00391       -0.18750        0.31250        0.18750
 BRILLOUIN|   183           0.00391       -0.18750        0.31250        0.31250
 BRILLOUIN|   184           0.00391       -0.18750        0.31250        0.43750
 BRILLOUIN|   185           0.00391       -0.18750        0.43750       -0.43750
 BRILLOUIN|   186           0.00391       -0.18750        0.43750       -0.31250
 BRILLOUIN|   187           0.00391       -0.18750        0.43750       -0.18750
 BRILLOUIN|   188           0.00391       -0.18750        0.43750       -0.06250
 BRILLOUIN|   189           0.00391       -0.18750        0.43750        0.06250
 BRILLOUIN|   190           0.00391       -0.18750        0.43750        0.18750
 BRILLOUIN|   191           0.00391       -0.18750        0.43750        0.31250
 BRILLOUIN|   192           0.00391       -0.18750        0.43750        0.43750
 BRILLOUIN|   193           0.00391       -0.06250       -0.43750       -0.43750
 BRILLOUIN|   194           0.00391       -0.06250       -0.43750       -0.31250
 BRILLOUIN|   195           0.00391       -0.06250       -0.43750       -0.18750
 BRILLOUIN|   196           0.00391       -0.06250       -0.43750       -0.06250
 BRILLOUIN|   197           0.00391       -0.06250       -0.43750        0.06250
 BRILLOUIN|   198           0.00391       -0.06250       -0.43750        0.18750
 BRILLOUIN|   199           0.00391       -0.06250       -0.43750        0.31250
 BRILLOUIN|   200           0.00391       -0.06250       -0.43750        0.43750
 BRILLOUIN|   201           0.00391       -0.06250       -0.31250       -0.43750
 BRILLOUIN|   202           0.00391       -0.06250       -0.31250       -0.31250
 BRILLOUIN|   203           0.00391       -0.06250       -0.31250       -0.18750
 BRILLOUIN|   204           0.00391       -0.06250       -0.31250       -0.06250
 BRILLOUIN|   205           0.00391       -0.06250       -0.31250        0.06250
 BRILLOUIN|   206           0.00391       -0.06250       -0.31250        0.18750
 BRILLOUIN|   207           0.00391       -0.06250       -0.31250        0.31250
 BRILLOUIN|   208           0.00391       -0.06250       -0.31250        0.43750
 BRILLOUIN|   209           0.00391       -0.06250       -0.18750       -0.43750
 BRILLOUIN|   210           0.00391       -0.06250       -0.18750       -0.31250
 BRILLOUIN|   211           0.00391       -0.06250       -0.18750       -0.18750
 BRILLOUIN|   212           0.00391       -0.06250       -0.18750       -0.06250
 BRILLOUIN|   213           0.00391       -0.06250       -0.18750        0.06250
 BRILLOUIN|   214           0.00391       -0.06250       -0.18750        0.18750
 BRILLOUIN|   215           0.00391       -0.06250       -0.18750        0.31250
 BRILLOUIN|   216           0.00391       -0.06250       -0.18750        0.43750
 BRILLOUIN|   217           0.00391       -0.06250       -0.06250       -0.43750
 BRILLOUIN|   218           0.00391       -0.06250       -0.06250       -0.31250
 BRILLOUIN|   219           0.00391       -0.06250       -0.06250       -0.18750
 BRILLOUIN|   220           0.00391       -0.06250       -0.06250       -0.06250
 BRILLOUIN|   221           0.00391       -0.06250       -0.06250        0.06250
 BRILLOUIN|   222           0.00391       -0.06250       -0.06250        0.18750
 BRILLOUIN|   223           0.00391       -0.06250       -0.06250        0.31250
 BRILLOUIN|   224           0.00391       -0.06250       -0.06250        0.43750
 BRILLOUIN|   225           0.00391       -0.06250        0.06250       -0.43750
 BRILLOUIN|   226           0.00391       -0.06250        0.06250       -0.31250
 BRILLOUIN|   227           0.00391       -0.06250        0.06250       -0.18750
 BRILLOUIN|   228           0.00391       -0.06250        0.06250       -0.06250
 BRILLOUIN|   229           0.00391       -0.06250        0.06250        0.06250
 BRILLOUIN|   230           0.00391       -0.06250        0.06250        0.18750
 BRILLOUIN|   231           0.00391       -0.06250        0.06250        0.31250
 BRILLOUIN|   232           0.00391       -0.06250        0.06250        0.43750
 BRILLOUIN|   233           0.00391       -0.06250        0.18750       -0.43750
 BRILLOUIN|   234           0.00391       -0.06250        0.18750       -0.31250
 BRILLOUIN|   235           0.00391       -0.06250        0.18750       -0.18750
 BRILLOUIN|   236           0.00391       -0.06250        0.18750       -0.06250
 BRILLOUIN|   237           0.00391       -0.06250        0.18750        0.06250
 BRILLOUIN|   238           0.00391       -0.06250        0.18750        0.18750
 BRILLOUIN|   239           0.00391       -0.06250        0.18750        0.31250
 BRILLOUIN|   240           0.00391       -0.06250        0.18750        0.43750
 BRILLOUIN|   241           0.00391       -0.06250        0.31250       -0.43750
 BRILLOUIN|   242           0.00391       -0.06250        0.31250       -0.31250
 BRILLOUIN|   243           0.00391       -0.06250        0.31250       -0.18750
 BRILLOUIN|   244           0.00391       -0.06250        0.31250       -0.06250
 BRILLOUIN|   245           0.00391       -0.06250        0.31250        0.06250
 BRILLOUIN|   246           0.00391       -0.06250        0.31250        0.18750
 BRILLOUIN|   247           0.00391       -0.06250        0.31250        0.31250
 BRILLOUIN|   248           0.00391       -0.06250        0.31250        0.43750
 BRILLOUIN|   249           0.00391       -0.06250        0.43750       -0.43750
 BRILLOUIN|   250           0.00391       -0.06250        0.43750       -0.31250
 BRILLOUIN|   251           0.00391       -0.06250        0.43750       -0.18750
 BRILLOUIN|   252           0.00391       -0.06250        0.43750       -0.06250
 BRILLOUIN|   253           0.00391       -0.06250        0.43750        0.06250
 BRILLOUIN|   254           0.00391       -0.06250        0.43750        0.18750
 BRILLOUIN|   255           0.00391       -0.06250        0.43750        0.31250
 BRILLOUIN|   256           0.00391       -0.06250        0.43750        0.43750
 *******************************************************************************

 *******************************************************************************
 *******************************************************************************
 **                                                                           **
 **     #####                         ##              ##                      **
 **    ##   ##            ##          ##              ##                      **
 **   ##     ##                       ##            ######                    **
 **   ##     ##  ##   ##  ##   #####  ##  ##   ####   ##    #####    #####    **
 **   ##     ##  ##   ##  ##  ##      ## ##   ##      ##   ##   ##  ##   ##   **
 **   ##  ## ##  ##   ##  ##  ##      ####     ###    ##   ######   ######    **
 **    ##  ###   ##   ##  ##  ##      ## ##      ##   ##   ##       ##        **
 **     #######   #####   ##   #####  ##  ##  ####    ##    #####   ##        **
 **           ##                                                    ##        **
 **                                                                           **
 **                                                ... make the atoms dance   **
 **                                                                           **
 **            Copyright (C) by CP2K developers group (2000-2025)             **
 **                      J. Chem. Phys. 152, 194103 (2020)                    **
 **                                                                           **
 *******************************************************************************

 DFT| Spin restricted Kohn-Sham (RKS) calculation                            RKS
 DFT| Multiplicity                                                             1
 DFT| Number of spin states                                                    1
 DFT| Charge                                                                   0
 DFT| Self-interaction correction (SIC)                                       NO
 DFT| Cutoffs: density                                              1.000000E-10
 DFT|          gradient                                             1.000000E-10
 DFT|          tau                                                  1.000000E-10
 DFT|          cutoff_smoothing_range                               0.000000E+00
 DFT| XC density smoothing                                                  NONE
 DFT| XC derivatives                                                          PW

 FUNCTIONAL| PBE:
 FUNCTIONAL| J.P.Perdew, K.Burke, M.Ernzerhof, Phys. Rev. Letter, vol. 77, n 18,
 FUNCTIONAL|  pp. 3865-3868, (1996) {spin unpolarized}                          


 QS| Method:                                                                 GPW
 QS| Density plane wave grid type                        NON-SPHERICAL FULLSPACE
 QS| Number of grid levels:                                                    4
 QS| Density cutoff [a.u.]:                                                500.0
 QS| Multi grid cutoff [a.u.]: 1) grid level                               500.0
 QS|                           2) grid level                               166.7
 QS|                           3) grid level                                55.6
 QS|                           4) grid level                                18.5
 QS| Grid level progression factor:                                          3.0
 QS| Relative density cutoff [a.u.]:                                        50.0
 QS| Interaction thresholds: eps_pgf_orb:                                1.0E-16
 QS|                         eps_filter_matrix:                          0.0E+00
 QS|                         eps_core_charge:                            1.0E-18
 QS|                         eps_rho_gspace:                             1.0E-16
 QS|                         eps_rho_rspace:                             1.0E-16
 QS|                         eps_gvg_rspace:                             1.0E-08
 QS|                         eps_ppl:                                    1.0E-02
 QS|                         eps_ppnl:                                   1.0E-10


 ATOMIC KIND INFORMATION

  1. Atomic kind: Hf                                    Number of atoms:       2

     Orbital Basis Set                                 aug-SZV-MOLOPT-GTH-tier-2

       Number of orbital shell sets:                                           1
       Number of orbital shells:                                               8
       Number of primitive Cartesian functions:                                7
       Number of Cartesian basis functions:                                   31
       Number of spherical basis functions:                                   26
       Norm type:                                                              2

       Normalised Cartesian orbitals:

                        Set   Shell   Orbital            Exponent    Coefficient

                          1       1    2s                0.060258      -0.010162
                                                         0.105355       0.000000
                                                         0.184204      -0.023286
                                                         0.482781      -0.165554
                                                         1.091215      -0.688951
                                                         2.597200      -0.196898
                                                         2.671196       1.167000

                          1       2    3s                0.060258       0.079636
                                                         0.105355       0.000000
                                                         0.184204       0.073744
                                                         0.482781      -0.217868
                                                         1.091215      -0.342938
                                                         2.597200       0.176662
                                                         2.671196       0.248130

                          1       3    4s                0.060258      -0.009600
                                                         0.105355       0.104472
                                                         0.184204       0.099889
                                                         0.482781      -0.103357
                                                         1.091215       0.006487
                                                         2.597200       0.000000
                                                         2.671196       0.000000

                          1       4    3px               0.060258      -0.000037
                                                         0.105355       0.000000
                                                         0.184204       0.012460
                                                         0.482781       0.311513
                                                         1.091215       0.749005
                                                         2.597200      14.707232
                                                         2.671196     -15.678755
                          1       4    3py               0.060258      -0.000037
                                                         0.105355       0.000000
                                                         0.184204       0.012460
                                                         0.482781       0.311513
                                                         1.091215       0.749005
                                                         2.597200      14.707232
                                                         2.671196     -15.678755
                          1       4    3pz               0.060258      -0.000037
                                                         0.105355       0.000000
                                                         0.184204       0.012460
                                                         0.482781       0.311513
                                                         1.091215       0.749005
                                                         2.597200      14.707232
                                                         2.671196     -15.678755

                          1       5    4px               0.060258       0.043465
                                                         0.105355      -0.004307
                                                         0.184204       0.004412
                                                         0.482781       0.011736
                                                         1.091215       0.000064
                                                         2.597200       0.000000
                                                         2.671196       0.000000
                          1       5    4py               0.060258       0.043465
                                                         0.105355      -0.004307
                                                         0.184204       0.004412
                                                         0.482781       0.011736
                                                         1.091215       0.000064
                                                         2.597200       0.000000
                                                         2.671196       0.000000
                          1       5    4pz               0.060258       0.043465
                                                         0.105355      -0.004307
                                                         0.184204       0.004412
                                                         0.482781       0.011736
                                                         1.091215       0.000064
                                                         2.597200       0.000000
                                                         2.671196       0.000000

                          1       6    4dx2              0.060258       0.001339
                                                         0.105355       0.000000
                                                         0.184204       0.036710
                                                         0.482781       0.207500
                                                         1.091215       0.431740
                                                         2.597200       0.285092
                                                         2.671196      -0.351528
                          1       6    4dxy              0.060258       0.002319
                                                         0.105355       0.000000
                                                         0.184204       0.063584
                                                         0.482781       0.359401
                                                         1.091215       0.747796
                                                         2.597200       0.493793
                                                         2.671196      -0.608864
                          1       6    4dxz              0.060258       0.002319
                                                         0.105355       0.000000
                                                         0.184204       0.063584
                                                         0.482781       0.359401
                                                         1.091215       0.747796
                                                         2.597200       0.493793
                                                         2.671196      -0.608864
                          1       6    4dy2              0.060258       0.001339
                                                         0.105355       0.000000
                                                         0.184204       0.036710
                                                         0.482781       0.207500
                                                         1.091215       0.431740
                                                         2.597200       0.285092
                                                         2.671196      -0.351528
                          1       6    4dyz              0.060258       0.002319
                                                         0.105355       0.000000
                                                         0.184204       0.063584
                                                         0.482781       0.359401
                                                         1.091215       0.747796
                                                         2.597200       0.493793
                                                         2.671196      -0.608864
                          1       6    4dz2              0.060258       0.001339
                                                         0.105355       0.000000
                                                         0.184204       0.036710
                                                         0.482781       0.207500
                                                         1.091215       0.431740
                                                         2.597200       0.285092
                                                         2.671196      -0.351528

                          1       7    5dx2              0.060258       0.001791
                                                         0.105355       0.019498
                                                         0.184204       0.023842
                                                         0.482781       0.008141
                                                         1.091215       0.044155
                                                         2.597200       0.000000
                                                         2.671196       0.000000
                          1       7    5dxy              0.060258       0.003102
                                                         0.105355       0.033772
                                                         0.184204       0.041295
                                                         0.482781       0.014101
                                                         1.091215       0.076478
                                                         2.597200       0.000000
                                                         2.671196       0.000000
                          1       7    5dxz              0.060258       0.003102
                                                         0.105355       0.033772
                                                         0.184204       0.041295
                                                         0.482781       0.014101
                                                         1.091215       0.076478
                                                         2.597200       0.000000
                                                         2.671196       0.000000
                          1       7    5dy2              0.060258       0.001791
                                                         0.105355       0.019498
                                                         0.184204       0.023842
                                                         0.482781       0.008141
                                                         1.091215       0.044155
                                                         2.597200       0.000000
                                                         2.671196       0.000000
                          1       7    5dyz              0.060258       0.003102
                                                         0.105355       0.033772
                                                         0.184204       0.041295
                                                         0.482781       0.014101
                                                         1.091215       0.076478
                                                         2.597200       0.000000
                                                         2.671196       0.000000
                          1       7    5dz2              0.060258       0.001791
                                                         0.105355       0.019498
                                                         0.184204       0.023842
                                                         0.482781       0.008141
                                                         1.091215       0.044155
                                                         2.597200       0.000000
                                                         2.671196       0.000000

                          1       8    5fx3              0.060258      -0.000444
                                                         0.105355       0.002411
                                                         0.184204       0.012339
                                                         0.482781       0.113806
                                                         1.091215       0.588336
                                                         2.597200       0.000000
                                                         2.671196       0.000000
                          1       8    5fx2y             0.060258      -0.000992
                                                         0.105355       0.005391
                                                         0.184204       0.027591
                                                         0.482781       0.254478
                                                         1.091215       1.315560
                                                         2.597200       0.000000
                                                         2.671196       0.000000
                          1       8    5fx2z             0.060258      -0.000992
                                                         0.105355       0.005391
                                                         0.184204       0.027591
                                                         0.482781       0.254478
                                                         1.091215       1.315560
                                                         2.597200       0.000000
                                                         2.671196       0.000000
                          1       8    5fxy2             0.060258      -0.000992
                                                         0.105355       0.005391
                                                         0.184204       0.027591
                                                         0.482781       0.254478
                                                         1.091215       1.315560
                                                         2.597200       0.000000
                                                         2.671196       0.000000
                          1       8    5fxyz             0.060258      -0.001718
                                                         0.105355       0.009337
                                                         0.184204       0.047789
                                                         0.482781       0.440769
                                                         1.091215       2.278616
                                                         2.597200       0.000000
                                                         2.671196       0.000000
                          1       8    5fxz2             0.060258      -0.000992
                                                         0.105355       0.005391
                                                         0.184204       0.027591
                                                         0.482781       0.254478
                                                         1.091215       1.315560
                                                         2.597200       0.000000
                                                         2.671196       0.000000
                          1       8    5fy3              0.060258      -0.000444
                                                         0.105355       0.002411
                                                         0.184204       0.012339
                                                         0.482781       0.113806
                                                         1.091215       0.588336
                                                         2.597200       0.000000
                                                         2.671196       0.000000
                          1       8    5fy2z             0.060258      -0.000992
                                                         0.105355       0.005391
                                                         0.184204       0.027591
                                                         0.482781       0.254478
                                                         1.091215       1.315560
                                                         2.597200       0.000000
                                                         2.671196       0.000000
                          1       8    5fyz2             0.060258      -0.000992
                                                         0.105355       0.005391
                                                         0.184204       0.027591
                                                         0.482781       0.254478
                                                         1.091215       1.315560
                                                         2.597200       0.000000
                                                         2.671196       0.000000
                          1       8    5fz3              0.060258      -0.000444
                                                         0.105355       0.002411
                                                         0.184204       0.012339
                                                         0.482781       0.113806
                                                         1.091215       0.588336
                                                         2.597200       0.000000
                                                         2.671196       0.000000

       Atomic covalent radius [Angstrom]:                                  1.440

       Atomic van der Waals radius [Angstrom]:                             1.910

     GTH Potential information for                                       GTH-PBE

       Description:                       Goedecker-Teter-Hutter pseudopotential
                                           Goedecker et al., PRB 54, 1703 (1996)
                                          Hartwigsen et al., PRB 58, 3641 (1998)
                                                      Krack, TCA 114, 145 (2005)

       Gaussian exponent of the core charge distribution:               1.594388
       Electronic configuration (s p d ...):                           4   6   2

       Parameters of the local part of the GTH pseudopotential:

                          rloc        C1          C2          C3          C4
                        0.560000   15.522366   -2.433567

       Parameters of the non-local part of the GTH (SOC) pseudopotential:

                   l      r(l)      h(i,j,l)
                                    k(i,j,l)
                   0    0.311828  -10.910131   27.372646  -14.961570
                                   27.372646  -59.672929   38.630607
                                  -14.961570   38.630607  -30.662094
                   1    0.361967   -9.651700    9.223297    0.000000
                                    9.223297  -10.913153    0.000000
                                    0.000000    0.000000    0.000000
                                    0.254332    2.892313   -3.448886
                                    2.892313   -9.164101    8.161555
                                   -3.448886    8.161555   -5.800460
                   2    0.415791   -2.748915    0.481333
                                    0.481333   -0.545781
                                    0.074701    0.015808
                                    0.015808   -0.017925


 MOLECULE KIND INFORMATION


 All atoms are their own molecule, skipping detailed information


 TOTAL NUMBERS AND MAXIMUM NUMBERS

  Total number of            - Atomic kinds:                                   1
                             - Atoms:                                          2
                             - Shell sets:                                     2
                             - Shells:                                        16
                             - Primitive Cartesian functions:                 14
                             - Cartesian basis functions:                     62
                             - Spherical basis functions:                     52

  Maximum angular momentum of- Orbital basis functions:                        3
                             - Local part of the GTH pseudopotential:          2
                             - Non-local part of the GTH pseudopotential:      5


 MODULE QUICKSTEP: ATOMIC COORDINATES IN ANGSTROM

   Atom Kind Element         X             Y             Z       Z(eff)     Mass
      1    1 Hf   72      0.000000      0.000000      0.000000  12.0000 178.4900
      2    1 Hf   72      1.601349      0.924539      2.532465  12.0000 178.4900



 SCF PARAMETERS         Density guess:                                    ATOMIC
                        --------------------------------------------------------
                        max_scf:                                             500
                        max_scf_history:                                       0
                        max_diis:                                              4
                        --------------------------------------------------------
                        eps_scf:                                        1.00E-09
                        eps_scf_history:                                0.00E+00
                        eps_diis:                                       1.00E-01
                        eps_eigval:                                     1.00E-05
                        --------------------------------------------------------
                        level_shift [a.u.]:                             0.000000
                        added MOs                                        40    0
                        --------------------------------------------------------
                        Mixing method:                            BROYDEN_MIXING
                                                charge density mixing in g-space
                        --------------------------------------------------------
                        Smear method:                                FERMI_DIRAC
                        Electronic temperature [K]:                        300.0
                        Electronic temperature [a.u.]:                  9.50E-04
                        Accuracy threshold:                             1.00E-10
                        --------------------------------------------------------
                        No outer SCF

 PW_GRID| Information for grid number                                          1
 PW_GRID| Grid distributed over                                     8 processors
 PW_GRID| Real space group dimensions                                     8    1
 PW_GRID| the grid is blocked:                                                NO
 PW_GRID| Cutoff [a.u.]                                                    500.0
 PW_GRID| spherical cutoff:                                                   NO
 PW_GRID|   Bounds   1            -32      31                Points:          64
 PW_GRID|   Bounds   2            -32      31                Points:          64
 PW_GRID|   Bounds   3            -50      49                Points:         100
 PW_GRID| Volume element (a.u.^3)  0.7413E-03     Volume (a.u.^3)       303.6277
 PW_GRID| Grid span                                                    FULLSPACE
 PW_GRID|   Distribution                         Average         Max         Min
 PW_GRID|   G-Vectors                            51200.0       51200       51200
 PW_GRID|   G-Rays                                 800.0         800         800
 PW_GRID|   Real Space Points                    51200.0       51200       51200

 PW_GRID| Information for grid number                                          2
 PW_GRID| Number of the reference grid                                         1
 PW_GRID| Grid distributed over                                     8 processors
 PW_GRID| Real space group dimensions                                     8    1
 PW_GRID| the grid is blocked:                                                NO
 PW_GRID| Cutoff [a.u.]                                                    166.7
 PW_GRID| spherical cutoff:                                                   NO
 PW_GRID|   Bounds   1            -18      17                Points:          36
 PW_GRID|   Bounds   2            -18      17                Points:          36
 PW_GRID|   Bounds   3            -30      29                Points:          60
 PW_GRID| Volume element (a.u.^3)  0.3905E-02     Volume (a.u.^3)       303.6277
 PW_GRID| Grid span                                                    FULLSPACE
 PW_GRID|   Distribution                         Average         Max         Min
 PW_GRID|   G-Vectors                             9720.0        9792        9612
 PW_GRID|   G-Rays                                 270.0         272         267
 PW_GRID|   Real Space Points                     9720.0       10800        8640

 PW_GRID| Information for grid number                                          3
 PW_GRID| Number of the reference grid                                         1
 PW_GRID| Grid distributed over                                     8 processors
 PW_GRID| Real space group dimensions                                     8    1
 PW_GRID| the grid is blocked:                                                NO
 PW_GRID| Cutoff [a.u.]                                                     55.6
 PW_GRID| spherical cutoff:                                                   NO
 PW_GRID|   Bounds   1            -12      11                Points:          24
 PW_GRID|   Bounds   2            -12      11                Points:          24
 PW_GRID|   Bounds   3            -18      17                Points:          36
 PW_GRID| Volume element (a.u.^3)  0.1464E-01     Volume (a.u.^3)       303.6277
 PW_GRID| Grid span                                                    FULLSPACE
 PW_GRID|   Distribution                         Average         Max         Min
 PW_GRID|   G-Vectors                             2592.0        2640        2520
 PW_GRID|   G-Rays                                 108.0         110         105
 PW_GRID|   Real Space Points                     2592.0        2592        2592

 PW_GRID| Information for grid number                                          4
 PW_GRID| Number of the reference grid                                         1
 PW_GRID| Grid distributed over                                     8 processors
 PW_GRID| Real space group dimensions                                     8    1
 PW_GRID| the grid is blocked:                                                NO
 PW_GRID| Cutoff [a.u.]                                                     18.5
 PW_GRID| spherical cutoff:                                                   NO
 PW_GRID|   Bounds   1             -6       5                Points:          12
 PW_GRID|   Bounds   2             -6       5                Points:          12
 PW_GRID|   Bounds   3            -10       9                Points:          20
 PW_GRID| Volume element (a.u.^3)  0.1054         Volume (a.u.^3)       303.6277
 PW_GRID| Grid span                                                    FULLSPACE
 PW_GRID|   Distribution                         Average         Max         Min
 PW_GRID|   G-Vectors                              360.0         384         336
 PW_GRID|   G-Rays                                  30.0          32          28
 PW_GRID|   Real Space Points                      360.0         480         240

 POISSON| Solver                                                        PERIODIC
 POISSON| Periodicity                                                        XYZ

 RS_GRID| Information for grid number                                          1
 RS_GRID|   Bounds   1            -32      31                Points:          64
 RS_GRID|   Bounds   2            -32      31                Points:          64
 RS_GRID|   Bounds   3            -50      49                Points:         100
 RS_GRID| Real space fully replicated
 RS_GRID| Group size                                                           1

 RS_GRID| Information for grid number                                          2
 RS_GRID|   Bounds   1            -18      17                Points:          36
 RS_GRID|   Bounds   2            -18      17                Points:          36
 RS_GRID|   Bounds   3            -30      29                Points:          60
 RS_GRID| Real space fully replicated
 RS_GRID| Group size                                                           1

 RS_GRID| Information for grid number                                          3
 RS_GRID|   Bounds   1            -12      11                Points:          24
 RS_GRID|   Bounds   2            -12      11                Points:          24
 RS_GRID|   Bounds   3            -18      17                Points:          36
 RS_GRID| Real space fully replicated
 RS_GRID| Group size                                                           1

 RS_GRID| Information for grid number                                          4
 RS_GRID|   Bounds   1             -6       5                Points:          12
 RS_GRID|   Bounds   2             -6       5                Points:          12
 RS_GRID|   Bounds   3            -10       9                Points:          20
 RS_GRID| Real space fully replicated
 RS_GRID| Group size                                                           1

 Number of electrons:                                                         24
 Number of occupied orbitals:                                                 12
 Number of molecular orbitals:                                                52

 Number of orbital functions:                                                 52
 Number of independent orbital functions:                                     52

 Extrapolation method: initial_guess

 Atomic guess: The first density matrix is obtained in terms of atomic orbitals
               and electronic configurations assigned to each atomic kind

 Guess for atomic kind: Hf

 Electronic structure
    Total number of core electrons                                         60.00
    Total number of valence electrons                                      12.00
    Total number of electrons                                              72.00
    Multiplicity                                                   not specified
    S   [  2.00  2.00  2.00  2.00] 2.00  2.00
    P   [  6.00  6.00  6.00] 6.00
    D   [ 10.00 10.00] 2.00
    F   [ 14.00]


 *******************************************************************************
                  Iteration          Convergence                     Energy [au]
 *******************************************************************************
                          1        0.421915                     -48.575374015270
                          2        0.246159                     -48.699641664850
                          3        0.296802E-02                 -48.743428622181
                          4        0.510297E-03                 -48.743438284129
                          5        0.293340E-05                 -48.743438545852
                          6        0.293935E-07                 -48.743438545854

 Energy components [Hartree]           Total Energy ::          -48.743438545854
                                        Band Energy ::          -12.667204318695
                                     Kinetic Energy ::           15.627055415182
                                   Potential Energy ::          -64.370493961036
                                      Virial (-V/T) ::            4.119169750848
                                        Core Energy ::          -80.878316597064
                                          XC Energy ::           -5.715232978679
                                     Coulomb Energy ::           37.850111029890
                       Total Pseudopotential Energy ::          -96.609786479364
                       Local Pseudopotential Energy ::          -85.823851325062
                    Nonlocal Pseudopotential Energy ::          -10.785935154302
                                        Confinement ::            1.044144671179

 Orbital energies  State     L     Occupation   Energy[a.u.]          Energy[eV]

                       1     0          2.000      -2.341008          -63.702054
                       2     0          2.000      -0.151545           -4.123746

                       1     1          6.000      -1.259004          -34.259232

                       1     2          2.000      -0.064039           -1.742582


 Total Electron Density at R=0:                                         0.014860
 Re-scaling the density matrix to get the right number of electrons
                  # Electrons              Trace(P)               Scaling factor
                           24                24.000                        1.000


 SCF WAVEFUNCTION OPTIMIZATION

  Step     Update method      Time    Convergence         Total energy    Change
  ------------------------------------------------------------------------------
     1 NoMix/Diag. 0.10E+00    9.9     2.06464807       -99.0709476159 -9.91E+01
     2 Broy./Diag. 0.10E+00   11.0     0.01439228       -99.3680656511 -2.97E-01
     3 Broy./Diag. 0.10E+00   11.0     0.22530461       -98.7978814424  5.70E-01
     4 Broy./Diag. 0.10E+00   11.0     0.00473886       -98.4880342444  3.10E-01
     5 Broy./Diag. 0.10E+00   10.9     0.00088486       -98.4922591365 -4.22E-03
     6 Broy./Diag. 0.10E+00   11.0     0.00105196       -98.4943976320 -2.14E-03
     7 Broy./Diag. 0.10E+00   11.0     0.00071957       -98.4985088754 -4.11E-03
     8 Broy./Diag. 0.10E+00   11.0     0.00030869       -98.5002599399 -1.75E-03
     9 Broy./Diag. 0.10E+00   11.0     0.00001396       -98.5006654495 -4.06E-04
    10 Broy./Diag. 0.10E+00   11.0     0.00004051       -98.5006892796 -2.38E-05
    11 Broy./Diag. 0.10E+00   11.0     0.00000375       -98.5007032618 -1.40E-05
    12 Broy./Diag. 0.10E+00   11.0     0.00002188       -98.5006336579  6.96E-05
    13 Broy./Diag. 0.10E+00   11.0     0.00000020       -98.5006280746  5.58E-06
    14 Broy./Diag. 0.10E+00   11.0     0.00000222       -98.5006361784 -8.10E-06
    15 Broy./Diag. 0.10E+00   11.0     0.00000007       -98.5006379669 -1.79E-06
    16 Broy./Diag. 0.10E+00   11.0     0.00000061       -98.5006395441 -1.58E-06
    17 Broy./Diag. 0.10E+00   11.0     0.00000002       -98.5006400955 -5.51E-07
    18 Broy./Diag. 0.10E+00   11.0     0.00000004       -98.5006401434 -4.79E-08
    19 Broy./Diag. 0.10E+00   11.0     0.00000003       -98.5006400947  4.87E-08
    20 Broy./Diag. 0.10E+00   11.0     0.00000004       -98.5006399385  1.56E-07
    21 Broy./Diag. 0.10E+00   11.0     0.00000002       -98.5006398950  4.35E-08
    22 Broy./Diag. 0.10E+00   11.0     5.9401E-09       -98.5006399234 -2.84E-08
    23 Broy./Diag. 0.10E+00   11.0     1.2737E-09       -98.5006399220  1.36E-09
    24 Broy./Diag. 0.10E+00   11.0     0.00000001       -98.5006398764  4.56E-08
    25 Broy./Diag. 0.10E+00   11.0     1.4332E-09       -98.5006398641  1.23E-08
    26 Broy./Diag. 0.10E+00   11.0     2.1042E-09       -98.5006398619  2.27E-09
    27 Broy./Diag. 0.10E+00   11.0     6.6693E-10       -98.5006398635 -1.58E-09

  *** SCF run converged in    27 steps ***


  Electronic density on regular grids:        -24.0000000000        0.0000000000
  Core density on regular grids:               24.0000000000        0.0000000000
  Total charge density on r-space grids:        0.0000000000
  Total charge density g-space grids:           0.0000000000

  Overlap energy of the core charge distribution:               0.00000000001371
  Self energy of the core charge distribution:               -145.07732148370874
  Core Hamiltonian energy:                                     30.73751276687752
  Hartree energy:                                              27.96014070400737
  Exchange-correlation energy:                                -12.12084832305767
  Electronic entropic energy:                                  -0.00012352758964
  Fermi energy:                                                 0.38086948005817

  Total energy:                                               -98.50063986345729

 !-----------------------------------------------------------------------------!
                     Mulliken Population Analysis

 #  Atom  Element  Kind  Atomic population                           Net charge
       1     Hf       1         12.000008                             -0.000008
       2     Hf       1         11.999992                              0.000008
 # Total charge                             24.000000                  0.000000

 !-----------------------------------------------------------------------------!

 !-----------------------------------------------------------------------------!
                           Hirshfeld Charges

  #Atom  Element  Kind  Ref Charge     Population                    Net charge
      1       Hf     1      12.000         12.000                         0.000
      2       Hf     1      12.000         12.000                        -0.000

  Total Charge                                                            0.000
 !-----------------------------------------------------------------------------!
  
 -------------------------------------------------------------------------------
 -                                                                             -
 -                          BANDSTRUCTURE CALCULATION                          -
 -                                                                             -
 -------------------------------------------------------------------------------
  
 Number of occupied molecular orbitals (MOs) = Number of occupied bands       12
 Number of unoccupied (= virtual) MOs = Number of unoccupied bands            40
 Number of Gaussian basis functions for MOs                                   52
 Number of cells considered in the DFT calculation                          1998
 Number of cells for G, , W,                                               343
 Number of special k-points for the bandstructure                              4
 Number of k-points for the bandstructure                                    660

 SOC requested, SOC energy window:                                       10.0 eV

 
 SCF valence band maximum (eV):                                           11.527
 SCF conduction band minimum (eV):                                         9.962
 SCF indirect band gap (eV):                                              -1.565
 SCF direct band gap (eV):                                                 0.001
 
 SCF+SOC valence band maximum (eV):                                       11.360
 SCF+SOC conduction band minimum (eV):                                     9.958
 SCF+SOC indirect band gap (eV):                                          -1.401
 SCF+SOC direct band gap (eV):                                             0.076

 ENERGY| Total FORCE_EVAL ( QS ) energy [hartree]            -98.500639863457295

 -------------------------------------------------------------------------------
 -                                                                             -
 -                                DBCSR STATISTICS                             -
 -                                                                             -
 -------------------------------------------------------------------------------
 COUNTER                                    TOTAL       BLAS       SMM       ACC
 flops inhomo. stacks                           0       0.0%      0.0%      0.0%
 flops total                         0.000000E+00       0.0%      0.0%      0.0%
 flops max/rank                      0.000000E+00       0.0%      0.0%      0.0%
 matmuls inhomo. stacks                         0       0.0%      0.0%      0.0%
 matmuls total                                  0       0.0%      0.0%      0.0%
 number of processed stacks                     0       0.0%      0.0%      0.0%
 average stack size                                     0.0       0.0       0.0
 marketing flops                     0.000000E+00
 -------------------------------------------------------------------------------
 -                                                                             -
 -                      DBCSR MESSAGE PASSING PERFORMANCE                      -
 -                                                                             -
 -------------------------------------------------------------------------------
 ROUTINE             CALLS      AVE VOLUME [Bytes]
 MP_Bcast                1                     12.
 MP_Allreduce           19                     21.
 MP_Alltoall        726960                   4498.
 -------------------------------------------------------------------------------

 -------------------------------------------------------------------------------
 -                                                                             -
 -                                DBM STATISTICS                               -
 -                                                                             -
 -------------------------------------------------------------------------------
    M  x    N  x    K                                          COUNT     PERCENT
 -------------------------------------------------------------------------------

 -------------------------------------------------------------------------------
 -                                                                             -
 -                                GRID STATISTICS                              -
 -                                                                             -
[...]
 -------------------------------------------------------------------------------
 count for grid        1:          16584          cutoff [a.u.]          500.00
 count for grid        2:          65082          cutoff [a.u.]          166.67
 count for grid        3:          21890          cutoff [a.u.]           55.56
 count for grid        4:          45016          cutoff [a.u.]           18.52
 total gridlevel count  :         148572

 -------------------------------------------------------------------------------
 -                                                                             -
 -                         MESSAGE PASSING PERFORMANCE                         -
 -                                                                             -
 -------------------------------------------------------------------------------

 ROUTINE             CALLS      AVE VOLUME [Bytes]
 MP_Group                5
 MP_Bcast           249041                   2290.
 MP_Allreduce       165252                     30.
 MP_Sync                 4
 MP_Alltoall           491                2271213.
 MP_SendRecv           798                 135047.
 MP_ISendRecv          763                 132708.
 MP_Wait            171835
 MP_comm_split           3
 MP_ISend           181440                    630.
 MP_IRecv           290304                    396.
 -------------------------------------------------------------------------------


 -------------------------------------------------------------------------------
 -                                                                             -
 -                           R E F E R E N C E S                               -
 -                                                                             -
 -------------------------------------------------------------------------------
 
 CP2K version 2025.1 (Development Version), the CP2K developers group (2025).
 CP2K is freely available from https://www.cp2k.org/ .
 
 T. D. Kuehne, M. Iannuzzi, M. Del Ben, V. V. Rybkin, P. Seewald, F. Stein, T. 
 Laino, R. Z. Khaliullin, O. Schuett, F. Schiffmann, D. Golze, J. Wilhelm, S. 
 Chulkov, M. H. Bani-Hashemian, V. Weber, U. Borstnik, M. Taillefumier, A. S. 
 Jakobovits, A. Lazzaro, H. Pabst, T. Mueller, R. Schade, M. Guidon, S. 
 Andermatt, N. Holmberg, G. K. Schenter, A. Hehn, A. Bussy, F. Belleflamme, G. 
 Tabacchi, A. Gloess, M. Lass, I. Bethune, C. J. Mundy, C. Plessl, M. Watkins, 
 J. VandeVondele, M. Krack, J. Hutter.
 J. Chem. Phys. 152, 194103 (2020).
 CP2K: An electronic structure and molecular dynamics software package - 
 Quickstep: Efficient and accurate electronic structure calculations.
 https://doi.org/10.1063/5.0007045

 O. Schuett, P. Messmer, J. Hutter, J. VandeVondele.
 Electronic Structure Calculations on Graphics Processing Units, 173-190 (2016).
 GPU-Accelerated Sparse Matrix-Matrix Multiplication for Linear Scaling Density 
 Functional Theory.
 https://doi.org/10.1002/9781118670712.ch8

 J. Hutter, M. Iannuzzi, F. Schiffmann, J. VandeVondele.
 WIREs Comput Mol Sci. 4, 15-25 (2014).
 CP2K: atomistic simulations of condensed matter systems.
 https://doi.org/10.1002/wcms.1159

 U. Borstnik, J. VandeVondele, V. Weber, J. Hutter.
 Parallel Comput. 40, 47-58 (2014).
 Sparse matrix multiplication: The distributed block-compressed sparse row 
 library.
 https://doi.org/10.1016/j.parco.2014.03.012

 J. VandeVondele, J. Hutter.
 J. Chem. Phys. 127, 114105 (2007).
 Gaussian basis sets for accurate calculations on molecular systems in gas and 
 condensed phases.
 https://doi.org/10.1063/1.2770708

 J. VandeVondele, M. Krack, F. Mohamed, M. Parrinello, T. Chassaing, J. Hutter.
 Comput. Phys. Commun. 167, 103-128 (2005).
 QUICKSTEP: Fast and accurate density functional calculations using a mixed 
 Gaussian and plane waves approach.
 https://doi.org/10.1016/j.cpc.2004.12.014

 M. Krack.
 Theor. Chem. Acc. 114, 145-152 (2005).
 Pseudopotentials for H to Kr optimized for gradient-corrected 
 exchange-correlation functionals.
 https://doi.org/10.1007/s00214-005-0655-y

 M. Frigo, S. G. Johnson.
 Proc. IEEE 93, 216-231 (2005).
 The design and implementation of FFTW3.
 https://doi.org/10.1109/JPROC.2004.840301

 C. Hartwigsen, S. Goedecker, J. Hutter.
 Phys. Rev. B 58, 3641-3662 (1998).
 Relativistic separable dual-space Gaussian pseudopotentials from H to Rn.
 https://doi.org/10.1103/PhysRevB.58.3641

 G. Lippert, J. Hutter, M. Parrinello.
 Mol. Phys. 92, 477-487 (1997).
 A hybrid Gaussian and plane wave density functional scheme.
 https://doi.org/10.1080/002689797170220

 S. Goedecker, M. Teter, J. Hutter.
 Phys. Rev. B 54, 1703-1710 (1996).
 Separable dual-space Gaussian pseudopotentials.
 https://doi.org/10.1103/PhysRevB.54.1703

 J. P. Perdew, K. Burke, M. Ernzerhof.
 Phys. Rev. Lett. 77, 3865-3868 (1996).
 Generalized gradient approximation made simple.
 https://doi.org/10.1103/PhysRevLett.77.3865


 -------------------------------------------------------------------------------
 -                                                                             -
 -                                T I M I N G                                  -
 -                                                                             -
 -------------------------------------------------------------------------------
 SUBROUTINE                       CALLS  ASD         SELF TIME        TOTAL TIME
                                MAXIMUM       AVERAGE  MAXIMUM  AVERAGE  MAXIMUM
 CP2K                                 1  1.0    0.018    0.024  356.321  356.321
 qs_energies                          1  2.0    0.006    0.007  356.060  356.070
 scf_env_do_scf                       1  3.0    0.000    0.000  299.639  299.639
 scf_env_do_scf_inner_loop           27  4.0    0.047    0.050  299.639  299.639
 mp_alltoall_i22                 124564  8.9  225.930  277.347  225.930  277.347
 qs_scf_new_mos_kp                   27  5.0    0.000    0.000  259.730  265.864
 do_general_diag_kp                  27  6.0    0.150    0.178  259.730  265.864
 dbcsr_desymmetrize_deep          72494  7.7    1.083    1.298  177.269  216.260
 rskp_transform                   17124  7.2   32.397  175.225   32.397  175.225
 dbcsr_complete_redistribute      52070  8.3    1.676    1.921   67.976   80.473
 kpoint_density_transform            27  7.0    0.082    0.097   70.543   70.757
 copy_fm_to_dbcsr                 13824  8.0    0.079    0.087   56.795   68.906
 transform_dmat                    6912  8.0   12.147   65.415   12.147   65.415
 qs_energies_properties               1  3.0    0.000    0.000   51.991   52.000
 post_scf_bandstructure               1  4.0    0.000    0.000   51.991   52.000
 rsmat_to_kp                       3300  7.0    0.052    0.058   37.608   37.621
 qs_ks_update_qs_env                 27  5.0    0.000    0.000    8.883   35.564
 rebuild_ks_matrix                   27  6.0    0.000    0.000    7.260   33.941
 qs_ks_build_kohn_sham_matrix        27  7.0    0.089    0.092    7.260   33.941
 sum_up_and_integrate                27  8.0    0.000    0.000    6.398   33.026
 integrate_v_rspace                  27  9.0    0.039    0.204    6.398   33.025
 grid_integrate_task_list            27 10.0    6.143   32.659    6.143   32.659
 transfer_rs2pw                     114  8.0    0.001    0.002   23.564   29.016
 transfer_rs2pw_500                  30  8.9    0.045    0.051   23.529   28.980
 mp_sendrecv_dv                     798 10.0   23.507   28.962   23.507   28.962
 qs_rho_update_rho_low               28  5.0    0.000    0.000   27.392   27.414
 calculate_rho_elec                  28  6.0    0.017    0.034   27.392   27.414
 density_rs2pw                       28  7.0    0.001    0.001   22.218   27.321
 grid_collocate_task_list            28  7.0    5.156   27.087    5.156   27.087
 soc                                  1  5.0    0.001    0.001   26.072   26.072
 H_KS_spinor_kp                       1  6.0    0.010    0.011   24.831   25.593
 create_and_init_bs_env               1  5.0    0.000    0.000   20.017   20.018
 compute_cfm_mo_coeff_kp_and_ei       1  6.0    0.005    0.006   20.014   20.014
 copy_dbcsr_to_fm                 38246  7.1    0.382    0.430   17.689   18.053
 cp_cfm_heevd                      3708  7.8    0.005    0.005    9.892    9.903
 cp_cfm_heevd_base                 3708  8.8    9.887    9.899    9.887    9.899
 dos_pdos_ldos                        1  5.0    0.005    0.005    5.901    5.911
 cp_dbcsr_alloc_block_from_nbl    34734  6.4    1.063    5.270    1.162    5.618
 cp_cfm_geeig_canon                1524  7.0    0.011    0.012    5.557    5.569
 SOC_ev                             660  6.0    0.011    0.012    5.473    5.482
 dbcsr_finalize                  204022  8.3    0.623    0.727    4.047    4.453
 V_SOC_xyz_from_pseudopotential       1  6.0    0.060    0.061    1.241    3.980
 mp_sum_iv                         1340  8.9    3.007    3.830    3.007    3.830
 cp_fm_start_copy_general         41472  7.3    0.586    0.859    3.485    3.533
 alloc_cfm_double_array_1d            1  7.0    0.001    0.001    2.753    3.515
 create_cfm_double                  660  8.0    0.005    0.005    2.752    3.514
 mp_cart_sub                      76494  9.1    3.255    3.281    3.255    3.281
 mp_alltoall_d11v                373692  9.5    2.948    3.203    2.948    3.203
 write_kpoints_restart               27  5.0    0.019    0.031    2.817    2.818
 dbcsr_merge_all                  58064 10.3    1.211    1.595    2.189    2.583
 qs_energies_init_hamiltonians        1  3.0    0.000    0.000    2.318    2.318
 hybrid_alltoall_any              72494  8.7    0.286    0.318    2.098    2.291
 dbcsr_dot                       107893  8.0    0.466    0.742    2.076    2.200
 mp_sum_d                        108527  9.0    1.629    1.900    1.629    1.900
 build_core_hamiltonian_matrix        1  4.0    0.007    0.007    0.448    1.865
 mp_cart_create                   38252  9.1    1.792    1.856    1.792    1.856
 qs_env_update_s_mstruct              1  4.0    0.000    0.000    1.524    1.798
 calculate_rho_core                   1  5.0    0.001    0.003    1.429    1.778
 mp_alltoall_i11v                228704  9.1    1.594    1.678    1.594    1.678
 init_scf_run                         1  3.0    0.000    0.000    1.529    1.652
 scf_env_initial_rho_setup            1  4.0    0.000    0.000    1.529    1.652
 evaluate_core_matrix_traces         27  6.0    0.000    0.000    1.623    1.623
 calculate_ptrace_kp                 54  7.0    0.078    0.079    1.623    1.623
 mp_allgather_i                   82944  8.3    1.490    1.583    1.490    1.583
 dbcsr_work_create               130558  8.9    0.722    0.824    1.223    1.457
 dbcsr_create_new                334577  7.9    1.031    1.128    1.278    1.394
 dbcsr_copy                      129708  6.8    0.708    0.828    1.097    1.374
 dbcsr_iterator_start            508669  8.9    0.995    1.033    1.132    1.202
 self_consistency_check              27  5.0    0.075    0.077    1.088    1.137
 mp_bcast_iv                     165915  8.3    0.995    1.136    0.995    1.136
 dbcsr_data_new                 1432930  9.7    0.891    1.074    0.891    1.074
 cp_fm_write_unformatted           3996  6.0    0.781    0.970    0.790    1.010
 cp_sm_mix                        53946  6.0    0.154    0.300    0.932    0.994
 cp_cfm_gemm                       7872  8.4    0.925    0.948    0.925    0.948
 dbcsr_work_destroy_all          130558  9.9    0.588    0.630    0.886    0.948
 build_core_ppnl                      2  6.0    0.253    0.932    0.253    0.932
 dbcsr_add_d                       5994  7.0    0.006    0.006    0.382    0.852
 dbcsr_add_anytype                 5994  8.0    0.021    0.071    0.376    0.845
 copy_dbcsr_to_fm_bc              38246  8.1    0.368    0.378    0.817    0.831
 tree_to_linear_d                 52070 11.3    0.775    0.798    0.775    0.798
 dbcsr_iterator_stop             508669  8.9    0.625    0.663    0.733    0.772
 dbcsr_data_release             2086587 10.1    0.701    0.766    0.701    0.766
 mp_max_d                         53948  7.0    0.649    0.747    0.649    0.747
 dbcsr_destroy                   220691  7.8    0.348    0.376    0.673    0.728
 parallel_gemm_cfm                 3300  7.0    0.003    0.003    0.677    0.699
 parallel_gemm_cfm_gemm            3300  8.0    0.003    0.004    0.673    0.696
 mixing_allocate                      1  3.0    0.011    0.012    0.164    0.695
 calculate_first_density_matrix       1  5.0    0.001    0.001    0.540    0.662
 calculate_atomic_block_dm            1  6.0    0.001    0.001    0.535    0.659
 copy_fm_to_dbcsr_bc              13824  9.0    0.177    0.196    0.593    0.656
 kpoint_set_mo_occupation            27  7.0    0.497    0.511    0.517    0.529
 add_to_DOS_PDOS                   1320  6.5    0.492    0.495    0.492    0.495
 fft_wrap_pw1pw2                    491 10.0    0.004    0.004    0.451    0.483
 dbcsr_set                       214299  7.5    0.189    0.197    0.290    0.453
 fft_wrap_pw1pw2_500                326 11.3    0.028    0.029    0.412    0.445
 quick_finalize                   72494  9.7    0.188    0.252    0.308    0.421
 dbcsr_reserve_blocks             48558  8.4    0.137    0.374    0.157    0.416
 fft3d_ps                           491 12.0    0.154    0.158    0.369    0.401
 calculate_ecore_overlap              1  4.0    0.000    0.000    0.325    0.401
 build_overlap_matrix_low             1  5.0    0.023    0.064    0.096    0.393
 build_kinetic_matrix_low             1  5.0    0.022    0.063    0.095    0.392
 build_core_ppl                       1  5.0    0.073    0.385    0.073    0.385
 mp_comm_free                    115435  9.0    0.338    0.366    0.338    0.366
 dbcsr_copy_into_existing         15822  9.5    0.119    0.257    0.206    0.348
 qs_env_rebuild_rho                   1  5.0    0.000    0.000    0.080    0.339
 qs_rho_rebuild                       1  6.0    0.005    0.006    0.080    0.339
 qs_scf_ensure_work_matrices          1  3.0    0.000    0.000    0.260    0.321
 mp_bcast_im                      82944  8.3    0.237    0.300    0.237    0.300
 mp_waitall_1                    171835  8.4    0.143    0.286    0.143    0.286
 qs_vxc_create                       27  8.0    0.000    0.000    0.278    0.278
 xc_vxc_pw_create                    27  9.0    0.012    0.012    0.277    0.278
 compute_proj_mo_on_kind            660  6.0    0.013    0.014    0.232    0.258
 dbcsr_zero                      214299  8.5    0.101    0.257    0.101    0.257
 gspace_mixing                       26  5.0    0.010    0.010    0.249    0.249
 potential_pw2rs                     27 10.0    0.001    0.001    0.215    0.246
 dbcsr_scale_anytype               5995  9.0    0.043    0.052    0.214    0.236
 add_cfm_submat                    5280  7.0    0.044    0.046    0.222    0.227
 cp_fm_finish_copy_general        17280  7.8    0.169    0.191    0.191    0.225
 mp_alltoall_z22v                   491 14.0    0.177    0.209    0.177    0.209
 broyden_mixing                      26  6.0    0.200    0.204    0.206    0.207
 kpoint_density_matrices             27  7.0    0.011    0.012    0.169    0.206
 parallel_gemm_fm                  3456  8.0    0.003    0.003    0.154    0.191
 parallel_gemm_fm_gemm             3456  9.0    0.003    0.003    0.151    0.188
 cp_fm_gemm                        3456 10.0    0.148    0.185    0.148    0.185
 dbcsr_iterator_seek             508669  9.9    0.136    0.184    0.136    0.184
 xc_pw_derive                       162 11.0    0.000    0.000    0.172    0.175
 dbcsr_make_index_exist          334577  8.9    0.154    0.171    0.154    0.171
 dbcsr_sort_indices              173122 10.9    0.091    0.169    0.091    0.169
 yz_to_x                            221 12.8    0.012    0.012    0.118    0.153
 xc_rho_set_and_dset_create          27 10.0    0.008    0.009    0.150    0.151
 transfer_pw2rs                     109 11.0    0.001    0.001    0.120    0.120
 cp_fm_to_fm_submat               10560  8.0    0.115    0.116    0.115    0.116
 xc_pw_divergence                    27 10.0    0.000    0.000    0.113    0.116
 merge_index                      58064 11.3    0.094    0.114    0.094    0.114
 parser_read_line                  7988  4.0    0.003    0.003    0.109    0.112
 parser_read_line_low                26  6.1    0.011    0.049    0.106    0.109
 dbcsr_reserve_all_blocks         13824 10.0    0.020    0.025    0.093    0.108
 broadcast_input_information         26  7.1    0.028    0.033    0.095    0.104
 write_SOC_eigenvalues              148  6.0    0.013    0.102    0.013    0.102
 x_to_yz                            270 13.2    0.022    0.023    0.092    0.094
 transfer_pw2rs_500                  28 11.9    0.048    0.053    0.087    0.089
 dbcsr_switch_data_area           72494 10.7    0.066    0.067    0.086    0.089
 create_qs_kind_set                   1  2.0    0.000    0.000    0.088    0.089
 read_qs_kind                         1  3.0    0.039    0.040    0.088    0.089
 mp_irecv_iv                     165888  8.3    0.010    0.082    0.010    0.082
 qs_create_task_list                  1  5.0    0.000    0.000    0.015    0.082
 generate_qs_task_list                1  6.0    0.012    0.066    0.015    0.082
 mp_isend_dv                      41472  8.3    0.067    0.075    0.067    0.075
 topology_control                     1  2.0    0.000    0.000    0.066    0.066
 scf_post_calculation_gpw             1  3.0    0.000    0.000    0.066    0.066
 write_available_results              1  4.0    0.000    0.000    0.066    0.066
 write_mo_free_results                1  5.0    0.001    0.001    0.066    0.066
 cp_fm_cleanup_copy_general       29376  7.1    0.038    0.041    0.057    0.061
 mp_isend_iv                      93312  8.3    0.015    0.058    0.015    0.058
 dbcsr_data_copy_aa2              52070 11.1    0.031    0.056    0.031    0.056
 mp_bcast_i_src                     104  8.1    0.045    0.053    0.045    0.053
 dbcsr_get_data_size_used        130558  9.9    0.042    0.051    0.042    0.051
 dbcsr_distribution_new           52072  8.6    0.039    0.050    0.039    0.050
 xc_functional_eval                  27 11.0    0.000    0.000    0.049    0.050
 pbe_lda_eval                        27 12.0    0.049    0.050    0.049    0.050
 mp_sum_dv                         1346  7.0    0.036    0.049    0.036    0.049
 dbcsr_make_dbcsr_index          179116 10.9    0.041    0.048    0.041    0.048
 read_cell_cif                        2  4.5    0.002    0.005    0.045    0.047
 cp_cfm_scale_and_add_fm          14016  7.8    0.040    0.041    0.040    0.041
 coordinate_control                   1  3.0    0.001    0.003    0.040    0.040
 coordinate_control_READ_COORDI       1  4.0    0.000    0.000    0.039    0.040
 mp_recv_dv                       11988  7.0    0.005    0.040    0.005    0.040
 read_coordinate_cif                  1  5.0    0.002    0.002    0.039    0.040
 mp_irecv_im2                     82944  8.3    0.005    0.040    0.005    0.040
 -------------------------------------------------------------------------------

 The number of warnings for this run is : 1
 
 -------------------------------------------------------------------------------
  **** **** ******  **  PROGRAM ENDED AT                 2025-08-07 19:31:31.732
 ***** ** ***  *** **   PROGRAM RAN ON                              i06r07c05s02
 **    ****   ******    PROGRAM RAN BY                                   di38fab
 ***** **    ** ** **   PROGRAM PROCESS ID                               2702963
  **** **  *******  **  PROGRAM STOPPED IN /hppfs/scratch/04/di38fab/09_GTH/Delt
                                           a_Set/Hf/aug-SZV-MOLOPT-GTH-tier-2/8x
                                           8x8
