He                                      
   1.00000000000000     
     2.926610    0.000000    0.000000
     1.463305    2.534519    0.000000
     0.000000    0.000000    4.779130
   He
     2
Direct
  0.000000  0.000000  0.000000
  0.333333  0.333333  0.500000
 
   36   36   60
  316.10      292.73      232.47      158.72      94.816      52.604      30.123      18.162      11.104      6.9331    
  4.3888      2.7802      1.7678      1.1523     0.77223     0.52224     0.36857     0.29882     0.28229     0.29882    
 0.36857     0.52224     0.77224      1.1523      1.7678      2.7802      4.3888      6.9331      11.104      18.162    
  30.123      52.604      94.816      158.72      232.47      292.73      292.73      251.03      184.76      117.75    
  67.436      37.960      22.693      13.824      8.5709      5.4127      3.4397      2.1821      1.4013     0.92864    
 0.62863     0.43171     0.32169     0.28156     0.28327     0.32396     0.43076     0.62608     0.92880      1.4040    
  2.1829      3.4374      5.4111      8.5726      13.826      22.694      37.960      67.438      117.75      184.75    
  251.02      292.73      232.47      184.76      126.77      76.997      44.358      26.573      16.351      10.161    
  6.4203      4.0995      2.6171      1.6747      1.0945     0.73584     0.50318     0.35885     0.28831     0.26943    
 0.28838     0.35886     0.50311     0.73582      1.0946      1.6747      2.6170      4.0995      6.4203      10.161    
  16.351      26.574      44.360      76.998      126.76      184.76      232.46      251.02      158.72      117.75    
  76.997      46.869      28.860      18.172      11.453      7.2974      4.6953      3.0248      1.9456      1.2660    
 0.84499     0.57523     0.40109     0.30323     0.26338     0.26219     0.30162     0.40171     0.57704     0.84494    
  1.2641      1.9450      3.0264      4.6967      7.2961      11.451      18.171      28.860      46.869      76.998    
  117.76      158.72      184.76      184.76      94.816      67.436      44.358      28.860      18.839      12.183    
  7.9006      5.1531      3.3632      2.1859      1.4252     0.94786     0.64557     0.44701     0.32318     0.26115    
 0.24379     0.26114     0.32318     0.44702     0.64557     0.94785      1.4252      2.1859      3.3633      5.1533    
  7.9006      12.182      18.837      28.858      44.358      67.439      94.820      117.76      126.77      117.76    
  52.604      37.960      26.573      18.172      12.183      8.1155      5.4007      3.5858      2.3674      1.5587    
  1.0368     0.70513     0.48965     0.34866     0.26552     0.22942     0.22999     0.26631     0.34839     0.48878    
 0.70512      1.0377      1.5590      2.3665      3.5850      5.4019      8.1180      12.184      18.170      26.570    
  37.957      52.603      67.441      77.003      77.003      67.441      30.123      22.693      16.351      11.453    
  7.9006      5.4007      3.6623      2.4630      1.6473      1.1056     0.75299     0.52303     0.37144     0.27529    
 0.22306     0.20677     0.22300     0.27529     0.37150     0.52303     0.75293      1.1056      1.6473      2.4628    
  3.6623      5.4013      7.9021      11.455      16.352      22.691      30.120      37.959      44.362      46.874    
  44.364      37.962      18.162      13.824      10.161      7.2974      5.1531      3.5858      2.4630      1.6775    
  1.1424     0.78510     0.54761     0.38886     0.28461     0.22184     0.19260     0.19241     0.22159     0.28470    
 0.38912     0.54756     0.78480      1.1424      1.6779      2.4627      3.5843      5.1514      7.2977      10.164    
  13.828      18.164      22.693      26.573      28.862      28.864      26.577      22.695      11.104      8.5709    
  6.4203      4.6953      3.3632      2.3674      1.6473      1.1424     0.79607     0.56049     0.40011     0.29197    
 0.22274     0.18451     0.17238     0.18452     0.22274     0.29196     0.40011     0.56052     0.79615      1.1425    
  1.6473      2.3668      3.3618      4.6939      6.4202      8.5730      11.107      13.829      16.353      18.173    
  18.840      18.173      16.353      13.827      6.9331      5.4127      4.0995      3.0248      2.1859      1.5587    
  1.1056     0.78510     0.56049     0.40382     0.29582     0.22405     0.18064     0.16042     0.16047     0.18069    
 0.22401     0.29579     0.40389     0.56048     0.78492      1.1057      1.5597      2.1873      3.0250      4.0973    
  5.4089      6.9304      8.5732      10.165      11.456      12.185      12.184      11.452      10.161      8.5727    
  4.3888      3.4397      2.6171      1.9456      1.4252      1.0368     0.75299     0.54761     0.40011     0.29582    
 0.22454     0.17914     0.15441     0.14667     0.15447     0.17915     0.22448     0.29580     0.40008     0.54746    
 0.75292      1.0374      1.4267      1.9471      2.6170      3.4376      4.3856      5.4088      6.4202      7.2979    
  7.9024      8.1184      7.9009      7.2963      6.4202      5.4110      2.7802      2.1821      1.6747      1.2660    
 0.94786     0.70513     0.52303     0.38886     0.29197     0.22405     0.17914     0.15263     0.14062     0.14061    
 0.15262     0.17915     0.22404     0.29199     0.38897     0.52300     0.70451     0.94675      1.2655      1.6760    
  2.1851      2.7827      3.4374      4.0970      4.6935      5.1511      5.4009      5.4016      5.1530      4.6963    
  4.0992      3.4372      1.7678      1.4013      1.0945     0.84499     0.64557     0.48965     0.37144     0.28461    
 0.22274     0.18064     0.15441     0.14062     0.13640     0.14060     0.15441     0.18067     0.22282     0.28475    
 0.37145     0.48905     0.64417     0.84354      1.0945      1.4034      1.7710      2.1849      2.6166      3.0244    
  3.3611      3.5835      3.6615      3.5843      3.3626      3.0259      2.6166      2.1827      1.1523     0.92864    
 0.73584     0.57523     0.44701     0.34866     0.27529     0.22184     0.18451     0.16042     0.14667     0.14061    
 0.14060     0.14668     0.16045     0.18449     0.22173     0.27527     0.34901     0.44771     0.57561     0.73504    
 0.92662      1.1502      1.4032      1.6756      1.9465      2.1865      2.3659      2.4617      2.4618      2.3655    
  2.1851      1.9443      1.6743      1.4038     0.77223     0.62863     0.50318     0.40109     0.32318     0.26552    
 0.22306     0.19260     0.17238     0.16047     0.15447     0.15262     0.15441     0.16045     0.17236     0.19244    
 0.22300     0.26613     0.32465     0.40254     0.50314     0.62650     0.76910     0.92642      1.0941      1.2649    
  1.4258      1.5587      1.6462      1.6767      1.6461      1.5580      1.4243      1.2635      1.0942     0.92859    
 0.52224     0.43171     0.35885     0.30323     0.26115     0.22942     0.20677     0.19241     0.18452     0.18069    
 0.17915     0.17915     0.18067     0.18449     0.19244     0.20686     0.22938     0.26088     0.30305     0.35932    
 0.43293     0.52354     0.62631     0.73465     0.84293     0.94593      1.0363      1.1045      1.1412      1.1411    
  1.1044      1.0367     0.94702     0.84433     0.73543     0.62589     0.36857     0.32169     0.28831     0.26338    
 0.24379     0.22999     0.22300     0.22159     0.22274     0.22401     0.22448     0.22404     0.22282     0.22173    
 0.22300     0.22938     0.24237     0.26194     0.28831     0.32383     0.37177     0.43275     0.50277     0.57503    
 0.64336     0.70347     0.75168     0.78353     0.79471     0.78341     0.75168     0.70408     0.64477     0.57646    
 0.50274     0.43058     0.29882     0.28156     0.26943     0.26219     0.26114     0.26631     0.27529     0.28470    
 0.29196     0.29579     0.29580     0.29199     0.28475     0.27527     0.26613     0.26088     0.26194     0.26913    
 0.28111     0.29834     0.32366     0.35896     0.40197     0.44691     0.48799     0.52166     0.54589     0.55878    
 0.55882     0.54599     0.52170     0.48772     0.44623     0.40115     0.35850     0.32379     0.28229     0.28327    
 0.28838     0.30162     0.32318     0.34839     0.37150     0.38912     0.40011     0.40389     0.40008     0.38897    
 0.37145     0.34901     0.32465     0.30305     0.28831     0.28111     0.27915     0.28093     0.28795     0.30249    
 0.32384     0.34789     0.36996     0.38713     0.39799     0.40170     0.39801     0.38728     0.37001     0.34727    
 0.32237     0.30106     0.28802     0.28309     0.29882     0.32396     0.35886     0.40171     0.44702     0.48878    
 0.52303     0.54756     0.56052     0.56048     0.54746     0.52300     0.48905     0.44771     0.40254     0.35932    
 0.32383     0.29834     0.28093     0.26877     0.26137     0.26004     0.26493     0.27359     0.28256     0.28935    
 0.29289     0.29288     0.28932     0.28251     0.27362     0.26510     0.26030     0.26162     0.26907     0.28138    
 0.36857     0.43076     0.50311     0.57704     0.64557     0.70512     0.75293     0.78480     0.79615     0.78492    
 0.75292     0.70451     0.64417     0.57561     0.50314     0.43293     0.37177     0.32366     0.28795     0.26137    
 0.24152     0.22811     0.22116     0.21920     0.21960     0.22029     0.22053     0.22026     0.21951     0.21906    
 0.22117     0.22872     0.24293     0.26281     0.28796     0.32152     0.52224     0.62608     0.73582     0.84494    
 0.94785      1.0377      1.1056      1.1424      1.1425      1.1057      1.0374     0.94675     0.84354     0.73504    
 0.62650     0.52354     0.43275     0.35896     0.30249     0.26004     0.22811     0.20495     0.18970     0.18080    
 0.17615     0.17413     0.17413     0.17617     0.18083     0.18966     0.20487     0.22815     0.26031     0.30267    
 0.35849     0.43153     0.77224     0.92880      1.0946      1.2641      1.4252      1.5590      1.6473      1.6779    
  1.6473      1.5597      1.4267      1.2655      1.0945     0.92662     0.76910     0.62631     0.50277     0.40197    
 0.32384     0.26493     0.22116     0.18970     0.16849     0.15546     0.14857     0.14647     0.14863     0.15548    
 0.16852     0.18985     0.22122     0.26432     0.32237     0.40053     0.50281     0.62844      1.1523      1.4040    
  1.6747      1.9450      2.1859      2.3665      2.4628      2.4627      2.3668      2.1873      1.9471      1.6760    
  1.4034      1.1502     0.92642     0.73465     0.57503     0.44691     0.34789     0.27359     0.21920     0.18080    
 0.15546     0.14054     0.13377     0.13378     0.14053     0.15543     0.18082     0.21931     0.27362     0.34754    
 0.44621     0.57466     0.73544     0.92844      1.7678      2.1829      2.6170      3.0264      3.3633      3.5850    
  3.6623      3.5843      3.3618      3.0250      2.6170      2.1851      1.7710      1.4032      1.0941     0.84293    
 0.64336     0.48799     0.36996     0.28256     0.21960     0.17615     0.14857     0.13377     0.12920     0.13379    
 0.14857     0.17612     0.21951     0.28242     0.36996     0.48859     0.64476     0.84438      1.0941      1.4011    
  2.7802      3.4374      4.0995      4.6967      5.1533      5.4019      5.4013      5.1514      4.6939      4.0973    
  3.4376      2.7827      2.1849      1.6756      1.2649     0.94593     0.70347     0.52166     0.38713     0.28935    
 0.22029     0.17413     0.14647     0.13378     0.13379     0.14648     0.17412     0.22030     0.28933     0.38702    
 0.52169     0.70409     0.94704      1.2654      1.6742      2.1819      4.3888      5.4111      6.4203      7.2961    
  7.9006      8.1180      7.9021      7.2977      6.4202      5.4089      4.3856      3.4374      2.6166      1.9465    
  1.4258      1.0363     0.75168     0.54589     0.39799     0.29289     0.22053     0.17413     0.14863     0.14053    
 0.14857     0.17412     0.22059     0.29291     0.39801     0.54604     0.75174      1.0357      1.4244      1.9450    
  2.6166      3.4395      6.9331      8.5726      10.161      11.451      12.182      12.184      11.455      10.164    
  8.5730      6.9304      5.4088      4.0970      3.0244      2.1865      1.5587      1.1045     0.78353     0.55878    
 0.40170     0.29288     0.22026     0.17617     0.15548     0.15543     0.17612     0.22030     0.29291     0.40162    
 0.55879     0.78371      1.1044      1.5577      2.1850      3.0242      4.0992      5.4126      11.104      13.826    
  16.351      18.171      18.837      18.170      16.352      13.828      11.107      8.5732      6.4202      4.6935    
  3.3611      2.3659      1.6462      1.1412     0.79471     0.55882     0.39801     0.28932     0.21951     0.18083    
 0.16852     0.18082     0.21951     0.28933     0.39801     0.55879     0.79462      1.1411      1.6462      2.3665    
  3.3625      4.6950      6.4203      8.5710      18.162      22.694      26.574      28.860      28.858      26.570    
  22.691      18.164      13.829      10.165      7.2979      5.1511      3.5835      2.4617      1.6767      1.1411    
 0.78341     0.54599     0.38728     0.28251     0.21906     0.18966     0.18985     0.21931     0.28242     0.38702    
 0.54604     0.78371      1.1411      1.6763      2.4619      3.5850      5.1528      7.2976      10.161      13.824    
  30.123      37.960      44.360      46.869      44.358      37.957      30.120      22.693      16.353      11.456    
  7.9024      5.4009      3.6615      2.4618      1.6461      1.1044     0.75168     0.52170     0.37001     0.27362    
 0.22117     0.20487     0.22122     0.27362     0.36996     0.52169     0.75174      1.1044      1.6462      2.4619    
  3.6616      5.4004      7.9009      11.454      16.353      22.695      52.604      67.438      76.998      76.998    
  67.439      52.603      37.959      26.573      18.173      12.185      8.1184      5.4016      3.5843      2.3655    
  1.5580      1.0367     0.70408     0.48772     0.34727     0.26510     0.22872     0.22815     0.26432     0.34754    
 0.48859     0.70409      1.0357      1.5577      2.3665      3.5850      5.4004      8.1160      12.184      18.174    
  26.576      37.962      94.816      117.75      126.76      117.76      94.820      67.441      44.362      28.862    
  18.840      12.184      7.9009      5.1530      3.3626      2.1851      1.4243     0.94702     0.64477     0.44623    
 0.32237     0.26030     0.24293     0.26031     0.32237     0.44621     0.64476     0.94704      1.4244      2.1850    
  3.3625      5.1528      7.9009      12.184      18.841      28.864      44.362      67.439      158.72      184.75    
  184.76      158.72      117.76      77.003      46.874      28.864      18.173      11.452      7.2963      4.6963    
  3.0259      1.9443      1.2635     0.84433     0.57646     0.40115     0.30106     0.26162     0.26281     0.30267    
 0.40053     0.57466     0.84438      1.2654      1.9450      3.0242      4.6950      7.2976      11.454      18.174    
  28.864      46.874      77.002      117.75      232.47      251.02      232.46      184.76      126.77      77.003    
  44.364      26.577      16.353      10.161      6.4202      4.0992      2.6166      1.6743      1.0942     0.73543    
 0.50274     0.35850     0.28802     0.26907     0.28796     0.35849     0.50281     0.73544      1.0941      1.6742    
  2.6166      4.0992      6.4203      10.161      16.353      26.576      44.362      77.002      126.77      184.76    
  292.73      292.73      251.02      184.76      117.76      67.441      37.962      22.695      13.827      8.5727    
  5.4110      3.4372      2.1827      1.4038     0.92859     0.62589     0.43058     0.32379     0.28309     0.28138    
 0.32152     0.43153     0.62844     0.92844      1.4011      2.1819      3.4395      5.4126      8.5710      13.824    
  22.695      37.962      67.439      117.75      184.76      251.03      293.62      271.91      215.96      147.64    
  88.619      49.737      28.914      17.555      10.790      6.7632      4.2936      2.7267      1.7369      1.1330    
 0.76085     0.51647     0.36470     0.29461     0.27874     0.29634     0.36470     0.51474     0.76083      1.1348    
  1.7369      2.7250      4.2936      6.7650      10.790      17.553      28.913      49.739      88.619      147.63    
  215.96      271.91      271.91      233.19      171.74      109.78      63.396      36.216      21.877      13.403    
  8.3476      5.2887      3.3697      2.1425      1.3776     0.91389     0.62050     0.42731     0.31778     0.27765    
 0.28045     0.32112     0.42525     0.61690     0.91520      1.3813      2.1421      3.3663      5.2884      8.3504    
  13.404      21.876      36.217      63.399      109.78      171.74      233.18      271.90      215.96      171.74    
  118.10      72.201      42.134      25.567      15.824      9.8818      6.2666      4.0121      2.5673      1.6457    
  1.0766     0.72521     0.49754     0.35499     0.28443     0.26624     0.28596     0.35500     0.49603     0.72521    
  1.0781      1.6457      2.5658      4.0120      6.2680      9.8817      15.822      25.568      42.137      72.202    
  118.10      171.74      215.96      233.18      147.64      109.78      72.201      44.451      27.726      17.564    
  11.126      7.1168      4.5918      2.9649      1.9110      1.2451     0.83203     0.56795     0.39692     0.29958    
 0.25992     0.25962     0.29889     0.39668     0.56884     0.83283      1.2441      1.9096      2.9656      4.5938    
  7.1163      11.123      17.562      27.728      44.452      72.201      109.78      147.64      171.74      171.74    
  88.619      63.396      42.134      27.726      18.200      11.828      7.7008      5.0371      3.2946      2.1457    
  1.4014     0.93309     0.63661     0.44194     0.31969     0.25784     0.24092     0.25867     0.31967     0.44109    
 0.63661     0.93395      1.4014      2.1449      3.2947      5.0380      7.7007      11.826      18.199      27.726    
  42.134      63.398      88.623      109.79      118.10      109.78      49.737      36.216      25.567      17.564    
  11.828      7.9089      5.2779      3.5115      2.3228      1.5322      1.0206     0.69503     0.48350     0.34473    
 0.26232     0.22649     0.22741     0.26343     0.34408     0.48228     0.69539      1.0219      1.5322      2.3216    
  3.5112      5.2794      7.9106      11.828      17.562      25.564      36.214      49.737      63.401      72.206    
  72.205      63.400      28.914      21.877      15.824      11.126      7.7008      5.2779      3.5862      2.4159    
  1.6187      1.0882     0.74212     0.51608     0.36684     0.27179     0.21995     0.20393     0.22019     0.27180    
 0.36662     0.51607     0.74233      1.0882      1.6184      2.4158      3.5865      5.2787      7.7019      11.127    
  15.823      21.874      28.910      36.215      42.137      44.455      42.138      36.217      17.555      13.403    
  9.8818      7.1168      5.0371      3.5115      2.4159      1.6482      1.1243     0.77371     0.54012     0.38366    
 0.28061     0.21833     0.18930     0.18921     0.21820     0.28064     0.38384     0.54016     0.77349      1.1242    
  1.6485      2.4158      3.5103      5.0357      7.1173      9.8849      13.406      17.556      21.875      25.565    
  27.727      27.729      25.569      21.878      10.790      8.3476      6.2666      4.5918      3.2946      2.3228    
  1.6187      1.1243     0.78451     0.55277     0.39453     0.28750     0.21873     0.18062     0.16852     0.18066    
 0.21873     0.28748     0.39455     0.55284     0.78459      1.1244      1.6186      2.3221      3.2933      4.5908    
  6.2673      8.3502      10.793      13.406      15.824      17.563      18.200      17.564      15.825      13.405    
  6.7632      5.2887      4.0121      2.9649      2.1457      1.5322      1.0882     0.77371     0.55277     0.39814    
 0.29110     0.21962     0.17613     0.15577     0.15582     0.17616     0.21954     0.29106     0.39824     0.55281    
 0.77358      1.0883      1.5330      2.1467      2.9647      4.0100      5.2857      6.7615      8.3501      9.8850    
  11.127      11.829      11.827      11.124      9.8818      8.3492      4.2936      3.3697      2.5673      1.9110    
  1.4014      1.0206     0.74212     0.54012     0.39453     0.29110     0.21994     0.17422     0.14909     0.14120    
 0.14917     0.17421     0.21983     0.29106     0.39456     0.54004     0.74216      1.0214      1.4028      1.9120    
  2.5665      3.3671      4.2907      5.2856      6.2670      7.1172      7.7021      7.9109      7.7005      7.1153    
  6.2664      5.2870      2.7267      2.1425      1.6457      1.2451     0.93309     0.69503     0.51608     0.38366    
 0.28750     0.21962     0.17422     0.14703     0.13459     0.13464     0.14709     0.17419     0.21955     0.28754    
 0.38377     0.51600     0.69458     0.93250      1.2451      1.6469      2.1447      2.7283      3.3669      4.0096    
  4.5903      5.0353      5.2781      5.2784      5.0366      4.5925      4.0117      3.3672      1.7369      1.3776    
  1.0766     0.83203     0.63661     0.48350     0.36684     0.28061     0.21873     0.17613     0.14909     0.13459    
 0.13017     0.13468     0.14912     0.17610     0.21881     0.28077     0.36670     0.48268     0.63529     0.83116    
  1.0773      1.3801      1.7399      2.1445      2.5661      2.9640      3.2925      3.5094      3.5853      3.5099    
  3.2939      2.9659      2.5668      2.1430      1.1330     0.91389     0.72521     0.56795     0.44194     0.34473    
 0.27179     0.21833     0.18062     0.15577     0.14120     0.13464     0.13468     0.14126     0.15577     0.18059    
 0.21832     0.27180     0.34483     0.44215     0.56797     0.72454     0.91255      1.1319      1.3799      1.6465    
  1.9113      2.1458      2.3211      2.4147      2.4147      2.3209      2.1449      1.9097      1.6452      1.3798    
 0.76085     0.62050     0.49754     0.39692     0.31969     0.26232     0.21995     0.18930     0.16852     0.15582    
 0.14917     0.14709     0.14912     0.15577     0.16845     0.18920     0.22006     0.26307     0.32103     0.39787    
 0.49680     0.61790     0.75788     0.91235      1.0769      1.2444      1.4019      1.5319      1.6174      1.6473    
  1.6175      1.5315      1.4006      1.2426      1.0762     0.91379     0.51647     0.42731     0.35499     0.29958    
 0.25784     0.22649     0.20393     0.18921     0.18066     0.17616     0.17421     0.17419     0.17610     0.18059    
 0.18920     0.20402     0.22664     0.25800     0.29981     0.35540     0.42785     0.51682     0.61769     0.72406    
 0.83043     0.93159      1.0203      1.0871      1.1231      1.1230      1.0870      1.0205     0.93222     0.83134    
 0.72477     0.61785     0.36470     0.31778     0.28443     0.25992     0.24092     0.22741     0.22019     0.21820    
 0.21873     0.21954     0.21983     0.21955     0.21881     0.21832     0.22006     0.22664     0.23960     0.25899    
 0.28515     0.32036     0.36769     0.42766     0.49636     0.56727     0.63442     0.69356     0.74095     0.77223    
 0.78321     0.77209     0.74082     0.69392     0.63573     0.56903     0.49706     0.42619     0.29461     0.27765    
 0.26624     0.25962     0.25867     0.26343     0.27180     0.28064     0.28748     0.29106     0.29106     0.28754    
 0.28077     0.27180     0.26307     0.25800     0.25899     0.26599     0.27783     0.29502     0.32018     0.35499    
 0.39722     0.44131     0.48168     0.51481     0.53866     0.55134     0.55137     0.53872     0.51482     0.48158    
 0.44108     0.39688     0.35457     0.31971     0.27874     0.28045     0.28596     0.29889     0.31967     0.34408    
 0.36662     0.38384     0.39455     0.39824     0.39456     0.38377     0.36670     0.34483     0.32103     0.29981    
 0.28515     0.27783     0.27580     0.27763     0.28473     0.29917     0.32021     0.34381     0.36547     0.38234    
 0.39304     0.39670     0.39306     0.38253     0.36566     0.34341     0.31883     0.29743     0.28407     0.27906    
 0.29634     0.32112     0.35500     0.39668     0.44109     0.48228     0.51607     0.54016     0.55284     0.55281    
 0.54004     0.51600     0.48268     0.44215     0.39787     0.35540     0.32036     0.29502     0.27763     0.26555    
 0.25833     0.25717     0.26204     0.27053     0.27930     0.28598     0.28946     0.28944     0.28596     0.27932    
 0.27057     0.26201     0.25699     0.25817     0.26582     0.27861     0.36470     0.42525     0.49603     0.56884    
 0.63661     0.69539     0.74233     0.77349     0.78459     0.77358     0.74216     0.69458     0.63529     0.56797    
 0.49680     0.42785     0.36769     0.32018     0.28473     0.25833     0.23875     0.22562     0.21880     0.21683    
 0.21721     0.21790     0.21812     0.21783     0.21714     0.21670     0.21867     0.22597     0.24007     0.26013    
 0.28547     0.31873     0.51474     0.61690     0.72521     0.83283     0.93395      1.0219      1.0882      1.1242    
  1.1244      1.0883      1.0214     0.93250     0.83116     0.72454     0.61790     0.51682     0.42766     0.35499    
 0.29917     0.25717     0.22562     0.20278     0.18774     0.17897     0.17439     0.17237     0.17235     0.17437    
 0.17900     0.18768     0.20267     0.22581     0.25785     0.29979     0.35456     0.42591     0.76083     0.91520    
  1.0781      1.2441      1.4014      1.5322      1.6184      1.6485      1.6186      1.5330      1.4028      1.2451    
  1.0773     0.91255     0.75788     0.61769     0.49636     0.39722     0.32021     0.26204     0.21880     0.18774    
 0.16683     0.15398     0.14718     0.14509     0.14722     0.15399     0.16686     0.18792     0.21899     0.26165    
 0.31884     0.39545     0.49566     0.61910      1.1348      1.3813      1.6457      1.9096      2.1449      2.3216    
  2.4158      2.4158      2.3221      2.1467      1.9120      1.6469      1.3801      1.1319     0.91235     0.72406    
 0.56727     0.44131     0.34381     0.27053     0.21683     0.17897     0.15398     0.13925     0.13257     0.13259    
 0.13926     0.15394     0.17900     0.21700     0.27057     0.34329     0.44023     0.56650     0.72479     0.91482    
  1.7369      2.1421      2.5658      2.9656      3.2947      3.5112      3.5865      3.5103      3.2933      2.9647    
  2.5665      2.1447      1.7399      1.3799      1.0769     0.83043     0.63442     0.48168     0.36547     0.27930    
 0.21721     0.17439     0.14718     0.13257     0.12808     0.13262     0.14718     0.17432     0.21714     0.27917    
 0.36533     0.48202     0.63573     0.83223      1.0776      1.3785      2.7250      3.3663      4.0120      4.5938    
  5.0380      5.2794      5.2787      5.0357      4.5908      4.0100      3.3671      2.7283      2.1445      1.6465    
  1.2444     0.93159     0.69356     0.51481     0.38234     0.28598     0.21790     0.17237     0.14509     0.13259    
 0.13262     0.14512     0.17234     0.21788     0.28596     0.38222     0.51481     0.69429     0.93307      1.2453    
  1.6452      2.1411      4.2936      5.2884      6.2680      7.1163      7.7007      7.9106      7.7019      7.1173    
  6.2673      5.2857      4.2907      3.3669      2.5661      1.9113      1.4019      1.0203     0.74095     0.53866    
 0.39304     0.28946     0.21812     0.17235     0.14722     0.13926     0.14718     0.17234     0.21815     0.28947    
 0.39307     0.53883     0.74114      1.0199      1.4006      1.9095      2.5654      3.3683      6.7650      8.3504    
  9.8817      11.123      11.826      11.828      11.127      9.8849      8.3502      6.7615      5.2856      4.0096    
  2.9640      2.1458      1.5319      1.0871     0.77223     0.55134     0.39670     0.28944     0.21783     0.17437    
 0.15399     0.15394     0.17432     0.21788     0.28947     0.39663     0.55137     0.77244      1.0870      1.5308    
  2.1440      2.9634      4.0117      5.2897      10.790      13.404      15.822      17.562      18.199      17.562    
  15.823      13.406      10.793      8.3501      6.2670      4.5903      3.2925      2.3211      1.6174      1.1231    
 0.78321     0.55137     0.39306     0.28596     0.21714     0.17900     0.16686     0.17900     0.21714     0.28596    
 0.39307     0.55137     0.78313      1.1229      1.6173      2.3214      3.2938      4.5920      6.2678      8.3488    
  17.553      21.876      25.568      27.728      27.726      25.564      21.874      17.556      13.406      9.8850    
  7.1172      5.0353      3.5094      2.4147      1.6473      1.1230     0.77209     0.53872     0.38253     0.27932    
 0.21670     0.18768     0.18792     0.21700     0.27917     0.38222     0.53883     0.77244      1.1229      1.6469    
  2.4149      3.5111      5.0372      7.1173      9.8820      13.402      28.913      36.217      42.137      44.452    
  42.134      36.214      28.910      21.875      15.824      11.127      7.7021      5.2781      3.5853      2.4147    
  1.6175      1.0870     0.74082     0.51482     0.36566     0.27057     0.21867     0.20267     0.21899     0.27057    
 0.36533     0.51481     0.74114      1.0870      1.6173      2.4149      3.5858      5.2777      7.7004      11.126    
  15.823      21.876      49.739      63.399      72.202      72.201      63.398      49.737      36.215      25.565    
  17.563      11.829      7.9109      5.2784      3.5099      2.3209      1.5315      1.0205     0.69392     0.48158    
 0.34341     0.26201     0.22597     0.22581     0.26165     0.34329     0.48202     0.69429      1.0199      1.5308    
  2.3214      3.5111      5.2777      7.9080      11.827      17.565      25.569      36.218      88.619      109.78    