He                                      
   1.00000000000000     
     2.926610    0.000000    0.000000
     1.463305    2.534519    0.000000
     0.000000    0.000000    4.779130
   He
     2
Direct
  0.000000  0.000000  0.000000
  0.333333  0.333333  0.500000
 
   36   36   60
 0.31609643307E+03 0.29273142212E+03 0.23246765118E+03 0.15871585675E+03 0.94815554696E+02
 0.52603938247E+02 0.30123143048E+02 0.18162218506E+02 0.11104300262E+02 0.69331437253E+01
 0.43887949463E+01 0.27801666965E+01 0.17678135478E+01 0.11522807542E+01 0.77223475267E+00
 0.52223721561E+00 0.36857492696E+00 0.29882233028E+00 0.28229479031E+00 0.29882195958E+00
 0.36857482596E+00 0.52223759567E+00 0.77223506289E+00 0.11522805991E+01 0.17678132375E+01
 0.27801665456E+01 0.43887947312E+01 0.69331434222E+01 0.11104300675E+02 0.18162220189E+02
 0.30123144894E+02 0.52603938315E+02 0.94815552685E+02 0.15871585459E+03 0.23246765063E+03
 0.29273142264E+03 0.29273142212E+03 0.25103368753E+03 0.18476176131E+03 0.11775144965E+03
 0.67435934726E+02 0.37960001334E+02 0.22693417178E+02 0.13823863851E+02 0.85708818316E+01
 0.54126878413E+01 0.34397216871E+01 0.21821224350E+01 0.14013266476E+01 0.92864038402E+00
 0.62862935533E+00 0.43170538132E+00 0.32169043834E+00 0.28155945933E+00 0.28326740670E+00
 0.32396201446E+00 0.43075613346E+00 0.62607529187E+00 0.92879626230E+00 0.14039914653E+01
 0.21829152969E+01 0.34373743345E+01 0.54110840952E+01 0.85725702800E+01 0.13826160178E+02
 0.22693605414E+02 0.37960210557E+02 0.67438460831E+02 0.11775224651E+03 0.18475479969E+03
 0.25102154342E+03 0.29272520798E+03 0.23246765118E+03 0.18476176131E+03 0.12676549284E+03
 0.76997088646E+02 0.44358173383E+02 0.26573136607E+02 0.16351482641E+02 0.10160793142E+02
 0.64202785424E+01 0.40995161026E+01 0.26170528933E+01 0.16746599587E+01 0.10945010951E+01
 0.73583530606E+00 0.50317746850E+00 0.35884936153E+00 0.28831490222E+00 0.26943009870E+00
 0.28838251334E+00 0.35885724233E+00 0.50311180252E+00 0.73582286502E+00 0.10945676693E+01
 0.16746793956E+01 0.26169887816E+01 0.40994757151E+01 0.64202522799E+01 0.10160665317E+02
 0.16351494101E+02 0.26573906130E+02 0.44359706558E+02 0.76997985565E+02 0.12676401131E+03
 0.18475806640E+03 0.23246441023E+03 0.25102247041E+03 0.15871585675E+03 0.11775144965E+03
 0.76997088646E+02 0.46868940083E+02 0.28859949357E+02 0.18172116684E+02 0.11453158918E+02
 0.72974383022E+01 0.46953375022E+01 0.30247519811E+01 0.19456202274E+01 0.12660367939E+01
 0.84499147331E+00 0.57523471200E+00 0.40108569756E+00 0.30322664746E+00 0.26338147544E+00
 0.26219101967E+00 0.30162235799E+00 0.40171489549E+00 0.57703857262E+00 0.84493907685E+00
 0.12641373378E+01 0.19449555261E+01 0.30264486355E+01 0.46966774552E+01 0.72961142393E+01
 0.11450699759E+02 0.18171163653E+02 0.28860337410E+02 0.46869184898E+02 0.76998265788E+02
 0.11775599623E+03 0.15872246566E+03 0.18476018312E+03 0.18475691765E+03 0.94815554696E+02
 0.67435934726E+02 0.44358173383E+02 0.28859949357E+02 0.18838658253E+02 0.12182849735E+02
 0.79005804696E+01 0.51531409356E+01 0.33632120456E+01 0.21858576123E+01 0.14251899992E+01
 0.94786299344E+00 0.64557320355E+00 0.44701112436E+00 0.32318156040E+00 0.26115255613E+00
 0.24378940600E+00 0.26114139149E+00 0.32318084279E+00 0.44702199563E+00 0.64557438096E+00
 0.94785037887E+00 0.14251834245E+01 0.21858827363E+01 0.33633076493E+01 0.51533069299E+01
 0.79005909962E+01 0.12182210471E+02 0.18837116089E+02 0.28858273319E+02 0.44358111188E+02
 0.67438752228E+02 0.94820333938E+02 0.11775880699E+03 0.12676802367E+03 0.11775505893E+03
 0.52603938247E+02 0.37960001334E+02 0.26573136607E+02 0.18172116684E+02 0.12182849735E+02
 0.81155457146E+01 0.54006582377E+01 0.35857621485E+01 0.23674256591E+01 0.15586850143E+01
 0.10367754549E+01 0.70512590923E+00 0.48965339877E+00 0.34866163529E+00 0.26552456330E+00
 0.22942102307E+00 0.22998773807E+00 0.26630647516E+00 0.34839106305E+00 0.48878165986E+00
 0.70512083023E+00 0.10377219973E+01 0.15590480160E+01 0.23664996843E+01 0.35850473286E+01
 0.54018684284E+01 0.81179902604E+01 0.12183942678E+02 0.18170371990E+02 0.26569742393E+02
 0.37957289156E+02 0.52603037055E+02 0.67441466087E+02 0.77002928347E+02 0.77002647980E+02
 0.67441174171E+02 0.30123143048E+02 0.22693417178E+02 0.16351482641E+02 0.11453158918E+02
 0.79005804696E+01 0.54006582377E+01 0.36623384790E+01 0.24629528545E+01 0.16472984609E+01
 0.11055934308E+01 0.75298747135E+00 0.52302633405E+00 0.37144207660E+00 0.27529461901E+00
 0.22306144549E+00 0.20677022913E+00 0.22300338346E+00 0.27529098600E+00 0.37150113962E+00
 0.52303480624E+00 0.75292881212E+00 0.11055659495E+01 0.16472735660E+01 0.24628025153E+01
 0.36622617085E+01 0.54012533374E+01 0.79020791987E+01 0.11454688887E+02 0.16351570007E+02
 0.22691413558E+02 0.30119911996E+02 0.37959346593E+02 0.44362144516E+02 0.46874037715E+02
 0.44363736544E+02 0.37962264126E+02 0.18162218506E+02 0.13823863851E+02 0.10160793142E+02
 0.72974383022E+01 0.51531409356E+01 0.35857621485E+01 0.24629528545E+01 0.16775241701E+01
 0.11423848392E+01 0.78509948737E+00 0.54760502960E+00 0.38886025705E+00 0.28460966765E+00
 0.22183718161E+00 0.19259539429E+00 0.19241004927E+00 0.22158569340E+00 0.28470188453E+00
 0.38912255938E+00 0.54755897784E+00 0.78480006762E+00 0.11423989199E+01 0.16778931896E+01
 0.24627440421E+01 0.35842707204E+01 0.51513887668E+01 0.72976959257E+01 0.10164092301E+02
 0.13828251708E+02 0.18164148478E+02 0.22692670360E+02 0.26572503796E+02 0.28862069275E+02
 0.28864130695E+02 0.26576662409E+02 0.22694858969E+02 0.11104300262E+02 0.85708818316E+01
 0.64202785424E+01 0.46953375022E+01 0.33632120456E+01 0.23674256591E+01 0.16472984609E+01
 0.11423848392E+01 0.79606683241E+00 0.56048839076E+00 0.40010778215E+00 0.29197199070E+00
 0.22273974821E+00 0.18451269330E+00 0.17238442200E+00 0.18452255402E+00 0.22273691307E+00
 0.29195913968E+00 0.40010882921E+00 0.56051730936E+00 0.79615157092E+00 0.11425349848E+01
 0.16473072230E+01 0.23668244243E+01 0.33617969614E+01 0.46938682254E+01 0.64202298714E+01
 0.85729952847E+01 0.11107461267E+02 0.13828848011E+02 0.16353064570E+02 0.18172694760E+02
 0.18839776813E+02 0.18173486902E+02 0.16352989560E+02 0.13826757172E+02 0.69331437253E+01
 0.54126878413E+01 0.40995161026E+01 0.30247519811E+01 0.21858576123E+01 0.15586850143E+01
 0.11055934308E+01 0.78509948737E+00 0.56048839076E+00 0.40381675244E+00 0.29581883964E+00
 0.22405480706E+00 0.18064018680E+00 0.16041712351E+00 0.16046773606E+00 0.18069044389E+00
 0.22400838328E+00 0.29579128565E+00 0.40389129602E+00 0.56047775307E+00 0.78491711003E+00
 0.11057197883E+01 0.15596966578E+01 0.21873000810E+01 0.30249977372E+01 0.40973273522E+01
 0.54089010835E+01 0.69303736460E+01 0.85731582825E+01 0.10164649061E+02 0.11455724377E+02
 0.12185309337E+02 0.12183580669E+02 0.11451742538E+02 0.10161227233E+02 0.85727345612E+01
 0.43887949463E+01 0.34397216871E+01 0.26170528933E+01 0.19456202274E+01 0.14251899992E+01
 0.10367754549E+01 0.75298747135E+00 0.54760502960E+00 0.40010778215E+00 0.29581883964E+00
 0.22453873845E+00 0.17914018123E+00 0.15440783553E+00 0.14667393702E+00 0.15446701655E+00
 0.17914509711E+00 0.22448091816E+00 0.29579507931E+00 0.40008340384E+00 0.54745800233E+00
 0.75292072102E+00 0.10373692204E+01 0.14266566479E+01 0.19470847108E+01 0.26170303646E+01
 0.34375854092E+01 0.43856374157E+01 0.54088271100E+01 0.64202177736E+01 0.72978512132E+01
 0.79024114575E+01 0.81183992034E+01 0.79009265637E+01 0.72962732321E+01 0.64202418597E+01
 0.54110101739E+01 0.27801666965E+01 0.21821224350E+01 0.16746599587E+01 0.12660367939E+01
 0.94786299344E+00 0.70512590923E+00 0.52302633405E+00 0.38886025705E+00 0.29197199070E+00
 0.22405480706E+00 0.17914018123E+00 0.15262923538E+00 0.14061761268E+00 0.14060740204E+00
 0.15262256801E+00 0.17914571967E+00 0.22404396638E+00 0.29199084898E+00 0.38896895528E+00
 0.52299726518E+00 0.70451091556E+00 0.94675055075E+00 0.12655475996E+01 0.16760407906E+01
 0.21851112060E+01 0.27827418659E+01 0.34374078936E+01 0.40970303093E+01 0.46935250165E+01
 0.51510560976E+01 0.54009440685E+01 0.54015577095E+01 0.51529710052E+01 0.46963314864E+01
 0.40991778482E+01 0.34371973266E+01 0.17678135478E+01 0.14013266476E+01 0.10945010951E+01
 0.84499147331E+00 0.64557320355E+00 0.48965339877E+00 0.37144207660E+00 0.28460966765E+00
 0.22273974821E+00 0.18064018680E+00 0.15440783553E+00 0.14061761268E+00 0.13640386192E+00
 0.14060284698E+00 0.15440855133E+00 0.18067169327E+00 0.22282304580E+00 0.28475352136E+00
 0.37144610439E+00 0.48905228787E+00 0.64416629086E+00 0.84354152025E+00 0.10944698982E+01
 0.14034453525E+01 0.17710120428E+01 0.21849038366E+01 0.26166277346E+01 0.30244310123E+01
 0.33611148891E+01 0.35835254163E+01 0.36614963449E+01 0.35842996658E+01 0.33626225334E+01
 0.30258800944E+01 0.26165861339E+01 0.21827087036E+01 0.11522807542E+01 0.92864038402E+00
 0.73583530606E+00 0.57523471200E+00 0.44701112436E+00 0.34866163529E+00 0.27529461901E+00
 0.22183718161E+00 0.18451269330E+00 0.16041712351E+00 0.14667393702E+00 0.14060740204E+00
 0.14060284698E+00 0.14668296803E+00 0.16044681492E+00 0.18449237095E+00 0.22172731622E+00
 0.27526724330E+00 0.34901192705E+00 0.44770868630E+00 0.57561429046E+00 0.73504129449E+00
 0.92662286483E+00 0.11502312866E+01 0.14032369384E+01 0.16756193273E+01 0.19464543512E+01
 0.21864844427E+01 0.23658707113E+01 0.24617170802E+01 0.24617754409E+01 0.23655461739E+01
 0.21850681819E+01 0.19443264161E+01 0.16742582113E+01 0.14037826009E+01 0.77223475267E+00
 0.62862935533E+00 0.50317746850E+00 0.40108569756E+00 0.32318156040E+00 0.26552456330E+00
 0.22306144549E+00 0.19259539429E+00 0.17238442200E+00 0.16046773606E+00 0.15446701655E+00
 0.15262256801E+00 0.15440855133E+00 0.16044681492E+00 0.17235721789E+00 0.19244335141E+00
 0.22300167607E+00 0.26613402317E+00 0.32465182256E+00 0.40253578242E+00 0.50314085779E+00
 0.62649806490E+00 0.76910142007E+00 0.92642153949E+00 0.10940580262E+01 0.12649195226E+01
 0.14258182430E+01 0.15586765263E+01 0.16461622002E+01 0.16767032934E+01 0.16461281751E+01
 0.15580280625E+01 0.14243459422E+01 0.12635098354E+01 0.10941551796E+01 0.92859384629E+00
 0.52223721561E+00 0.43170538132E+00 0.35884936153E+00 0.30322664746E+00 0.26115255613E+00
 0.22942102307E+00 0.20677022913E+00 0.19241004927E+00 0.18452255402E+00 0.18069044389E+00
 0.17914509711E+00 0.17914571967E+00 0.18067169327E+00 0.18449237095E+00 0.19244335141E+00
 0.20685724332E+00 0.22937793597E+00 0.26088279556E+00 0.30305017391E+00 0.35931694580E+00
 0.43292904133E+00 0.52353659994E+00 0.62630775421E+00 0.73464804899E+00 0.84293455891E+00
 0.94592583744E+00 0.10363392941E+01 0.11045251105E+01 0.11412475164E+01 0.11411114470E+01
 0.11043707652E+01 0.10366904446E+01 0.94702343564E+00 0.84433060813E+00 0.73542939999E+00
 0.62588521694E+00 0.36857492696E+00 0.32169043834E+00 0.28831490222E+00 0.26338147544E+00
 0.24378940600E+00 0.22998773807E+00 0.22300338346E+00 0.22158569340E+00 0.22273691307E+00
 0.22400838328E+00 0.22448091816E+00 0.22404396638E+00 0.22282304580E+00 0.22172731622E+00
 0.22300167607E+00 0.22937793597E+00 0.24237459248E+00 0.26193857766E+00 0.28831097220E+00
 0.32383371321E+00 0.37176994428E+00 0.43274963092E+00 0.50276952256E+00 0.57503334386E+00
 0.64335943792E+00 0.70347419317E+00 0.75167665778E+00 0.78352549382E+00 0.79470641020E+00
 0.78340893781E+00 0.75168466843E+00 0.70408285095E+00 0.64476595454E+00 0.57645720068E+00
 0.50274150017E+00 0.43057794312E+00 0.29882233028E+00 0.28155945933E+00 0.26943009870E+00
 0.26219101967E+00 0.26114139149E+00 0.26630647516E+00 0.27529098600E+00 0.28470188453E+00
 0.29195913968E+00 0.29579128565E+00 0.29579507931E+00 0.29199084898E+00 0.28475352136E+00
 0.27526724330E+00 0.26613402317E+00 0.26088279556E+00 0.26193857766E+00 0.26913124440E+00
 0.28110780395E+00 0.29834352306E+00 0.32365848260E+00 0.35895930947E+00 0.40197425154E+00
 0.44690997548E+00 0.48798634135E+00 0.52166038512E+00 0.54589356907E+00 0.55878179359E+00
 0.55882121531E+00 0.54599451600E+00 0.52169869152E+00 0.48771745259E+00 0.44622538371E+00
 0.40115496853E+00 0.35850038371E+00 0.32378708999E+00 0.28229479031E+00 0.28326740670E+00
 0.28838251334E+00 0.30162235799E+00 0.32318084279E+00 0.34839106305E+00 0.37150113962E+00
 0.38912255938E+00 0.40010882921E+00 0.40389129602E+00 0.40008340384E+00 0.38896895528E+00
 0.37144610439E+00 0.34901192705E+00 0.32465182256E+00 0.30305017391E+00 0.28831097220E+00
 0.28110780395E+00 0.27915238228E+00 0.28093113030E+00 0.28795291411E+00 0.30248918009E+00
 0.32384016146E+00 0.34788582250E+00 0.36995862425E+00 0.38713061991E+00 0.39798616713E+00
 0.40169838597E+00 0.39801167176E+00 0.38728449601E+00 0.37001458346E+00 0.34726689265E+00
 0.32237149406E+00 0.30106263915E+00 0.28802406940E+00 0.28308977625E+00 0.29882195958E+00
 0.32396201446E+00 0.35885724233E+00 0.40171489549E+00 0.44702199563E+00 0.48878165986E+00
 0.52303480624E+00 0.54755897784E+00 0.56051730936E+00 0.56047775307E+00 0.54745800233E+00
 0.52299726518E+00 0.48905228787E+00 0.44770868630E+00 0.40253578242E+00 0.35931694580E+00
 0.32383371321E+00 0.29834352306E+00 0.28093113030E+00 0.26876997389E+00 0.26136759581E+00
 0.26004240401E+00 0.26492768987E+00 0.27359325100E+00 0.28256459423E+00 0.28934939890E+00
 0.29288709064E+00 0.29288379187E+00 0.28931872206E+00 0.28251363016E+00 0.27361680699E+00
 0.26509929389E+00 0.26029996240E+00 0.26161907033E+00 0.26906797738E+00 0.28138213355E+00
 0.36857482596E+00 0.43075613346E+00 0.50311180252E+00 0.57703857262E+00 0.64557438096E+00
 0.70512083023E+00 0.75292881212E+00 0.78480006762E+00 0.79615157092E+00 0.78491711003E+00
 0.75292072102E+00 0.70451091556E+00 0.64416629086E+00 0.57561429046E+00 0.50314085779E+00
 0.43292904133E+00 0.37176994428E+00 0.32365848260E+00 0.28795291411E+00 0.26136759581E+00
 0.24151866742E+00 0.22811080276E+00 0.22116461503E+00 0.21919629472E+00 0.21959534180E+00
 0.22029232708E+00 0.22053395066E+00 0.22025703497E+00 0.21950993171E+00 0.21905536528E+00
 0.22116584883E+00 0.22871833852E+00 0.24293037695E+00 0.26280841857E+00 0.28795666799E+00
 0.32151589932E+00 0.52223759567E+00 0.62607529187E+00 0.73582286502E+00 0.84493907685E+00
 0.94785037887E+00 0.10377219973E+01 0.11055659495E+01 0.11423989199E+01 0.11425349848E+01
 0.11057197883E+01 0.10373692204E+01 0.94675055075E+00 0.84354152025E+00 0.73504129449E+00
 0.62649806490E+00 0.52353659994E+00 0.43274963092E+00 0.35895930947E+00 0.30248918009E+00
 0.26004240401E+00 0.22811080276E+00 0.20495446662E+00 0.18969730026E+00 0.18080343755E+00
 0.17614738628E+00 0.17412657806E+00 0.17412585673E+00 0.17616590467E+00 0.18083339342E+00
 0.18966381506E+00 0.20486711473E+00 0.22815318112E+00 0.26031131940E+00 0.30266535846E+00
 0.35849234800E+00 0.43152693759E+00 0.77223506289E+00 0.92879626230E+00 0.10945676693E+01
 0.12641373378E+01 0.14251834245E+01 0.15590480160E+01 0.16472735660E+01 0.16778931896E+01
 0.16473072230E+01 0.15596966578E+01 0.14266566479E+01 0.12655475996E+01 0.10944698982E+01
 0.92662286483E+00 0.76910142007E+00 0.62630775421E+00 0.50276952256E+00 0.40197425154E+00
 0.32384016146E+00 0.26492768987E+00 0.22116461503E+00 0.18969730026E+00 0.16849263195E+00
 0.15545662944E+00 0.14857097962E+00 0.14646874897E+00 0.14862925010E+00 0.15547701668E+00
 0.16851882053E+00 0.18984816780E+00 0.22122405207E+00 0.26431960003E+00 0.32237246634E+00
 0.40052622994E+00 0.50280661388E+00 0.62843870882E+00 0.11522805991E+01 0.14039914653E+01
 0.16746793956E+01 0.19449555261E+01 0.21858827363E+01 0.23664996843E+01 0.24628025153E+01
 0.24627440421E+01 0.23668244243E+01 0.21873000810E+01 0.19470847108E+01 0.16760407906E+01
 0.14034453525E+01 0.11502312866E+01 0.92642153949E+00 0.73464804899E+00 0.57503334386E+00
 0.44690997548E+00 0.34788582250E+00 0.27359325100E+00 0.21919629472E+00 0.18080343755E+00
 0.15545662944E+00 0.14053846152E+00 0.13377407990E+00 0.13377832019E+00 0.14052887557E+00
 0.15542660987E+00 0.18082342530E+00 0.21930558642E+00 0.27362056291E+00 0.34753691751E+00
 0.44621469639E+00 0.57465511551E+00 0.73544162286E+00 0.92843802689E+00 0.17678132375E+01
 0.21829152969E+01 0.26169887816E+01 0.30264486355E+01 0.33633076493E+01 0.35850473286E+01
 0.36622617085E+01 0.35842707204E+01 0.33617969614E+01 0.30249977372E+01 0.26170303646E+01
 0.21851112060E+01 0.17710120428E+01 0.14032369384E+01 0.10940580262E+01 0.84293455891E+00
 0.64335943792E+00 0.48798634135E+00 0.36995862425E+00 0.28256459423E+00 0.21959534180E+00
 0.17614738628E+00 0.14857097962E+00 0.13377407990E+00 0.12920491117E+00 0.13378873203E+00
 0.14857004119E+00 0.17611588715E+00 0.21951276441E+00 0.28242201624E+00 0.36995540812E+00
 0.48858691938E+00 0.64476483759E+00 0.84438330433E+00 0.10940890446E+01 0.14011184798E+01
 0.27801665456E+01 0.34373743345E+01 0.40994757151E+01 0.46966774552E+01 0.51533069299E+01
 0.54018684284E+01 0.54012533374E+01 0.51513887668E+01 0.46938682254E+01 0.40973273522E+01
 0.34375854092E+01 0.27827418659E+01 0.21849038366E+01 0.16756193273E+01 0.12649195226E+01
 0.94592583744E+00 0.70347419317E+00 0.52166038512E+00 0.38713061991E+00 0.28934939890E+00
 0.22029232708E+00 0.17412657806E+00 0.14646874897E+00 0.13377832019E+00 0.13378873203E+00
 0.14647566226E+00 0.17412098158E+00 0.22030334269E+00 0.28933166904E+00 0.38702346876E+00
 0.52168980357E+00 0.70408760233E+00 0.94703605481E+00 0.12654077785E+01 0.16742391768E+01
 0.21819159242E+01 0.43887947312E+01 0.54110840952E+01 0.64202522799E+01 0.72961142393E+01
 0.79005909962E+01 0.81179902604E+01 0.79020791987E+01 0.72976959257E+01 0.64202298714E+01
 0.54089010835E+01 0.43856374157E+01 0.34374078936E+01 0.26166277346E+01 0.19464543512E+01
 0.14258182430E+01 0.10363392941E+01 0.75167665778E+00 0.54589356907E+00 0.39798616713E+00
 0.29288709064E+00 0.22053395066E+00 0.17412585673E+00 0.14862925010E+00 0.14052887557E+00
 0.14857004119E+00 0.17412098158E+00 0.22059202217E+00 0.29291122358E+00 0.39801058894E+00
 0.54604003533E+00 0.75174278931E+00 0.10357457813E+01 0.14243527330E+01 0.19449907138E+01
 0.26166499389E+01 0.34395433392E+01 0.69331434222E+01 0.85725702800E+01 0.10160665317E+02
 0.11450699759E+02 0.12182210471E+02 0.12183942678E+02 0.11454688887E+02 0.10164092301E+02
 0.85729952847E+01 0.69303736460E+01 0.54088271100E+01 0.40970303093E+01 0.30244310123E+01
 0.21864844427E+01 0.15586765263E+01 0.11045251105E+01 0.78352549382E+00 0.55878179359E+00
 0.40169838597E+00 0.29288379187E+00 0.22025703497E+00 0.17616590467E+00 0.15547701668E+00
 0.15542660987E+00 0.17611588715E+00 0.22030334269E+00 0.29291122358E+00 0.40162397892E+00
 0.55879216165E+00 0.78370671485E+00 0.11043978254E+01 0.15576656815E+01 0.21850438497E+01
 0.30241858144E+01 0.40992175407E+01 0.54126122908E+01 0.11104300675E+02 0.13826160178E+02
 0.16351494101E+02 0.18171163653E+02 0.18837116089E+02 0.18170371990E+02 0.16351570007E+02
 0.13828251708E+02 0.11107461267E+02 0.85731582825E+01 0.64202177736E+01 0.46935250165E+01
 0.33611148891E+01 0.23658707113E+01 0.16461622002E+01 0.11412475164E+01 0.79470641020E+00
 0.55882121531E+00 0.39801167176E+00 0.28931872206E+00 0.21950993171E+00 0.18083339342E+00
 0.16851882053E+00 0.18082342530E+00 0.21951276441E+00 0.28933166904E+00 0.39801058894E+00
 0.55879216165E+00 0.79462173429E+00 0.11410974927E+01 0.16461528620E+01 0.23664703177E+01
 0.33625282371E+01 0.46949939003E+01 0.64202676436E+01 0.85710463120E+01 0.18162220189E+02
 0.22693605414E+02 0.26573906130E+02 0.28860337410E+02 0.28858273319E+02 0.26569742393E+02
 0.22691413558E+02 0.18164148478E+02 0.13828848011E+02 0.10164649061E+02 0.72978512132E+01
 0.51510560976E+01 0.35835254163E+01 0.24617170802E+01 0.16767032934E+01 0.11411114470E+01
 0.78340893781E+00 0.54599451600E+00 0.38728449601E+00 0.28251363016E+00 0.21905536528E+00
 0.18966381506E+00 0.18984816780E+00 0.21930558642E+00 0.28242201624E+00 0.38702346876E+00
 0.54604003533E+00 0.78370671485E+00 0.11410974927E+01 0.16763360977E+01 0.24619259147E+01
 0.35850137980E+01 0.51528058989E+01 0.72975955859E+01 0.10161354624E+02 0.13824463485E+02
 0.30123144894E+02 0.37960210557E+02 0.44359706558E+02 0.46869184898E+02 0.44358111188E+02
 0.37957289156E+02 0.30119911996E+02 0.22692670360E+02 0.16353064570E+02 0.11455724377E+02
 0.79024114575E+01 0.54009440685E+01 0.36614963449E+01 0.24617754409E+01 0.16461281751E+01
 0.11043707652E+01 0.75168466843E+00 0.52169869152E+00 0.37001458346E+00 0.27361680699E+00
 0.22116584883E+00 0.20486711473E+00 0.22122405207E+00 0.27362056291E+00 0.36995540812E+00
 0.52168980357E+00 0.75174278931E+00 0.11043978254E+01 0.16461528620E+01 0.24619259147E+01
 0.36615740102E+01 0.54003509455E+01 0.79009152126E+01 0.11454196046E+02 0.16352977374E+02
 0.22694673969E+02 0.52603938315E+02 0.67438460831E+02 0.76997985565E+02 0.76998265788E+02
 0.67438752228E+02 0.52603037055E+02 0.37959346593E+02 0.26572503796E+02 0.18172694760E+02
 0.12185309337E+02 0.81183992034E+01 0.54015577095E+01 0.35842996658E+01 0.23655461739E+01
 0.15580280625E+01 0.10366904446E+01 0.70408285095E+00 0.48771745259E+00 0.34726689265E+00
 0.26509929389E+00 0.22871833852E+00 0.22815318112E+00 0.26431960003E+00 0.34753691751E+00
 0.48858691938E+00 0.70408760233E+00 0.10357457813E+01 0.15576656815E+01 0.23664703177E+01
 0.35850137980E+01 0.54003509455E+01 0.81159594051E+01 0.12184217075E+02 0.18174435040E+02
 0.26575892680E+02 0.37962056288E+02 0.94815552685E+02 0.11775224651E+03 0.12676401131E+03
 0.11775599623E+03 0.94820333938E+02 0.67441466087E+02 0.44362144516E+02 0.28862069275E+02
 0.18839776813E+02 0.12183580669E+02 0.79009265637E+01 0.51529710052E+01 0.33626225334E+01
 0.21850681819E+01 0.14243459422E+01 0.94702343564E+00 0.64476595454E+00 0.44622538371E+00
 0.32237149406E+00 0.26029996240E+00 0.24293037695E+00 0.26031131941E+00 0.32237246634E+00
 0.44621469639E+00 0.64476483759E+00 0.94703605481E+00 0.14243527330E+01 0.21850438497E+01
 0.33625282371E+01 0.51528058989E+01 0.79009152126E+01 0.12184217075E+02 0.18841315327E+02
 0.28863742498E+02 0.44362205059E+02 0.67438647077E+02 0.15871585459E+03 0.18475479969E+03
 0.18475806640E+03 0.15872246566E+03 0.11775880699E+03 0.77002928347E+02 0.46874037715E+02
 0.28864130695E+02 0.18173486902E+02 0.11451742538E+02 0.72962732321E+01 0.46963314864E+01
 0.30258800944E+01 0.19443264161E+01 0.12635098354E+01 0.84433060813E+00 0.57645720068E+00
 0.40115496853E+00 0.30106263915E+00 0.26161907033E+00 0.26280841857E+00 0.30266535846E+00
 0.40052622994E+00 0.57465511551E+00 0.84438330433E+00 0.12654077785E+01 0.19449907138E+01
 0.30241858144E+01 0.46949939003E+01 0.72975955859E+01 0.11454196046E+02 0.18174435040E+02
 0.28863742498E+02 0.46873796574E+02 0.77001754439E+02 0.11775426041E+03 0.23246765063E+03
 0.25102154342E+03 0.23246441023E+03 0.18476018312E+03 0.12676802367E+03 0.77002647980E+02
 0.44363736544E+02 0.26576662409E+02 0.16352989560E+02 0.10161227233E+02 0.64202418597E+01
 0.40991778482E+01 0.26165861339E+01 0.16742582113E+01 0.10941551796E+01 0.73542939999E+00
 0.50274150017E+00 0.35850038371E+00 0.28802406940E+00 0.26906797738E+00 0.28795666799E+00
 0.35849234800E+00 0.50280661388E+00 0.73544162286E+00 0.10940890446E+01 0.16742391768E+01
 0.26166499389E+01 0.40992175407E+01 0.64202676436E+01 0.10161354624E+02 0.16352977374E+02
 0.26575892680E+02 0.44362205059E+02 0.77001754439E+02 0.12676950810E+03 0.18476387878E+03
 0.29273142264E+03 0.29272520798E+03 0.25102247041E+03 0.18475691765E+03 0.11775505893E+03
 0.67441174171E+02 0.37962264126E+02 0.22694858969E+02 0.13826757172E+02 0.85727345612E+01
 0.54110101739E+01 0.34371973266E+01 0.21827087036E+01 0.14037826009E+01 0.92859384629E+00
 0.62588521694E+00 0.43057794312E+00 0.32378708999E+00 0.28308977625E+00 0.28138213355E+00
 0.32151589932E+00 0.43152693759E+00 0.62843870882E+00 0.92843802689E+00 0.14011184798E+01
 0.21819159242E+01 0.34395433392E+01 0.54126122908E+01 0.85710463120E+01 0.13824463485E+02
 0.22694673969E+02 0.37962056288E+02 0.67438647077E+02 0.11775426041E+03 0.18476387878E+03
 0.25103461524E+03 0.29362337712E+03 0.27190791241E+03 0.21596032250E+03 0.14763524025E+03
 0.88618774667E+02 0.49737289240E+02 0.28913599993E+02 0.17554819806E+02 0.10789947458E+02
 0.67632338419E+01 0.42935952614E+01 0.27267175050E+01 0.17368880185E+01 0.11330407405E+01
 0.76084615564E+00 0.51647413268E+00 0.36469609413E+00 0.29460500806E+00 0.27873536250E+00
 0.29633689577E+00 0.36469599048E+00 0.51473848937E+00 0.76083427034E+00 0.11347582442E+01
 0.17368876722E+01 0.27250058502E+01 0.42936221751E+01 0.67649865259E+01 0.10789947769E+02
 0.17552997601E+02 0.28913324294E+02 0.49738660863E+02 0.88618772849E+02 0.14763432144E+03
 0.21596178640E+03 0.27191083631E+03 0.27190791241E+03 0.23318697736E+03 0.17174383535E+03
 0.10977884287E+03 0.63396133247E+02 0.36215859454E+02 0.21876811212E+02 0.13402665397E+02
 0.83475966214E+01 0.52886916484E+01 0.33697163370E+01 0.21425072335E+01 0.13775903040E+01
 0.91389052533E+00 0.62049792880E+00 0.42731362095E+00 0.31777625905E+00 0.27765290044E+00
 0.28045259764E+00 0.32111598207E+00 0.42524623955E+00 0.61690051257E+00 0.91520278100E+00
 0.13812747346E+01 0.21420695791E+01 0.33663147573E+01 0.52883648272E+01 0.83504096302E+01
 0.13403692373E+02 0.21875748791E+02 0.36217022849E+02 0.63399466046E+02 0.10977844358E+03
 0.17173650385E+03 0.23317726426E+03 0.27190349344E+03 0.21596032250E+03 0.17174383535E+03
 0.11810281379E+03 0.72201105189E+02 0.42133696477E+02 0.25566768397E+02 0.15823723349E+02
 0.98817530954E+01 0.62665971560E+01 0.40120967866E+01 0.25673078730E+01 0.16457066519E+01
 0.10766191701E+01 0.72521326431E+00 0.49754143887E+00 0.35498686009E+00 0.28442582741E+00
 0.26623531329E+00 0.28595852986E+00 0.35500317262E+00 0.49602765715E+00 0.72521260602E+00
 0.10781460643E+01 0.16457089630E+01 0.25657595321E+01 0.40120400707E+01 0.62680350772E+01
 0.98816773041E+01 0.15822406267E+02 0.25567708430E+02 0.42136733489E+02 0.72201720523E+02
 0.11809922937E+03 0.17173936512E+03 0.21595801244E+03 0.23317677679E+03 0.14763524025E+03
 0.10977884287E+03 0.72201105189E+02 0.44450783978E+02 0.27726162852E+02 0.17563923031E+02
 0.11126064308E+02 0.71167716475E+01 0.45917715220E+01 0.29648832000E+01 0.19110161150E+01
 0.12450989420E+01 0.83202674004E+00 0.56795253931E+00 0.39691681673E+00 0.29958489088E+00
 0.25991534237E+00 0.25961622649E+00 0.29889034284E+00 0.39667899290E+00 0.56883954281E+00
 0.83282864206E+00 0.12441467545E+01 0.19095531080E+01 0.29656389670E+01 0.45938346639E+01
 0.71163004548E+01 0.11122914980E+02 0.17562405040E+02 0.27727822496E+02 0.44452249904E+02
 0.72201193432E+02 0.10978130456E+03 0.14764104270E+03 0.17174175516E+03 0.17173842352E+03
 0.88618774667E+02 0.63396133247E+02 0.42133696477E+02 0.27726162852E+02 0.18200330085E+02
 0.11827626969E+02 0.77008112184E+01 0.50370721744E+01 0.32946254949E+01 0.21457306877E+01
 0.14014103112E+01 0.93309260604E+00 0.63660843203E+00 0.44194183485E+00 0.31968521000E+00
 0.25784296580E+00 0.24091719573E+00 0.25867172651E+00 0.31966743321E+00 0.44108782435E+00
 0.63660974635E+00 0.93394858416E+00 0.14014277703E+01 0.21449199173E+01 0.32947137596E+01
 0.50380301048E+01 0.77006864102E+01 0.11826008678E+02 0.18198890470E+02 0.27725807087E+02
 0.42134232267E+02 0.63398341059E+02 0.88623257618E+02 0.10978500200E+03 0.11810360942E+03
 0.10978082428E+03 0.49737289240E+02 0.36215859454E+02 0.25566768397E+02 0.17563923031E+02
 0.11827626969E+02 0.79088846444E+01 0.52779230678E+01 0.35114846187E+01 0.23227820203E+01
 0.15321695705E+01 0.10206351043E+01 0.69502685607E+00 0.48349869199E+00 0.34472967184E+00
 0.26231759396E+00 0.22649191065E+00 0.22740508843E+00 0.26343035298E+00 0.34408315371E+00
 0.48227805739E+00 0.69538719481E+00 0.10219096126E+01 0.15321519463E+01 0.23215654674E+01
 0.35112372596E+01 0.52794400545E+01 0.79106297196E+01 0.11827874108E+02 0.17562236901E+02
 0.25563904888E+02 0.36213506793E+02 0.49737100149E+02 0.63401449110E+02 0.72205685228E+02
 0.72204643653E+02 0.63399814229E+02 0.28913599993E+02 0.21876811212E+02 0.15823723349E+02
 0.11126064308E+02 0.77008112184E+01 0.52779230678E+01 0.35861669992E+01 0.24159047761E+01
 0.16187303966E+01 0.10882326943E+01 0.74212308321E+00 0.51607746918E+00 0.36684026610E+00
 0.27178638595E+00 0.21995102017E+00 0.20393425784E+00 0.22019047816E+00 0.27179901292E+00
 0.36661855739E+00 0.51607073149E+00 0.74232604252E+00 0.10881896628E+01 0.16184269168E+01
 0.24158143155E+01 0.35865144571E+01 0.52786539008E+01 0.77019267974E+01 0.11127083670E+02
 0.15823352251E+02 0.21874377944E+02 0.28910424295E+02 0.36215240709E+02 0.42137230379E+02
 0.44454715865E+02 0.42137709720E+02 0.36217201590E+02 0.17554819806E+02 0.13402665397E+02
 0.98817530954E+01 0.71167716475E+01 0.50370721744E+01 0.35114846187E+01 0.24159047761E+01
 0.16482334648E+01 0.11243015270E+01 0.77371316603E+00 0.54012494374E+00 0.38366171604E+00
 0.28061245269E+00 0.21833262181E+00 0.18929730069E+00 0.18921056356E+00 0.21819687033E+00
 0.28064417209E+00 0.38384297213E+00 0.54015808901E+00 0.77349264323E+00 0.11241991542E+01
 0.16484523251E+01 0.24157912025E+01 0.35103419987E+01 0.50357401791E+01 0.71173225471E+01
 0.98849316274E+01 0.13406316489E+02 0.17555751125E+02 0.21875047644E+02 0.25565331192E+02
 0.27727452221E+02 0.27729314055E+02 0.25569339900E+02 0.21877757694E+02 0.10789947458E+02
 0.83475966214E+01 0.62665971560E+01 0.45917715220E+01 0.32946254949E+01 0.23227820203E+01
 0.16187303966E+01 0.11243015270E+01 0.78451015810E+00 0.55277085118E+00 0.39453447224E+00
 0.28750426792E+00 0.21873137518E+00 0.18062416376E+00 0.16852107469E+00 0.18065773227E+00
 0.21872875568E+00 0.28747516670E+00 0.39455441399E+00 0.55284192083E+00 0.78458809175E+00
 0.11243635533E+01 0.16186006749E+01 0.23220722974E+01 0.32933033214E+01 0.45907751889E+01
 0.62672878062E+01 0.83502118294E+01 0.10792916114E+02 0.13406475722E+02 0.15823852987E+02
 0.17563175715E+02 0.18200375958E+02 0.17564474680E+02 0.15824649471E+02 0.13405180401E+02
 0.67632338419E+01 0.52886916484E+01 0.40120967866E+01 0.29648832000E+01 0.21457306877E+01
 0.15321695705E+01 0.10882326943E+01 0.77371316603E+00 0.55277085118E+00 0.39813812964E+00