   2   2   0   0
  0.1772471E+02  0.2926610E-09  0.2926610E-09  0.4779130E-09  0.5000000E-15
  1.000000000000000E-004
  CAR 
 He                                      
     75.26005509    -19.94224090  301    -14.15076789      1.00000000
    -19.942  0.0000E+00  0.0000E+00
    -19.625  0.0000E+00  0.0000E+00
    -19.308  0.0000E+00  0.0000E+00
    -18.990  0.0000E+00  0.0000E+00
    -18.673  0.0000E+00  0.0000E+00
    -18.356  0.0000E+00  0.0000E+00
    -18.038  0.0000E+00  0.0000E+00
    -17.721  0.0000E+00  0.0000E+00
    -17.404  0.0000E+00  0.0000E+00
    -17.086  0.0000E+00  0.0000E+00
    -16.769  0.0000E+00  0.0000E+00
    -16.451  0.0000E+00  0.0000E+00
    -16.134  0.0000E+00  0.0000E+00
    -15.817  0.2528E-10  0.8022E-11
    -15.499  0.1484E+00  0.4709E-01
    -15.182  0.1150E+01  0.4121E+00
    -14.865  0.3047E+01  0.1379E+01
    -14.547  0.8149E+01  0.3966E+01
    -14.230  0.1047E+00  0.4000E+01
    -13.913  0.0000E+00  0.4000E+01
    -13.595  0.0000E+00  0.4000E+01
    -13.278  0.0000E+00  0.4000E+01
    -12.961  0.0000E+00  0.4000E+01
    -12.643  0.0000E+00  0.4000E+01
    -12.326  0.0000E+00  0.4000E+01
    -12.009  0.0000E+00  0.4000E+01
    -11.691  0.0000E+00  0.4000E+01
    -11.374  0.0000E+00  0.4000E+01
    -11.057  0.0000E+00  0.4000E+01
    -10.739  0.0000E+00  0.4000E+01
    -10.422  0.0000E+00  0.4000E+01
    -10.105  0.0000E+00  0.4000E+01
     -9.787  0.0000E+00  0.4000E+01
     -9.470  0.0000E+00  0.4000E+01
     -9.153  0.0000E+00  0.4000E+01
     -8.835  0.0000E+00  0.4000E+01
     -8.518  0.0000E+00  0.4000E+01
     -8.201  0.0000E+00  0.4000E+01
     -7.883  0.0000E+00  0.4000E+01
     -7.566  0.0000E+00  0.4000E+01
     -7.249  0.0000E+00  0.4000E+01
     -6.931  0.0000E+00  0.4000E+01
     -6.614  0.0000E+00  0.4000E+01
     -6.297  0.0000E+00  0.4000E+01
     -5.979  0.0000E+00  0.4000E+01
     -5.662  0.0000E+00  0.4000E+01
     -5.345  0.0000E+00  0.4000E+01
     -5.027  0.0000E+00  0.4000E+01
     -4.710  0.0000E+00  0.4000E+01
     -4.393  0.0000E+00  0.4000E+01
     -4.075  0.0000E+00  0.4000E+01
     -3.758  0.0000E+00  0.4000E+01
     -3.441  0.0000E+00  0.4000E+01
     -3.123  0.0000E+00  0.4000E+01
     -2.806  0.0000E+00  0.4000E+01
     -2.488  0.0000E+00  0.4000E+01
     -2.171  0.0000E+00  0.4000E+01
     -1.854  0.0000E+00  0.4000E+01
     -1.536  0.0000E+00  0.4000E+01
     -1.219  0.0000E+00  0.4000E+01
     -0.902  0.0000E+00  0.4000E+01
     -0.584  0.0000E+00  0.4000E+01
     -0.267  0.0000E+00  0.4000E+01
      0.050  0.0000E+00  0.4000E+01
      0.368  0.0000E+00  0.4000E+01
      0.685  0.0000E+00  0.4000E+01
      1.002  0.0000E+00  0.4000E+01
      1.320  0.0000E+00  0.4000E+01
      1.637  0.0000E+00  0.4000E+01
      1.954  0.0000E+00  0.4000E+01
      2.272  0.0000E+00  0.4000E+01
      2.589  0.3320E-16  0.4000E+01
      2.906  0.2130E+00  0.4068E+01
      3.224  0.3839E+01  0.5286E+01
      3.541  0.2066E+01  0.5942E+01
      3.858  0.1450E+01  0.6402E+01
      4.176  0.1204E+01  0.6785E+01
      4.493  0.8538E+00  0.7056E+01
      4.810  0.7817E+00  0.7304E+01
      5.128  0.7521E+00  0.7543E+01
      5.445  0.5222E+00  0.7709E+01
      5.762  0.5667E+00  0.7889E+01
      6.080  0.3695E+00  0.8006E+01
      6.397  0.1073E+00  0.8040E+01
      6.714  0.4260E+00  0.8175E+01
      7.032  0.4414E+00  0.8316E+01
      7.349  0.3952E+00  0.8441E+01
      7.666  0.8039E+00  0.8696E+01
      7.984  0.1005E+01  0.9015E+01
      8.301  0.7905E+00  0.9266E+01
      8.618  0.1015E+01  0.9588E+01
      8.936  0.8623E+00  0.9862E+01
      9.253  0.9986E+00  0.1018E+02
      9.570  0.9772E+00  0.1049E+02
      9.888  0.7174E+00  0.1072E+02
     10.205  0.7558E+00  0.1096E+02
     10.522  0.7644E+00  0.1120E+02
     10.840  0.1097E+01  0.1155E+02
     11.157  0.6931E+00  0.1177E+02
     11.475  0.1201E+01  0.1215E+02
     11.792  0.7716E+00  0.1239E+02
     12.109  0.1077E+01  0.1274E+02
     12.427  0.8192E+00  0.1300E+02
     12.744  0.1531E+01  0.1348E+02
     13.061  0.9700E+00  0.1379E+02
     13.379  0.1258E+01  0.1419E+02
     13.696  0.7696E+00  0.1443E+02
     14.013  0.9870E+00  0.1475E+02
     14.331  0.1018E+01  0.1507E+02
     14.648  0.7443E+00  0.1531E+02
     14.965  0.7180E+00  0.1553E+02
     15.283  0.7336E+00  0.1577E+02
     15.600  0.1217E+01  0.1615E+02
     15.917  0.1652E+01  0.1668E+02
     16.235  0.1384E+01  0.1712E+02
     16.552  0.1547E+01  0.1761E+02
     16.869  0.1336E+01  0.1803E+02
     17.187  0.1937E+01  0.1865E+02
     17.504  0.1073E+01  0.1899E+02
     17.821  0.1079E+01  0.1933E+02
     18.139  0.1320E+01  0.1975E+02
     18.456  0.1422E+01  0.2020E+02
     18.773  0.1370E+01  0.2064E+02
     19.091  0.8978E+00  0.2092E+02
     19.408  0.9247E+00  0.2121E+02
     19.725  0.5311E+00  0.2138E+02
     20.043  0.1043E+01  0.2171E+02
     20.360  0.1089E+01  0.2206E+02
     20.677  0.1323E+01  0.2248E+02
     20.995  0.1462E+01  0.2294E+02
     21.312  0.1460E+01  0.2341E+02
     21.629  0.1198E+01  0.2379E+02
     21.947  0.9233E+00  0.2408E+02
     22.264  0.9680E+00  0.2439E+02
     22.581  0.1677E+01  0.2492E+02
     22.899  0.1380E+01  0.2536E+02
     23.216  0.1378E+01  0.2580E+02
     23.533  0.1294E+01  0.2621E+02
     23.851  0.1112E+01  0.2656E+02
     24.168  0.1596E+01  0.2707E+02
     24.485  0.1162E+01  0.2744E+02
     24.803  0.1115E+01  0.2779E+02
     25.120  0.1386E+01  0.2823E+02
     25.438  0.1139E+01  0.2859E+02
     25.755  0.1380E+01  0.2903E+02
     26.072  0.1178E+01  0.2940E+02
     26.390  0.1156E+01  0.2977E+02
     26.707  0.1541E+01  0.3026E+02
     27.024  0.1586E+01  0.3076E+02
     27.342  0.1048E+01  0.3110E+02
     27.659  0.1238E+01  0.3149E+02
     27.976  0.1515E+01  0.3197E+02
     28.294  0.1239E+01  0.3236E+02
     28.611  0.1281E+01  0.3277E+02
     28.928  0.1225E+01  0.3316E+02
     29.246  0.1775E+01  0.3372E+02
     29.563  0.1377E+01  0.3416E+02
     29.880  0.1508E+01  0.3464E+02
     30.198  0.1557E+01  0.3513E+02
     30.515  0.1163E+01  0.3550E+02
     30.832  0.1413E+01  0.3595E+02
     31.150  0.1594E+01  0.3646E+02
     31.467  0.1334E+01  0.3688E+02
     31.784  0.1886E+01  0.3748E+02
     32.102  0.1702E+01  0.3802E+02
     32.419  0.9220E+00  0.3831E+02
     32.736  0.1244E+01  0.3871E+02
     33.054  0.1560E+01  0.3920E+02
     33.371  0.1322E+01  0.3962E+02
     33.688  0.1259E+01  0.4002E+02
     34.006  0.1179E+01  0.4040E+02
     34.323  0.1764E+01  0.4096E+02
     34.640  0.1442E+01  0.4141E+02
     34.958  0.1937E+01  0.4203E+02
     35.275  0.1714E+01  0.4257E+02
     35.592  0.1601E+01  0.4308E+02
     35.910  0.1649E+01  0.4360E+02
     36.227  0.9020E+00  0.4389E+02
     36.544  0.1586E+01  0.4439E+02
     36.862  0.1516E+01  0.4488E+02
     37.179  0.1557E+01  0.4537E+02
     37.496  0.1617E+01  0.4588E+02
     37.814  0.1463E+01  0.4635E+02
     38.131  0.2285E+01  0.4707E+02
     38.449  0.1287E+01  0.4748E+02
     38.766  0.1568E+01  0.4798E+02
     39.083  0.1740E+01  0.4853E+02
     39.401  0.1689E+01  0.4907E+02
     39.718  0.1533E+01  0.4955E+02
     40.035  0.1374E+01  0.4999E+02
     40.353  0.1726E+01  0.5054E+02
     40.670  0.1925E+01  0.5115E+02
     40.987  0.1940E+01  0.5177E+02
     41.305  0.1582E+01  0.5227E+02
     41.622  0.1218E+01  0.5265E+02
     41.939  0.1492E+01  0.5313E+02
     42.257  0.2011E+01  0.5377E+02
     42.574  0.1599E+01  0.5427E+02
     42.891  0.1746E+01  0.5483E+02
     43.209  0.1779E+01  0.5539E+02
     43.526  0.1166E+01  0.5576E+02
     43.843  0.1524E+01  0.5625E+02
     44.161  0.1925E+01  0.5686E+02
     44.478  0.1861E+01  0.5745E+02
     44.795  0.1558E+01  0.5794E+02
     45.113  0.2281E+01  0.5867E+02
     45.430  0.1458E+01  0.5913E+02
     45.747  0.1997E+01  0.5976E+02
     46.065  0.1532E+01  0.6025E+02
     46.382  0.1672E+01  0.6078E+02
     46.699  0.1261E+01  0.6118E+02
     47.017  0.1801E+01  0.6175E+02
     47.334  0.1539E+01  0.6224E+02
     47.651  0.1697E+01  0.6278E+02
     47.969  0.1670E+01  0.6331E+02
     48.286  0.2252E+01  0.6402E+02
     48.603  0.1926E+01  0.6464E+02
     48.921  0.1957E+01  0.6526E+02
     49.238  0.1548E+01  0.6575E+02
     49.555  0.2145E+01  0.6643E+02
     49.873  0.1760E+01  0.6699E+02
     50.190  0.1692E+01  0.6752E+02
     50.507  0.1745E+01  0.6808E+02
     50.825  0.1906E+01  0.6868E+02
     51.142  0.1402E+01  0.6913E+02
     51.459  0.1467E+01  0.6959E+02
     51.777  0.1997E+01  0.7023E+02
     52.094  0.1581E+01  0.7073E+02
     52.412  0.1748E+01  0.7128E+02
     52.729  0.2223E+01  0.7199E+02
     53.046  0.2279E+01  0.7271E+02
     53.364  0.1377E+01  0.7315E+02
     53.681  0.2128E+01  0.7383E+02
     53.998  0.1707E+01  0.7437E+02
     54.316  0.2137E+01  0.7505E+02
     54.633  0.1688E+01  0.7558E+02
     54.950  0.2071E+01  0.7624E+02
     55.268  0.1688E+01  0.7678E+02
     55.585  0.2338E+01  0.7752E+02
     55.902  0.1412E+01  0.7797E+02
     56.220  0.1465E+01  0.7843E+02
     56.537  0.1682E+01  0.7897E+02
     56.854  0.2248E+01  0.7968E+02
     57.172  0.1453E+01  0.8014E+02
     57.489  0.1646E+01  0.8066E+02
     57.806  0.2542E+01  0.8147E+02
     58.124  0.2113E+01  0.8214E+02
     58.441  0.2061E+01  0.8279E+02
     58.758  0.1862E+01  0.8339E+02
     59.076  0.2074E+01  0.8404E+02
     59.393  0.1750E+01  0.8460E+02
     59.710  0.2132E+01  0.8528E+02
     60.028  0.1833E+01  0.8586E+02
     60.345  0.2091E+01  0.8652E+02
     60.662  0.1655E+01  0.8705E+02
     60.980  0.1608E+01  0.8756E+02
     61.297  0.2427E+01  0.8833E+02
     61.614  0.1472E+01  0.8880E+02
     61.932  0.1665E+01  0.8932E+02
     62.249  0.2142E+01  0.9000E+02
     62.566  0.1649E+01  0.9053E+02
     62.884  0.1855E+01  0.9112E+02
     63.201  0.1480E+01  0.9159E+02
     63.518  0.1861E+01  0.9218E+02
     63.836  0.1670E+01  0.9271E+02
     64.153  0.6927E+00  0.9293E+02
     64.470  0.1326E+01  0.9335E+02
     64.788  0.1496E+01  0.9382E+02
     65.105  0.1258E+01  0.9422E+02
     65.422  0.6214E+00  0.9442E+02
     65.740  0.8886E+00  0.9470E+02
     66.057  0.6221E+00  0.9490E+02
     66.375  0.6340E+00  0.9510E+02
     66.692  0.6137E+00  0.9530E+02
     67.009  0.4543E+00  0.9544E+02
     67.327  0.5215E+00  0.9561E+02
     67.644  0.2233E+00  0.9568E+02
     67.961  0.1797E+00  0.9573E+02
     68.279  0.3521E+00  0.9585E+02
     68.596  0.1322E+00  0.9589E+02
     68.913  0.1936E+00  0.9595E+02
     69.231  0.5037E-01  0.9597E+02
     69.548  0.6633E-01  0.9599E+02
     69.865  0.2840E-01  0.9600E+02
     70.183  0.7780E-03  0.9600E+02
     70.500  0.1038E-03  0.9600E+02
     70.817  0.1084E-01  0.9600E+02
     71.135  0.3645E-02  0.9600E+02
     71.452  0.0000E+00  0.9600E+02
     71.769  0.0000E+00  0.9600E+02
     72.087  0.0000E+00  0.9600E+02
     72.404  0.0000E+00  0.9600E+02
     72.721  0.0000E+00  0.9600E+02
     73.039  0.0000E+00  0.9600E+02
     73.356  0.0000E+00  0.9600E+02
     73.673  0.0000E+00  0.9600E+02
     73.991  0.0000E+00  0.9600E+02
     74.308  0.0000E+00  0.9600E+02
     74.625  0.0000E+00  0.9600E+02
     74.943  0.0000E+00  0.9600E+02
     75.260  0.0000E+00  0.9600E+02
