    2    2    1    1
  0.1772471E+02  0.2926610E-09  0.2926610E-09  0.4779130E-09  0.5000000E-15
  1.000000000000000E-004
  CAR 
 He                                      
      4    133     48
 
  0.0000000E+00  0.0000000E+00  0.0000000E+00  0.5787037E-03
      1        -15.614864   1.000000
      2        -14.817573   1.000000
      3          2.887900   0.000000
      4          3.014744   0.000000
      5          9.157177   0.000000
      6         17.168772   0.000000
      7         17.168825   0.000000
      8         18.567126   0.000000
      9         18.567237   0.000000
     10         19.648987   0.000000
     11         21.285431   0.000000
     12         23.134528   0.000000
     13         23.134689   0.000000
     14         24.090631   0.000000
     15         24.663207   0.000000
     16         25.149456   0.000000
     17         25.149668   0.000000
     18         26.178506   0.000000
     19         26.178538   0.000000
     20         26.203526   0.000000
     21         27.042426   0.000000
     22         27.074462   0.000000
     23         27.074536   0.000000
     24         34.908113   0.000000
     25         41.246147   0.000000
     26         43.013644   0.000000
     27         43.874110   0.000000
     28         43.874187   0.000000
     29         44.528576   0.000000
     30         44.528591   0.000000
     31         45.672220   0.000000
     32         45.672416   0.000000
     33         45.780748   0.000000
     34         45.883008   0.000000
     35         45.883078   0.000000
     36         54.352512   0.000000
     37         54.637139   0.000000
     38         56.107547   0.000000
     39         61.523105   0.000000
     40         63.554801   0.000000
     41         63.554896   0.000000
     42         65.603693   0.000000
     43         65.604263   0.000000
     44         65.840037   0.000000
     45         67.829574   0.000000
     46         67.829844   0.000000
     47         70.670766   0.000000
     48         70.932678   0.000000
 
  0.8333333E-01 -0.2220818E-17  0.0000000E+00  0.3472222E-02
      1        -15.570631   1.000000
      2        -14.797339   1.000000
      3          2.994699   0.000000
      4          3.048343   0.000000
      5          8.919973   0.000000
      6         16.017919   0.000000
      7         16.162794   0.000000
      8         18.920448   0.000000
      9         19.355008   0.000000
     10         19.490466   0.000000
     11         20.709845   0.000000
     12         22.840645   0.000000
     13         22.884029   0.000000
     14         23.215269   0.000000
     15         23.300855   0.000000
     16         24.793329   0.000000
     17         25.054555   0.000000
     18         25.941326   0.000000
     19         26.300633   0.000000
     20         27.900719   0.000000
     21         28.481255   0.000000
     22         28.780808   0.000000
     23         30.697551   0.000000
     24         34.638432   0.000000
     25         39.735727   0.000000
     26         41.312755   0.000000
     27         42.807409   0.000000
     28         42.946285   0.000000
     29         43.312174   0.000000
     30         44.059220   0.000000
     31         46.075062   0.000000
     32         47.059897   0.000000
     33         47.426152   0.000000
     34         47.955968   0.000000
     35         49.284787   0.000000
     36         54.551936   0.000000
     37         54.662656   0.000000
     38         54.853695   0.000000
     39         59.496822   0.000000
     40         59.561003   0.000000
     41         62.059783   0.000000
     42         64.486952   0.000000
     43         64.609679   0.000000
     44         67.512397   0.000000
     45         67.545078   0.000000
     46         67.774039   0.000000
     47         67.834497   0.000000
     48         69.301029   0.000000
 
  0.1666667E+00 -0.5529309E-17  0.0000000E+00  0.3472222E-02
      1        -15.446097   1.000000
      2        -14.743332   1.000000
      3          2.950006   0.000000
      4          3.529312   0.000000
      5          8.279765   0.000000
      6         14.212449   0.000000
      7         14.868071   0.000000
      8         18.266286   0.000000
      9         18.343483   0.000000
     10         19.355625   0.000000
     11         19.746943   0.000000
     12         21.251644   0.000000
     13         22.983224   0.000000
     14         23.359158   0.000000
     15         23.879817   0.000000
     16         23.975621   0.000000
     17         24.674383   0.000000
     18         28.468680   0.000000
     19         29.124687   0.000000
     20         30.848422   0.000000
     21         30.880270   0.000000
     22         31.175817   0.000000
     23         34.382548   0.000000
     24         34.930841   0.000000
     25         37.034678   0.000000
     26         39.168081   0.000000
     27         41.222968   0.000000
     28         41.463414   0.000000
     29         41.919791   0.000000
     30         45.059672   0.000000
     31         48.269640   0.000000
     32         49.361902   0.000000
     33         49.704662   0.000000
     34         49.800684   0.000000
     35         52.801932   0.000000
     36         53.229538   0.000000
     37         54.301454   0.000000
     38         54.818702   0.000000
     39         55.634351   0.000000
     40         56.323982   0.000000
     41         59.487211   0.000000
     42         61.107110   0.000000
     43         62.179591   0.000000
     44         62.479640   0.000000
     45         64.902469   0.000000
     46         67.541967   0.000000
     47         67.679185   0.000000
     48         68.824443   0.000000
 
  0.2500000E+00  0.1306655E-16  0.0000000E+00  0.3472222E-02
      1        -15.265218   1.000000
      2        -14.674534   1.000000
      3          2.919681   0.000000
      4          4.329234   0.000000
      5          7.380736   0.000000
      6         12.798856   0.000000
      7         13.804220   0.000000
      8         15.751462   0.000000
      9         16.176815   0.000000
     10         18.643203   0.000000
     11         20.625715   0.000000
     12         20.666957   0.000000
     13         22.231910   0.000000
     14         23.589056   0.000000
     15         23.721367   0.000000
     16         26.232190   0.000000
     17         26.668093   0.000000
     18         31.064096   0.000000
     19         31.372831   0.000000
     20         33.095877   0.000000
     21         33.324743   0.000000
     22         33.891011   0.000000
     23         34.339436   0.000000
     24         36.473405   0.000000
     25         37.931086   0.000000
     26         39.488810   0.000000
     27         40.195719   0.000000
     28         40.394734   0.000000
     29         40.833630   0.000000
     30         45.086589   0.000000
     31         47.632855   0.000000
     32         49.282964   0.000000
     33         50.778647   0.000000
     34         51.731316   0.000000
     35         52.037196   0.000000
     36         52.535406   0.000000
     37         54.601871   0.000000
     38         55.101693   0.000000
     39         55.908997   0.000000
     40         57.193199   0.000000
     41         57.447690   0.000000
     42         57.450755   0.000000
     43         58.500370   0.000000
     44         60.537061   0.000000
     45         65.596902   0.000000
     46         66.047023   0.000000
     47         66.281266   0.000000
     48         67.141498   0.000000
 
  0.3333333E+00 -0.9970946E-17  0.0000000E+00  0.3472222E-02
      1        -15.065390   1.000000
      2        -14.617465   1.000000
      3          2.948130   0.000000
      4          5.443405   0.000000
      5          6.409068   0.000000
      6         11.995114   0.000000
      7         13.029924   0.000000
      8         13.166738   0.000000
      9         14.412014   0.000000
     10         17.985397   0.000000
     11         20.241077   0.000000
     12         21.418204   0.000000
     13         21.424396   0.000000
     14         24.314091   0.000000
     15         24.547893   0.000000
     16         28.784981   0.000000
     17         29.155382   0.000000
     18         30.633200   0.000000
     19         31.491468   0.000000
     20         33.943909   0.000000
     21         36.370254   0.000000
     22         36.837603   0.000000
     23         37.017490   0.000000
     24         37.559203   0.000000
     25         39.427330   0.000000
     26         39.687348   0.000000
     27         40.154601   0.000000
     28         40.162411   0.000000
     29         42.673164   0.000000
     30         44.617678   0.000000
     31         44.635550   0.000000
     32         45.836813   0.000000
     33         49.891574   0.000000
     34         51.303264   0.000000
     35         52.368477   0.000000
     36         52.750742   0.000000
     37         53.548132   0.000000
     38         55.130302   0.000000
     39         55.602702   0.000000
     40         55.722930   0.000000
     41         57.615652   0.000000
     42         58.430944   0.000000
     43         60.645385   0.000000
     44         62.582616   0.000000
     45         62.836508   0.000000
     46         63.754851   0.000000
     47         65.047507   0.000000
     48         66.416049   0.000000
 
  0.4166667E+00 -0.3409612E-16  0.0000000E+00  0.3472222E-02
      1        -14.895154   1.000000
      2        -14.594677   1.000000
      3          3.042952   0.000000
      4          5.616605   0.000000
      5          6.851563   0.000000
      6         10.841155   0.000000
      7         11.770577   0.000000
      8         12.561518   0.000000
      9         13.120634   0.000000
     10         17.562728   0.000000
     11         19.917183   0.000000
     12         20.939323   0.000000
     13         22.142886   0.000000
     14         24.974769   0.000000
     15         25.493816   0.000000
     16         29.208679   0.000000
     17         30.225043   0.000000
     18         31.162026   0.000000
     19         32.465914   0.000000
     20         36.708285   0.000000
     21         37.531178   0.000000
     22         37.899908   0.000000
     23         37.980002   0.000000
     24         38.910259   0.000000
     25         39.598153   0.000000
     26         40.416049   0.000000
     27         40.747975   0.000000
     28         40.983961   0.000000
     29         42.226228   0.000000
     30         43.054414   0.000000
     31         45.658408   0.000000
     32         45.849723   0.000000
     33         48.098159   0.000000
     34         48.389379   0.000000
     35         49.884238   0.000000
     36         52.542461   0.000000
     37         53.543575   0.000000
     38         55.676472   0.000000
     39         56.065001   0.000000
     40         58.414250   0.000000
     41         58.991586   0.000000
     42         59.385703   0.000000
     43         59.523248   0.000000
     44         60.774616   0.000000
     45         60.935837   0.000000
     46         62.218560   0.000000
     47         64.920420   0.000000
     48         65.601960   0.000000
 
  0.5000000E+00  0.2613311E-16  0.0000000E+00  0.1736111E-02
      1        -14.820265   1.000000
      2        -14.597770   1.000000
      3          3.109424   0.000000
      4          5.294389   0.000000
      5          8.140169   0.000000
      6          9.243255   0.000000
      7         11.886977   0.000000
      8         12.404877   0.000000
      9         12.504580   0.000000
     10         17.418691   0.000000
     11         19.799144   0.000000
     12         20.777561   0.000000
     13         22.512687   0.000000
     14         24.907482   0.000000
     15         26.767870   0.000000
     16         27.575409   0.000000
     17         30.331807   0.000000
     18         32.714940   0.000000
     19         35.943597   0.000000
     20         36.009134   0.000000
     21         36.150513   0.000000
     22         37.974802   0.000000
     23         38.115394   0.000000
     24         38.438492   0.000000
     25         39.021676   0.000000
     26         40.870818   0.000000
     27         41.595647   0.000000
     28         42.218933   0.000000
     29         44.100024   0.000000
     30         44.190758   0.000000
     31         44.262237   0.000000
     32         44.513069   0.000000
     33         47.313162   0.000000
     34         48.078506   0.000000
     35         49.265925   0.000000
     36         52.004064   0.000000
     37         55.128403   0.000000
     38         55.553456   0.000000
     39         56.149827   0.000000
     40         57.063858   0.000000
     41         58.207047   0.000000
     42         59.011638   0.000000
     43         61.471270   0.000000
     44         62.456968   0.000000
     45         62.589199   0.000000
     46         62.595046   0.000000
     47         62.670751   0.000000
     48         62.799605   0.000000
 
  0.1666667E+00  0.8333333E-01  0.0000000E+00  0.3472222E-02
      1        -15.486259   1.000000
      2        -14.760230   1.000000
      3          2.963202   0.000000
      4          3.369065   0.000000
      5          8.496081   0.000000
      6         14.298573   0.000000
      7         15.543294   0.000000
      8         18.893870   0.000000
      9         19.083144   0.000000
     10         19.490728   0.000000
     11         19.970998   0.000000
     12         21.410742   0.000000
     13         21.562137   0.000000
     14         22.466617   0.000000
     15         23.957102   0.000000
     16         25.224335   0.000000
     17         26.518476   0.000000
     18         26.939828   0.000000
     19         27.216703   0.000000
     20         29.073973   0.000000
     21         30.028910   0.000000
     22         32.448738   0.000000
     23         33.196323   0.000000
     24         34.353310   0.000000
     25         38.001035   0.000000
     26         39.304799   0.000000
     27         40.258050   0.000000
     28         42.839898   0.000000
     29         43.934053   0.000000
     30         44.775333   0.000000
     31         45.447802   0.000000
     32         48.926667   0.000000
     33         49.617633   0.000000
     34         50.176337   0.000000
     35         51.955202   0.000000
     36         52.560213   0.000000
     37         54.809635   0.000000
     38         55.324940   0.000000
     39         56.703554   0.000000
     40         57.495424   0.000000
     41         59.182466   0.000000
     42         62.161728   0.000000
     43         63.018653   0.000000
     44         63.856396   0.000000
     45         64.604144   0.000000
     46         67.959900   0.000000
     47         68.038640   0.000000
     48         69.679554   0.000000
 
  0.2500000E+00  0.8333333E-01  0.0000000E+00  0.6944444E-02
      1        -15.333274   1.000000
      2        -14.698779   1.000000
      3          2.932301   0.000000
      4          4.009601   0.000000
      5          7.790571   0.000000
      6         12.504684   0.000000
      7         14.460357   0.000000
      8         17.066115   0.000000
      9         17.877708   0.000000
     10         18.846007   0.000000
     11         19.622186   0.000000
     12         20.245064   0.000000
     13         22.339285   0.000000
     14         22.363411   0.000000
     15         24.998279   0.000000
     16         25.880810   0.000000
     17         26.948899   0.000000
     18         29.495726   0.000000
     19         29.582869   0.000000
     20         31.573768   0.000000
     21         32.143395   0.000000
     22         35.126222   0.000000
     23         35.387929   0.000000
     24         35.626954   0.000000
     25         37.353880   0.000000
     26         37.449223   0.000000
     27         38.426386   0.000000
     28         42.149043   0.000000
     29         43.879282   0.000000
     30         44.679423   0.000000
     31         47.480296   0.000000
     32         47.614287   0.000000
     33         50.628956   0.000000
     34         52.307849   0.000000
     35         52.825285   0.000000
     36         52.966600   0.000000
     37         54.911059   0.000000
     38         55.477812   0.000000
     39         56.589451   0.000000
     40         56.758739   0.000000
     41         56.992426   0.000000
     42         58.544191   0.000000
     43         58.671108   0.000000
     44         62.818788   0.000000
     45         63.507778   0.000000
     46         63.690705   0.000000
     47         67.249862   0.000000
     48         68.643159   0.000000
 
  0.3333333E+00  0.8333333E-01  0.0000000E+00  0.6944444E-02
      1        -15.142304   1.000000
      2        -14.635706   1.000000
      3          2.950590   0.000000
      4          4.967255   0.000000
      5          6.926133   0.000000
      6         11.200874   0.000000
      7         13.300567   0.000000
      8         14.522118   0.000000
      9         16.334538   0.000000
     10         18.322684   0.000000
     11         18.573811   0.000000
     12         21.193260   0.000000
     13         22.774398   0.000000
     14         23.666083   0.000000
     15         25.187356   0.000000
     16         26.518193   0.000000
     17         29.173768   0.000000
     18         31.169222   0.000000
     19         32.204482   0.000000
     20         32.876011   0.000000
     21         33.053750   0.000000
     22         35.655895   0.000000
     23         36.282850   0.000000
     24         37.301280   0.000000
     25         38.186541   0.000000
     26         38.705836   0.000000
     27         41.353477   0.000000
     28         42.141673   0.000000
     29         42.656472   0.000000
     30         43.088497   0.000000
     31         46.152537   0.000000
     32         48.391111   0.000000
     33         49.604068   0.000000
     34         50.389821   0.000000
     35         52.115867   0.000000
     36         52.987355   0.000000
     37         54.958182   0.000000
     38         55.168440   0.000000
     39         55.911294   0.000000
     40         57.684243   0.000000
     41         57.974961   0.000000
     42         58.185776   0.000000
     43         60.626074   0.000000
     44         60.895443   0.000000
     45         62.293814   0.000000
     46         63.627204   0.000000
     47         64.615460   0.000000
     48         64.662092   0.000000
 
  0.4166667E+00  0.8333333E-01  0.0000000E+00  0.6944444E-02
      1        -14.955100   1.000000
      2        -14.597003   1.000000
      3          3.051642   0.000000
      4          6.055456   0.000000
      5          6.233011   0.000000
      6         10.510688   0.000000
      7         12.069356   0.000000
      8         12.283167   0.000000
      9         15.339895   0.000000
     10         17.930315   0.000000
     11         17.935430   0.000000
     12         21.935422   0.000000
     13         23.091218   0.000000
     14         24.949023   0.000000
     15         25.365205   0.000000
     16         28.281211   0.000000
     17         30.226531   0.000000
     18         30.413867   0.000000
     19         32.649940   0.000000
     20         35.123933   0.000000
     21         35.217596   0.000000
     22         36.363383   0.000000
     23         37.124274   0.000000
     24         38.175638   0.000000
     25         40.448096   0.000000
     26         40.611318   0.000000
     27         40.855029   0.000000
     28         42.916497   0.000000
     29         42.946083   0.000000
     30         43.833376   0.000000
     31         44.786829   0.000000
     32         47.278692   0.000000
     33         47.622600   0.000000
     34         49.030442   0.000000
     35         51.467111   0.000000
     36         53.256851   0.000000
     37         53.629469   0.000000
     38         54.782608   0.000000
     39         56.676749   0.000000
     40         57.209522   0.000000
     41         57.855022   0.000000
     42         60.122808   0.000000
     43         60.260729   0.000000
     44         61.851243   0.000000
     45         61.951821   0.000000
     46         62.856321   0.000000
     47         64.426195   0.000000
     48         64.885274   0.000000
 
  0.5000000E+00  0.8333333E-01  0.0000000E+00  0.6944444E-02
      1        -14.825081   1.000000
      2        -14.594033   1.000000
      3          3.187076   0.000000
      4          5.458031   0.000000
      5          7.742762   0.000000
      6          9.948793   0.000000
      7         10.298521   0.000000
      8         11.632548   0.000000
      9         14.866913   0.000000
     10         17.620436   0.000000
     11         17.721644   0.000000
     12         22.458425   0.000000
     13         23.084329   0.000000
     14         25.345599   0.000000
     15         26.497666   0.000000
     16         28.337193   0.000000
     17         29.831532   0.000000
     18         31.042223   0.000000
     19         34.510794   0.000000
     20         35.748600   0.000000
     21         35.776781   0.000000
     22         36.712688   0.000000
     23         37.943891   0.000000
     24         39.433523   0.000000
     25         39.658228   0.000000
     26         40.734299   0.000000
     27         41.501930   0.000000
     28         42.429586   0.000000
     29         43.420292   0.000000
     30         45.070898   0.000000
     31         45.482001   0.000000
     32         45.784291   0.000000
     33         47.866235   0.000000
     34         49.241670   0.000000
     35         50.863713   0.000000
     36         52.652666   0.000000
     37         52.821848   0.000000
     38         54.946539   0.000000
     39         56.618612   0.000000
     40         57.837223   0.000000
     41         57.880323   0.000000
     42         59.312970   0.000000
     43         59.616973   0.000000
     44         60.332748   0.000000
     45         62.030656   0.000000
     46         62.644295   0.000000
     47         62.833979   0.000000
     48         63.505278   0.000000
 
  0.3333333E+00  0.1666667E+00  0.0000000E+00  0.3472222E-02
      1        -15.169884   1.000000
      2        -14.642991   1.000000
      3          2.965046   0.000000
      4          4.808201   0.000000
      5          7.236492   0.000000
      6         10.608607   0.000000
      7         13.353778   0.000000
      8         15.621459   0.000000
      9         17.211276   0.000000
     10         18.180017   0.000000
     11         18.327767   0.000000
     12         20.677865   0.000000
     13         22.865944   0.000000
     14         22.905278   0.000000
     15         25.784807   0.000000
     16         28.298834   0.000000
     17         28.655727   0.000000
     18         29.079752   0.000000
     19         32.018178   0.000000
     20         32.136744   0.000000
     21         33.910765   0.000000
     22         34.916423   0.000000
     23         35.923414   0.000000
     24         35.965763   0.000000
     25         37.960430   0.000000
     26         39.606942   0.000000
     27         40.451746   0.000000
     28         42.120875   0.000000
     29         43.268095   0.000000
     30         45.990602   0.000000
     31         46.282065   0.000000
     32         46.927267   0.000000
     33         47.850615   0.000000
     34         51.942907   0.000000
     35         52.164193   0.000000
     36         53.435369   0.000000
     37         54.901489   0.000000
     38         55.181144   0.000000
     39         58.080136   0.000000
     40         58.250559   0.000000
     41         58.806136   0.000000
     42         58.807906   0.000000
     43         59.171529   0.000000
     44         59.530038   0.000000
     45         61.887650   0.000000
     46         63.587203   0.000000
     47         63.659105   0.000000
     48         65.278342   0.000000
 
  0.4166667E+00  0.1666667E+00  0.0000000E+00  0.6944444E-02
      1        -14.989458   1.000000
      2        -14.598864   1.000000
      3          3.104720   0.000000
      4          5.920208   0.000000
      5          6.627974   0.000000
      6          9.215439   0.000000
      7         12.101894   0.000000
      8         13.500441   0.000000
      9         15.908362   0.000000
     10         17.661192   0.000000
     11         18.294964   0.000000
     12         21.822276   0.000000
     13         23.794111   0.000000
     14         24.036177   0.000000
     15         26.967626   0.000000
     16         27.722063   0.000000
     17         29.632136   0.000000
     18         31.106425   0.000000
     19         32.148270   0.000000
     20         33.445326   0.000000
     21         33.944418   0.000000
     22         34.715609   0.000000
     23         35.693226   0.000000
     24         37.886980   0.000000
     25         39.722954   0.000000
     26         40.612413   0.000000
     27         42.812023   0.000000
     28         43.019828   0.000000
     29         44.911158   0.000000
     30         45.093890   0.000000
     31         46.111647   0.000000
     32         47.268424   0.000000
     33         47.721031   0.000000
     34         49.576663   0.000000
     35         49.692475   0.000000
     36         53.367800   0.000000
     37         54.160480   0.000000
     38         56.356514   0.000000
     39         56.727278   0.000000
     40         58.572957   0.000000
     41         58.941126   0.000000
     42         59.529043   0.000000
     43         61.166152   0.000000
     44         61.398456   0.000000
     45         61.611599   0.000000
     46         62.495350   0.000000
     47         63.418412   0.000000
     48         64.062987   0.000000
 
  0.5000000E+00  0.1666667E+00  0.0000000E+00  0.6944444E-02
      1        -14.833963   1.000000
      2        -14.586684   1.000000
      3          3.350801   0.000000
      4          5.943214   0.000000
      5          7.325305   0.000000
      6          8.554741   0.000000
      7         11.155624   0.000000
      8         11.265113   0.000000
      9         15.330931   0.000000
     10         17.234886   0.000000
     11         18.259378   0.000000
     12         22.558994   0.000000
     13         24.828782   0.000000
     14         25.837964   0.000000
     15         27.461160   0.000000
     16         27.921909   0.000000
     17         29.730213   0.000000
     18         29.952126   0.000000
     19         33.344328   0.000000
     20         33.346038   0.000000
     21         34.230912   0.000000
     22         35.536839   0.000000
     23         36.350345   0.000000
     24         38.529181   0.000000
     25         39.405173   0.000000
     26         42.903633   0.000000
     27         43.155467   0.000000
     28         44.130688   0.000000
     29         44.599234   0.000000
     30         45.272627   0.000000
     31         47.114496   0.000000
     32         47.135071   0.000000
     33         49.726678   0.000000
     34         50.149619   0.000000
     35         51.352341   0.000000
     36         53.127254   0.000000
     37         53.242616   0.000000
     38         54.577480   0.000000
     39         55.462049   0.000000
     40         57.409139   0.000000
     41         58.113379   0.000000
     42         58.322486   0.000000
     43         59.208795   0.000000
     44         59.893454   0.000000
     45         60.912751   0.000000
     46         62.640867   0.000000
     47         62.913516   0.000000
     48         63.221905   0.000000
 
 -0.4166667E+00  0.1666667E+00  0.0000000E+00  0.3472222E-02
      1        -14.762564   1.000000
      2        -14.595983   1.000000
      3          3.513444   0.000000
      4          5.582323   0.000000
      5          8.407038   0.000000
      6          8.619104   0.000000
      7          9.678257   0.000000
      8         10.793594   0.000000
      9         15.152436   0.000000
     10         17.085543   0.000000
     11         18.244169   0.000000
     12         22.785719   0.000000
     13         25.353777   0.000000
     14         26.634918   0.000000
     15         27.906575   0.000000
     16         28.329875   0.000000
     17         29.163899   0.000000
     18         29.801738   0.000000
     19         31.939954   0.000000
     20         33.383302   0.000000
     21         34.801561   0.000000
     22         35.870001   0.000000
     23         38.857319   0.000000
     24         39.007359   0.000000
     25         39.142505   0.000000
     26         39.862800   0.000000
     27         42.856491   0.000000
     28         44.694006   0.000000
     29         45.192005   0.000000
     30         46.997262   0.000000
     31         47.671071   0.000000
     32         49.496131   0.000000
     33         50.247029   0.000000
     34         50.464628   0.000000
     35         50.661892   0.000000
     36         52.224755   0.000000
     37         54.641769   0.000000
     38         55.231332   0.000000
     39         55.463567   0.000000
     40         55.534312   0.000000
     41         57.327498   0.000000
     42         57.350169   0.000000
     43         58.751773   0.000000
     44         58.979715   0.000000
     45         59.838403   0.000000
     46         60.083604   0.000000
     47         60.890880   0.000000
     48         61.220203   0.000000
 
  0.5000000E+00  0.2500000E+00  0.0000000E+00  0.3472222E-02
      1        -14.838294   1.000000
      2        -14.583203   1.000000
      3          3.437037   0.000000
      4          6.458819   0.000000
      5          7.177772   0.000000
      6          7.603892   0.000000
      7         10.936905   0.000000
      8         12.416213   0.000000