 DBCSR| CPU Multiplication driver                                           BLAS (U)
 DBCSR| Multrec recursion limit                                              512 (U)
 DBCSR| Multiplication stack size                                           1000 (D)
 DBCSR| Maximum elements for images                                    UNLIMITED (U)
 DBCSR| Multiplicative factor virtual images                                   1 (U)
 DBCSR| Use multiplication densification                                       T (D)
 DBCSR| Multiplication size stacks                                             3 (U)
 DBCSR| Use memory pool for CPU allocation                                     F (U)
 DBCSR| Number of 3D layers                                               SINGLE (U)
 DBCSR| Use MPI memory allocation                                              F (U)
 DBCSR| Use RMA algorithm                                                      F (U)
 DBCSR| Use Communication thread                                               T (U)
 DBCSR| Communication thread load                                             45 (D)
 DBCSR| MPI: My process id                                                     0
 DBCSR| MPI: Number of processes                                               8
 DBCSR| OMP: Current number of threads                                        12
 DBCSR| OMP: Max number of threads                                            12
 DBCSR| Split modifier for TAS multiplication algorithm                  1.0E+00 (U)


  **** **** ******  **  PROGRAM STARTED AT               2025-08-04 23:18:58.573
 ***** ** ***  *** **   PROGRAM STARTED ON                          i01r06c06s09
 **    ****   ******    PROGRAM STARTED BY                               di38fab
 ***** **    ** ** **   PROGRAM PROCESS ID                               2301484
  **** **  *******  **  PROGRAM STARTED IN /hppfs/scratch/04/di38fab/09_GTH/Delt
                                           a_Set/P/aug-DZVP-MOLOPT-GTH-tier-1/8x
                                           8x8

 CP2K| version string:                 CP2K version 2025.1 (Development Version)
 CP2K| source code revision number:                                  git:3130539
 CP2K| cp2kflags: omp libint fftw3 libxc parallel scalapack max_contr=4         
 CP2K| is freely available from                            https://www.cp2k.org/
 CP2K| Program compiled at                         Tue Jun  3 16:14:32 CEST 2025
 CP2K| Program compiled on                                               login01
 CP2K| Program compiled for                                        Supermuc-foss
 CP2K| Data directory path                  /hppfs/work/pn36zo/di38fab/cp2k/data
 CP2K| Input file name                                                    GW.inp

 GLOBAL| Force Environment number                                              1
 GLOBAL| Basis set file name            /hppfs/scratch/04/di38fab/09_GTH/BASIS_A
 GLOBAL| Potential file name            /hppfs/work/pn36zo/di38fab/cp2k/data/GTH
 GLOBAL| MM Potential file name                                     MM_POTENTIAL
 GLOBAL| Coordinate file name                                              P.cif
 GLOBAL| Method name                                                        CP2K
 GLOBAL| Project name                                                       WSe2
 GLOBAL| Run type                                                         ENERGY
 GLOBAL| FFT library                                                       FFTW3
 GLOBAL| Diagonalization library                                       ScaLAPACK
 GLOBAL| Cholesky decomposition library                                ScaLAPACK
 GLOBAL| DGEMM library                                                      BLAS
 GLOBAL| Orthonormality check for eigenvectors                          DISABLED
 GLOBAL| Matrix multiplication library                                 ScaLAPACK
 GLOBAL| All-to-all communication in single precision                          F
 GLOBAL| FFTs using library dependent lengths                                  F
 GLOBAL| Grid backend                                                       AUTO
 GLOBAL| Global print level                                               MEDIUM
 GLOBAL| MPI I/O enabled                                                       T
 GLOBAL| Total number of message passing processes                             8
 GLOBAL| Number of threads for this process                                   12
 GLOBAL| This output is from process                                           0
 GLOBAL| OpenMP stack size per thread (OMP_STACKSIZE)                    default
 GLOBAL| CPU model name             Intel(R) Xeon(R) Platinum 8174 CPU @ 3.10GHz

 MEMORY| system memory details [Kb]
 MEMORY|                        rank 0           min           max       average
 MEMORY| MemTotal             98436660      98436660      98436664      98436662
 MEMORY| MemFree              84694612      84694612      84736776      84715694
 MEMORY| Buffers                     0             0             0             0
 MEMORY| Cached                2347800       2347800       2393136       2370468
 MEMORY| Slab                  1277624       1277624       1299944       1288784
 MEMORY| SReclaimable           267700        267700        288584        278142
 MEMORY| MemLikelyFree        87310112      87310112      87418496      87364304


 *** Fundamental physical constants (SI units) ***

 *** Literature: B. J. Mohr and B. N. Taylor,
 ***             CODATA recommended values of the fundamental physical
 ***             constants: 2006, Web Version 5.1
 ***             http://physics.nist.gov/constants

 Speed of light in vacuum [m/s]                             2.99792458000000E+08
 Magnetic constant or permeability of vacuum [N/A**2]       1.25663706143592E-06
 Electric constant or permittivity of vacuum [F/m]          8.85418781762039E-12
 Planck constant (h) [J*s]                                  6.62606896000000E-34
 Planck constant (h-bar) [J*s]                              1.05457162825177E-34
 Elementary charge [C]                                      1.60217648700000E-19
 Electron mass [kg]                                         9.10938215000000E-31
 Electron g factor [ ]                                     -2.00231930436220E+00
 Proton mass [kg]                                           1.67262163700000E-27
 Fine-structure constant                                    7.29735253760000E-03
 Rydberg constant [1/m]                                     1.09737315685270E+07
 Avogadro constant [1/mol]                                  6.02214179000000E+23
 Boltzmann constant [J/K]                                   1.38065040000000E-23
 Atomic mass unit [kg]                                      1.66053878200000E-27
 Bohr radius [m]                                            5.29177208590000E-11

 *** Conversion factors ***

 [u] -> [a.u.]                                              1.82288848426455E+03
 [Angstrom] -> [Bohr] = [a.u.]                              1.88972613288564E+00
 [a.u.] = [Bohr] -> [Angstrom]                              5.29177208590000E-01
 [a.u.] -> [s]                                              2.41888432650478E-17
 [a.u.] -> [fs]                                             2.41888432650478E-02
 [a.u.] -> [J]                                              4.35974393937059E-18
 [a.u.] -> [N]                                              8.23872205491840E-08
 [a.u.] -> [K]                                              3.15774647902944E+05
 [a.u.] -> [kJ/mol]                                         2.62549961709828E+03
 [a.u.] -> [kcal/mol]                                       6.27509468713739E+02
 [a.u.] -> [Pa]                                             2.94210107994716E+13
 [a.u.] -> [bar]                                            2.94210107994716E+08
 [a.u.] -> [atm]                                            2.90362800883016E+08
 [a.u.] -> [eV]                                             2.72113838565563E+01
 [a.u.] -> [Hz]                                             6.57968392072181E+15
 [a.u.] -> [1/cm] (wave numbers)                            2.19474631370540E+05
 [a.u./Bohr**2] -> [1/cm]                                   5.14048714338585E+03
 

 CELL_TOP| Volume [angstrom^3]:                                       171.034074
 CELL_TOP| Vector a [angstrom     3.305     0.000     0.000   |a| =     3.304660
 CELL_TOP| Vector b [angstrom     0.000    11.317     0.000   |b| =    11.316940
 CELL_TOP| Vector c [angstrom     0.000     0.000     4.573   |c| =     4.573270
 CELL_TOP| Angle (b,c), alpha [degree]:                                90.000000
 CELL_TOP| Angle (a,c), beta  [degree]:                                90.000000
 CELL_TOP| Angle (a,b), gamma [degree]:                                90.000000
 CELL_TOP| Numerically orthorhombic:                                         YES
 CELL_TOP| Periodicity                                                       XYZ

 CELL_CIF| Volume [angstrom^3]:                                       171.034074
 CELL_CIF| Vector a [angstrom     3.305     0.000     0.000   |a| =     3.304660
 CELL_CIF| Vector b [angstrom     0.000    11.317     0.000   |b| =    11.316940
 CELL_CIF| Vector c [angstrom     0.000     0.000     4.573   |c| =     4.573270
 CELL_CIF| Angle (b,c), alpha [degree]:                                90.000000
 CELL_CIF| Angle (a,c), beta  [degree]:                                90.000000
 CELL_CIF| Angle (a,b), gamma [degree]:                                90.000000
 CELL_CIF| Numerically orthorhombic:                                         YES
 CELL_CIF| Periodicity                                                       XYZ

 GENERATE|  Preliminary Number of Bonds generated:                             0
 GENERATE|  Achieved consistency in connectivity generation.

 CELL| Volume [angstrom^3]:                                           171.034074
 CELL| Vector a [angstrom]:       3.305     0.000     0.000   |a| =     3.304660
 CELL| Vector b [angstrom]:       0.000    11.317     0.000   |b| =    11.316940
 CELL| Vector c [angstrom]:       0.000     0.000     4.573   |c| =     4.573270
 CELL| Angle (b,c), alpha [degree]:                                    90.000000
 CELL| Angle (a,c), beta  [degree]:                                    90.000000
 CELL| Angle (a,b), gamma [degree]:                                    90.000000
 CELL| Numerically orthorhombic:                                             YES
 CELL| Periodicity                                                           XYZ

 CELL_REF| Volume [angstrom^3]:                                       171.034074
 CELL_REF| Vector a [angstrom     3.305     0.000     0.000   |a| =     3.304660
 CELL_REF| Vector b [angstrom     0.000    11.317     0.000   |b| =    11.316940
 CELL_REF| Vector c [angstrom     0.000     0.000     4.573   |c| =     4.573270
 CELL_REF| Angle (b,c), alpha [degree]:                                90.000000
 CELL_REF| Angle (a,c), beta  [degree]:                                90.000000
 CELL_REF| Angle (a,b), gamma [degree]:                                90.000000
 CELL_REF| Numerically orthorhombic:                                         YES
 CELL_REF| Periodicity                                                       XYZ

 *** WARNING in cryssym.F:180 :: Symmetry library SPGLIB not available ***


 *******************************************************************************
                                    Kpoints
 *******************************************************************************
 BRILLOUIN| K-point scheme                                        Monkhorst-Pack
 BRILLOUIN| K-Point grid                                             8    8    8
 BRILLOUIN| Accuracy in Symmetry determination                      0.100000E-05
 BRILLOUIN| K-Point point group symmetrization                               OFF
 BRILLOUIN| Wavefunction type                                            COMPLEX
 BRILLOUIN| List of Kpoints [2 Pi/Bohr]                                      256
 BRILLOUIN| Number           Weight            X              Y              Z
 BRILLOUIN|     1           0.00391       -0.43750       -0.43750       -0.43750
 BRILLOUIN|     2           0.00391       -0.43750       -0.43750       -0.31250
 BRILLOUIN|     3           0.00391       -0.43750       -0.43750       -0.18750
 BRILLOUIN|     4           0.00391       -0.43750       -0.43750       -0.06250
 BRILLOUIN|     5           0.00391       -0.43750       -0.43750        0.06250
 BRILLOUIN|     6           0.00391       -0.43750       -0.43750        0.18750
 BRILLOUIN|     7           0.00391       -0.43750       -0.43750        0.31250
 BRILLOUIN|     8           0.00391       -0.43750       -0.43750        0.43750
 BRILLOUIN|     9           0.00391       -0.43750       -0.31250       -0.43750
 BRILLOUIN|    10           0.00391       -0.43750       -0.31250       -0.31250
 BRILLOUIN|    11           0.00391       -0.43750       -0.31250       -0.18750
 BRILLOUIN|    12           0.00391       -0.43750       -0.31250       -0.06250
 BRILLOUIN|    13           0.00391       -0.43750       -0.31250        0.06250
 BRILLOUIN|    14           0.00391       -0.43750       -0.31250        0.18750
 BRILLOUIN|    15           0.00391       -0.43750       -0.31250        0.31250
 BRILLOUIN|    16           0.00391       -0.43750       -0.31250        0.43750
 BRILLOUIN|    17           0.00391       -0.43750       -0.18750       -0.43750
 BRILLOUIN|    18           0.00391       -0.43750       -0.18750       -0.31250
 BRILLOUIN|    19           0.00391       -0.43750       -0.18750       -0.18750
 BRILLOUIN|    20           0.00391       -0.43750       -0.18750       -0.06250
 BRILLOUIN|    21           0.00391       -0.43750       -0.18750        0.06250
 BRILLOUIN|    22           0.00391       -0.43750       -0.18750        0.18750
 BRILLOUIN|    23           0.00391       -0.43750       -0.18750        0.31250
 BRILLOUIN|    24           0.00391       -0.43750       -0.18750        0.43750
 BRILLOUIN|    25           0.00391       -0.43750       -0.06250       -0.43750
 BRILLOUIN|    26           0.00391       -0.43750       -0.06250       -0.31250
 BRILLOUIN|    27           0.00391       -0.43750       -0.06250       -0.18750
 BRILLOUIN|    28           0.00391       -0.43750       -0.06250       -0.06250
 BRILLOUIN|    29           0.00391       -0.43750       -0.06250        0.06250
 BRILLOUIN|    30           0.00391       -0.43750       -0.06250        0.18750
 BRILLOUIN|    31           0.00391       -0.43750       -0.06250        0.31250
 BRILLOUIN|    32           0.00391       -0.43750       -0.06250        0.43750
 BRILLOUIN|    33           0.00391       -0.43750        0.06250       -0.43750
 BRILLOUIN|    34           0.00391       -0.43750        0.06250       -0.31250
 BRILLOUIN|    35           0.00391       -0.43750        0.06250       -0.18750
 BRILLOUIN|    36           0.00391       -0.43750        0.06250       -0.06250
 BRILLOUIN|    37           0.00391       -0.43750        0.06250        0.06250
 BRILLOUIN|    38           0.00391       -0.43750        0.06250        0.18750
 BRILLOUIN|    39           0.00391       -0.43750        0.06250        0.31250
 BRILLOUIN|    40           0.00391       -0.43750        0.06250        0.43750
 BRILLOUIN|    41           0.00391       -0.43750        0.18750       -0.43750
 BRILLOUIN|    42           0.00391       -0.43750        0.18750       -0.31250
 BRILLOUIN|    43           0.00391       -0.43750        0.18750       -0.18750
 BRILLOUIN|    44           0.00391       -0.43750        0.18750       -0.06250
 BRILLOUIN|    45           0.00391       -0.43750        0.18750        0.06250
 BRILLOUIN|    46           0.00391       -0.43750        0.18750        0.18750
 BRILLOUIN|    47           0.00391       -0.43750        0.18750        0.31250
 BRILLOUIN|    48           0.00391       -0.43750        0.18750        0.43750
 BRILLOUIN|    49           0.00391       -0.43750        0.31250       -0.43750
 BRILLOUIN|    50           0.00391       -0.43750        0.31250       -0.31250
 BRILLOUIN|    51           0.00391       -0.43750        0.31250       -0.18750
 BRILLOUIN|    52           0.00391       -0.43750        0.31250       -0.06250
 BRILLOUIN|    53           0.00391       -0.43750        0.31250        0.06250
 BRILLOUIN|    54           0.00391       -0.43750        0.31250        0.18750
 BRILLOUIN|    55           0.00391       -0.43750        0.31250        0.31250
 BRILLOUIN|    56           0.00391       -0.43750        0.31250        0.43750
 BRILLOUIN|    57           0.00391       -0.43750        0.43750       -0.43750
 BRILLOUIN|    58           0.00391       -0.43750        0.43750       -0.31250
 BRILLOUIN|    59           0.00391       -0.43750        0.43750       -0.18750
 BRILLOUIN|    60           0.00391       -0.43750        0.43750       -0.06250
 BRILLOUIN|    61           0.00391       -0.43750        0.43750        0.06250
 BRILLOUIN|    62           0.00391       -0.43750        0.43750        0.18750
 BRILLOUIN|    63           0.00391       -0.43750        0.43750        0.31250
 BRILLOUIN|    64           0.00391       -0.43750        0.43750        0.43750
 BRILLOUIN|    65           0.00391       -0.31250       -0.43750       -0.43750
 BRILLOUIN|    66           0.00391       -0.31250       -0.43750       -0.31250
 BRILLOUIN|    67           0.00391       -0.31250       -0.43750       -0.18750
 BRILLOUIN|    68           0.00391       -0.31250       -0.43750       -0.06250
 BRILLOUIN|    69           0.00391       -0.31250       -0.43750        0.06250
 BRILLOUIN|    70           0.00391       -0.31250       -0.43750        0.18750
 BRILLOUIN|    71           0.00391       -0.31250       -0.43750        0.31250
 BRILLOUIN|    72           0.00391       -0.31250       -0.43750        0.43750
 BRILLOUIN|    73           0.00391       -0.31250       -0.31250       -0.43750
 BRILLOUIN|    74           0.00391       -0.31250       -0.31250       -0.31250
 BRILLOUIN|    75           0.00391       -0.31250       -0.31250       -0.18750
 BRILLOUIN|    76           0.00391       -0.31250       -0.31250       -0.06250
 BRILLOUIN|    77           0.00391       -0.31250       -0.31250        0.06250
 BRILLOUIN|    78           0.00391       -0.31250       -0.31250        0.18750
 BRILLOUIN|    79           0.00391       -0.31250       -0.31250        0.31250
 BRILLOUIN|    80           0.00391       -0.31250       -0.31250        0.43750
 BRILLOUIN|    81           0.00391       -0.31250       -0.18750       -0.43750
 BRILLOUIN|    82           0.00391       -0.31250       -0.18750       -0.31250
 BRILLOUIN|    83           0.00391       -0.31250       -0.18750       -0.18750
 BRILLOUIN|    84           0.00391       -0.31250       -0.18750       -0.06250
 BRILLOUIN|    85           0.00391       -0.31250       -0.18750        0.06250
 BRILLOUIN|    86           0.00391       -0.31250       -0.18750        0.18750
 BRILLOUIN|    87           0.00391       -0.31250       -0.18750        0.31250
 BRILLOUIN|    88           0.00391       -0.31250       -0.18750        0.43750
 BRILLOUIN|    89           0.00391       -0.31250       -0.06250       -0.43750
 BRILLOUIN|    90           0.00391       -0.31250       -0.06250       -0.31250
 BRILLOUIN|    91           0.00391       -0.31250       -0.06250       -0.18750
 BRILLOUIN|    92           0.00391       -0.31250       -0.06250       -0.06250
 BRILLOUIN|    93           0.00391       -0.31250       -0.06250        0.06250
 BRILLOUIN|    94           0.00391       -0.31250       -0.06250        0.18750
 BRILLOUIN|    95           0.00391       -0.31250       -0.06250        0.31250
 BRILLOUIN|    96           0.00391       -0.31250       -0.06250        0.43750
 BRILLOUIN|    97           0.00391       -0.31250        0.06250       -0.43750
 BRILLOUIN|    98           0.00391       -0.31250        0.06250       -0.31250
 BRILLOUIN|    99           0.00391       -0.31250        0.06250       -0.18750
 BRILLOUIN|   100           0.00391       -0.31250        0.06250       -0.06250
 BRILLOUIN|   101           0.00391       -0.31250        0.06250        0.06250
 BRILLOUIN|   102           0.00391       -0.31250        0.06250        0.18750
 BRILLOUIN|   103           0.00391       -0.31250        0.06250        0.31250
 BRILLOUIN|   104           0.00391       -0.31250        0.06250        0.43750
 BRILLOUIN|   105           0.00391       -0.31250        0.18750       -0.43750
 BRILLOUIN|   106           0.00391       -0.31250        0.18750       -0.31250
 BRILLOUIN|   107           0.00391       -0.31250        0.18750       -0.18750
 BRILLOUIN|   108           0.00391       -0.31250        0.18750       -0.06250
 BRILLOUIN|   109           0.00391       -0.31250        0.18750        0.06250
 BRILLOUIN|   110           0.00391       -0.31250        0.18750        0.18750
 BRILLOUIN|   111           0.00391       -0.31250        0.18750        0.31250
 BRILLOUIN|   112           0.00391       -0.31250        0.18750        0.43750
 BRILLOUIN|   113           0.00391       -0.31250        0.31250       -0.43750
 BRILLOUIN|   114           0.00391       -0.31250        0.31250       -0.31250
 BRILLOUIN|   115           0.00391       -0.31250        0.31250       -0.18750
 BRILLOUIN|   116           0.00391       -0.31250        0.31250       -0.06250
 BRILLOUIN|   117           0.00391       -0.31250        0.31250        0.06250
 BRILLOUIN|   118           0.00391       -0.31250        0.31250        0.18750
 BRILLOUIN|   119           0.00391       -0.31250        0.31250        0.31250
 BRILLOUIN|   120           0.00391       -0.31250        0.31250        0.43750
 BRILLOUIN|   121           0.00391       -0.31250        0.43750       -0.43750
 BRILLOUIN|   122           0.00391       -0.31250        0.43750       -0.31250
 BRILLOUIN|   123           0.00391       -0.31250        0.43750       -0.18750
 BRILLOUIN|   124           0.00391       -0.31250        0.43750       -0.06250
 BRILLOUIN|   125           0.00391       -0.31250        0.43750        0.06250
 BRILLOUIN|   126           0.00391       -0.31250        0.43750        0.18750
 BRILLOUIN|   127           0.00391       -0.31250        0.43750        0.31250
 BRILLOUIN|   128           0.00391       -0.31250        0.43750        0.43750
 BRILLOUIN|   129           0.00391       -0.18750       -0.43750       -0.43750
 BRILLOUIN|   130           0.00391       -0.18750       -0.43750       -0.31250
 BRILLOUIN|   131           0.00391       -0.18750       -0.43750       -0.18750
 BRILLOUIN|   132           0.00391       -0.18750       -0.43750       -0.06250
 BRILLOUIN|   133           0.00391       -0.18750       -0.43750        0.06250
 BRILLOUIN|   134           0.00391       -0.18750       -0.43750        0.18750
 BRILLOUIN|   135           0.00391       -0.18750       -0.43750        0.31250
 BRILLOUIN|   136           0.00391       -0.18750       -0.43750        0.43750
 BRILLOUIN|   137           0.00391       -0.18750       -0.31250       -0.43750
 BRILLOUIN|   138           0.00391       -0.18750       -0.31250       -0.31250
 BRILLOUIN|   139           0.00391       -0.18750       -0.31250       -0.18750
 BRILLOUIN|   140           0.00391       -0.18750       -0.31250       -0.06250
 BRILLOUIN|   141           0.00391       -0.18750       -0.31250        0.06250
 BRILLOUIN|   142           0.00391       -0.18750       -0.31250        0.18750
 BRILLOUIN|   143           0.00391       -0.18750       -0.31250        0.31250
 BRILLOUIN|   144           0.00391       -0.18750       -0.31250        0.43750
 BRILLOUIN|   145           0.00391       -0.18750       -0.18750       -0.43750
 BRILLOUIN|   146           0.00391       -0.18750       -0.18750       -0.31250
 BRILLOUIN|   147           0.00391       -0.18750       -0.18750       -0.18750
 BRILLOUIN|   148           0.00391       -0.18750       -0.18750       -0.06250
 BRILLOUIN|   149           0.00391       -0.18750       -0.18750        0.06250
 BRILLOUIN|   150           0.00391       -0.18750       -0.18750        0.18750
 BRILLOUIN|   151           0.00391       -0.18750       -0.18750        0.31250
 BRILLOUIN|   152           0.00391       -0.18750       -0.18750        0.43750
 BRILLOUIN|   153           0.00391       -0.18750       -0.06250       -0.43750
 BRILLOUIN|   154           0.00391       -0.18750       -0.06250       -0.31250
 BRILLOUIN|   155           0.00391       -0.18750       -0.06250       -0.18750
 BRILLOUIN|   156           0.00391       -0.18750       -0.06250       -0.06250
 BRILLOUIN|   157           0.00391       -0.18750       -0.06250        0.06250
 BRILLOUIN|   158           0.00391       -0.18750       -0.06250        0.18750
 BRILLOUIN|   159           0.00391       -0.18750       -0.06250        0.31250
 BRILLOUIN|   160           0.00391       -0.18750       -0.06250        0.43750
 BRILLOUIN|   161           0.00391       -0.18750        0.06250       -0.43750
 BRILLOUIN|   162           0.00391       -0.18750        0.06250       -0.31250
 BRILLOUIN|   163           0.00391       -0.18750        0.06250       -0.18750
 BRILLOUIN|   164           0.00391       -0.18750        0.06250       -0.06250
 BRILLOUIN|   165           0.00391       -0.18750        0.06250        0.06250
 BRILLOUIN|   166           0.00391       -0.18750        0.06250        0.18750
 BRILLOUIN|   167           0.00391       -0.18750        0.06250        0.31250
 BRILLOUIN|   168           0.00391       -0.18750        0.06250        0.43750
 BRILLOUIN|   169           0.00391       -0.18750        0.18750       -0.43750
 BRILLOUIN|   170           0.00391       -0.18750        0.18750       -0.31250
 BRILLOUIN|   171           0.00391       -0.18750        0.18750       -0.18750
 BRILLOUIN|   172           0.00391       -0.18750        0.18750       -0.06250
 BRILLOUIN|   173           0.00391       -0.18750        0.18750        0.06250
 BRILLOUIN|   174           0.00391       -0.18750        0.18750        0.18750
 BRILLOUIN|   175           0.00391       -0.18750        0.18750        0.31250
 BRILLOUIN|   176           0.00391       -0.18750        0.18750        0.43750
 BRILLOUIN|   177           0.00391       -0.18750        0.31250       -0.43750
 BRILLOUIN|   178           0.00391       -0.18750        0.31250       -0.31250
 BRILLOUIN|   179           0.00391       -0.18750        0.31250       -0.18750
 BRILLOUIN|   180           0.00391       -0.18750        0.31250       -0.06250
 BRILLOUIN|   181           0.00391       -0.18750        0.31250        0.06250
 BRILLOUIN|   182           0.00391       -0.18750        0.31250        0.18750
 BRILLOUIN|   183           0.00391       -0.18750        0.31250        0.31250
 BRILLOUIN|   184           0.00391       -0.18750        0.31250        0.43750
 BRILLOUIN|   185           0.00391       -0.18750        0.43750       -0.43750
 BRILLOUIN|   186           0.00391       -0.18750        0.43750       -0.31250
 BRILLOUIN|   187           0.00391       -0.18750        0.43750       -0.18750
 BRILLOUIN|   188           0.00391       -0.18750        0.43750       -0.06250
 BRILLOUIN|   189           0.00391       -0.18750        0.43750        0.06250
 BRILLOUIN|   190           0.00391       -0.18750        0.43750        0.18750
 BRILLOUIN|   191           0.00391       -0.18750        0.43750        0.31250
 BRILLOUIN|   192           0.00391       -0.18750        0.43750        0.43750
 BRILLOUIN|   193           0.00391       -0.06250       -0.43750       -0.43750
 BRILLOUIN|   194           0.00391       -0.06250       -0.43750       -0.31250
 BRILLOUIN|   195           0.00391       -0.06250       -0.43750       -0.18750
 BRILLOUIN|   196           0.00391       -0.06250       -0.43750       -0.06250
 BRILLOUIN|   197           0.00391       -0.06250       -0.43750        0.06250
 BRILLOUIN|   198           0.00391       -0.06250       -0.43750        0.18750
 BRILLOUIN|   199           0.00391       -0.06250       -0.43750        0.31250
 BRILLOUIN|   200           0.00391       -0.06250       -0.43750        0.43750
 BRILLOUIN|   201           0.00391       -0.06250       -0.31250       -0.43750
 BRILLOUIN|   202           0.00391       -0.06250       -0.31250       -0.31250
 BRILLOUIN|   203           0.00391       -0.06250       -0.31250       -0.18750
 BRILLOUIN|   204           0.00391       -0.06250       -0.31250       -0.06250
 BRILLOUIN|   205           0.00391       -0.06250       -0.31250        0.06250
 BRILLOUIN|   206           0.00391       -0.06250       -0.31250        0.18750
 BRILLOUIN|   207           0.00391       -0.06250       -0.31250        0.31250
 BRILLOUIN|   208           0.00391       -0.06250       -0.31250        0.43750
 BRILLOUIN|   209           0.00391       -0.06250       -0.18750       -0.43750
 BRILLOUIN|   210           0.00391       -0.06250       -0.18750       -0.31250
 BRILLOUIN|   211           0.00391       -0.06250       -0.18750       -0.18750
 BRILLOUIN|   212           0.00391       -0.06250       -0.18750       -0.06250
 BRILLOUIN|   213           0.00391       -0.06250       -0.18750        0.06250
 BRILLOUIN|   214           0.00391       -0.06250       -0.18750        0.18750
 BRILLOUIN|   215           0.00391       -0.06250       -0.18750        0.31250
 BRILLOUIN|   216           0.00391       -0.06250       -0.18750        0.43750
 BRILLOUIN|   217           0.00391       -0.06250       -0.06250       -0.43750
 BRILLOUIN|   218           0.00391       -0.06250       -0.06250       -0.31250
 BRILLOUIN|   219           0.00391       -0.06250       -0.06250       -0.18750
 BRILLOUIN|   220           0.00391       -0.06250       -0.06250       -0.06250
 BRILLOUIN|   221           0.00391       -0.06250       -0.06250        0.06250
 BRILLOUIN|   222           0.00391       -0.06250       -0.06250        0.18750
 BRILLOUIN|   223           0.00391       -0.06250       -0.06250        0.31250
 BRILLOUIN|   224           0.00391       -0.06250       -0.06250        0.43750
 BRILLOUIN|   225           0.00391       -0.06250        0.06250       -0.43750
 BRILLOUIN|   226           0.00391       -0.06250        0.06250       -0.31250
 BRILLOUIN|   227           0.00391       -0.06250        0.06250       -0.18750
 BRILLOUIN|   228           0.00391       -0.06250        0.06250       -0.06250
 BRILLOUIN|   229           0.00391       -0.06250        0.06250        0.06250
 BRILLOUIN|   230           0.00391       -0.06250        0.06250        0.18750
 BRILLOUIN|   231           0.00391       -0.06250        0.06250        0.31250
 BRILLOUIN|   232           0.00391       -0.06250        0.06250        0.43750
 BRILLOUIN|   233           0.00391       -0.06250        0.18750       -0.43750
 BRILLOUIN|   234           0.00391       -0.06250        0.18750       -0.31250
 BRILLOUIN|   235           0.00391       -0.06250        0.18750       -0.18750
 BRILLOUIN|   236           0.00391       -0.06250        0.18750       -0.06250
 BRILLOUIN|   237           0.00391       -0.06250        0.18750        0.06250
 BRILLOUIN|   238           0.00391       -0.06250        0.18750        0.18750
 BRILLOUIN|   239           0.00391       -0.06250        0.18750        0.31250
 BRILLOUIN|   240           0.00391       -0.06250        0.18750        0.43750
 BRILLOUIN|   241           0.00391       -0.06250        0.31250       -0.43750
 BRILLOUIN|   242           0.00391       -0.06250        0.31250       -0.31250
 BRILLOUIN|   243           0.00391       -0.06250        0.31250       -0.18750
 BRILLOUIN|   244           0.00391       -0.06250        0.31250       -0.06250
 BRILLOUIN|   245           0.00391       -0.06250        0.31250        0.06250
 BRILLOUIN|   246           0.00391       -0.06250        0.31250        0.18750
 BRILLOUIN|   247           0.00391       -0.06250        0.31250        0.31250
 BRILLOUIN|   248           0.00391       -0.06250        0.31250        0.43750
 BRILLOUIN|   249           0.00391       -0.06250        0.43750       -0.43750
 BRILLOUIN|   250           0.00391       -0.06250        0.43750       -0.31250
 BRILLOUIN|   251           0.00391       -0.06250        0.43750       -0.18750
 BRILLOUIN|   252           0.00391       -0.06250        0.43750       -0.06250
 BRILLOUIN|   253           0.00391       -0.06250        0.43750        0.06250
 BRILLOUIN|   254           0.00391       -0.06250        0.43750        0.18750
 BRILLOUIN|   255           0.00391       -0.06250        0.43750        0.31250
 BRILLOUIN|   256           0.00391       -0.06250        0.43750        0.43750
 *******************************************************************************

 *******************************************************************************
 *******************************************************************************
 **                                                                           **
 **     #####                         ##              ##                      **
 **    ##   ##            ##          ##              ##                      **
 **   ##     ##                       ##            ######                    **
 **   ##     ##  ##   ##  ##   #####  ##  ##   ####   ##    #####    #####    **
 **   ##     ##  ##   ##  ##  ##      ## ##   ##      ##   ##   ##  ##   ##   **
 **   ##  ## ##  ##   ##  ##  ##      ####     ###    ##   ######   ######    **
 **    ##  ###   ##   ##  ##  ##      ## ##      ##   ##   ##       ##        **
 **     #######   #####   ##   #####  ##  ##  ####    ##    #####   ##        **
 **           ##                                                    ##        **
 **                                                                           **
 **                                                ... make the atoms dance   **
 **                                                                           **
 **            Copyright (C) by CP2K developers group (2000-2025)             **
 **                      J. Chem. Phys. 152, 194103 (2020)                    **
 **                                                                           **
 *******************************************************************************

 DFT| Spin restricted Kohn-Sham (RKS) calculation                            RKS
 DFT| Multiplicity                                                             1
 DFT| Number of spin states                                                    1
 DFT| Charge                                                                   0
 DFT| Self-interaction correction (SIC)                                       NO
 DFT| Cutoffs: density                                              1.000000E-10
 DFT|          gradient                                             1.000000E-10
 DFT|          tau                                                  1.000000E-10
 DFT|          cutoff_smoothing_range                               0.000000E+00
 DFT| XC density smoothing                                                  NONE
 DFT| XC derivatives                                                          PW

 FUNCTIONAL| PBE:
 FUNCTIONAL| J.P.Perdew, K.Burke, M.Ernzerhof, Phys. Rev. Letter, vol. 77, n 18,
 FUNCTIONAL|  pp. 3865-3868, (1996) {spin unpolarized}                          


 QS| Method:                                                                 GPW
 QS| Density plane wave grid type                        NON-SPHERICAL FULLSPACE
 QS| Number of grid levels:                                                    4
 QS| Density cutoff [a.u.]:                                                500.0
 QS| Multi grid cutoff [a.u.]: 1) grid level                               500.0
 QS|                           2) grid level                               166.7
 QS|                           3) grid level                                55.6
 QS|                           4) grid level                                18.5
 QS| Grid level progression factor:                                          3.0
 QS| Relative density cutoff [a.u.]:                                        50.0
 QS| Interaction thresholds: eps_pgf_orb:                                1.0E-16
 QS|                         eps_filter_matrix:                          0.0E+00
 QS|                         eps_core_charge:                            1.0E-18
 QS|                         eps_rho_gspace:                             1.0E-16
 QS|                         eps_rho_rspace:                             1.0E-16
 QS|                         eps_gvg_rspace:                             1.0E-08
 QS|                         eps_ppl:                                    1.0E-02
 QS|                         eps_ppnl:                                   1.0E-10


 ATOMIC KIND INFORMATION

  1. Atomic kind: P                                     Number of atoms:       8

     Orbital Basis Set                                aug-DZVP-MOLOPT-GTH-tier-1

       Number of orbital shell sets:                                           1
       Number of orbital shells:                                               8
       Number of primitive Cartesian functions:                                5
       Number of Cartesian basis functions:                                   24
       Number of spherical basis functions:                                   22
       Norm type:                                                              2

       Normalised Cartesian orbitals:

                        Set   Shell   Orbital            Exponent    Coefficient

                          1       1    2s                0.098012      -0.033509
                                                         0.160000       0.000000
                                                         0.284968      -0.248058
                                                         0.708433      -0.011644
                                                         1.631862       0.315960

                          1       2    3s                0.098012       0.197813
                                                         0.160000       0.000000
                                                         0.284968      -0.282133
                                                         0.708433       0.005280
                                                         1.631862       0.419007

                          1       3    4s                0.098012       0.009958
                                                         0.160000       0.114178
                                                         0.284968       0.066842
                                                         0.708433       0.036039
                                                         1.631862       0.027120

                          1       4    3px               0.098012      -0.028303
                                                         0.160000       0.000000
                                                         0.284968      -0.167400
                                                         0.708433      -0.227650
                                                         1.631862       0.226607
                          1       4    3py               0.098012      -0.028303
                                                         0.160000       0.000000
                                                         0.284968      -0.167400
                                                         0.708433      -0.227650
                                                         1.631862       0.226607
                          1       4    3pz               0.098012      -0.028303
                                                         0.160000       0.000000
                                                         0.284968      -0.167400
                                                         0.708433      -0.227650
                                                         1.631862       0.226607

                          1       5    4px               0.098012       0.090235
                                                         0.160000       0.000000
                                                         0.284968      -0.044799
                                                         0.708433      -0.392252
                                                         1.631862       0.384209
                          1       5    4py               0.098012       0.090235
                                                         0.160000       0.000000
                                                         0.284968      -0.044799
                                                         0.708433      -0.392252
                                                         1.631862       0.384209
                          1       5    4pz               0.098012       0.090235
                                                         0.160000       0.000000
                                                         0.284968      -0.044799
                                                         0.708433      -0.392252
                                                         1.631862       0.384209

                          1       6    5px               0.098012       0.108246
                                                         0.160000      -0.301324
                                                         0.284968       0.002753
                                                         0.708433      -0.074607
                                                         1.631862       0.000767
                          1       6    5py               0.098012       0.108246
                                                         0.160000      -0.301324
                                                         0.284968       0.002753
                                                         0.708433      -0.074607
                                                         1.631862       0.000767
                          1       6    5pz               0.098012       0.108246
                                                         0.160000      -0.301324
                                                         0.284968       0.002753
                                                         0.708433      -0.074607
                                                         1.631862       0.000767

                          1       7    4dx2              0.098012       0.007956
                                                         0.160000       0.000000
                                                         0.284968       0.088381
                                                         0.708433       0.312960
                                                         1.631862       0.468050
                          1       7    4dxy              0.098012       0.013780
                                                         0.160000       0.000000
                                                         0.284968       0.153080
                                                         0.708433       0.542063
                                                         1.631862       0.810687
                          1       7    4dxz              0.098012       0.013780
                                                         0.160000       0.000000
                                                         0.284968       0.153080
                                                         0.708433       0.542063
                                                         1.631862       0.810687
                          1       7    4dy2              0.098012       0.007956
                                                         0.160000       0.000000
                                                         0.284968       0.088381
                                                         0.708433       0.312960
                                                         1.631862       0.468050
                          1       7    4dyz              0.098012       0.013780
                                                         0.160000       0.000000
                                                         0.284968       0.153080
                                                         0.708433       0.542063
                                                         1.631862       0.810687
                          1       7    4dz2              0.098012       0.007956
                                                         0.160000       0.000000
                                                         0.284968       0.088381
                                                         0.708433       0.312960
                                                         1.631862       0.468050

                          1       8    5dx2              0.098012       0.041140
                                                         0.160000      -0.046570
                                                         0.284968       0.050238
                                                         0.708433      -0.032362
                                                         1.631862       0.065745
                          1       8    5dxy              0.098012       0.071256
                                                         0.160000      -0.080662
                                                         0.284968       0.087015
                                                         0.708433      -0.056052
                                                         1.631862       0.113873
                          1       8    5dxz              0.098012       0.071256
                                                         0.160000      -0.080662
                                                         0.284968       0.087015
                                                         0.708433      -0.056052
                                                         1.631862       0.113873
                          1       8    5dy2              0.098012       0.041140
                                                         0.160000      -0.046570
                                                         0.284968       0.050238
                                                         0.708433      -0.032362
                                                         1.631862       0.065745
                          1       8    5dyz              0.098012       0.071256
                                                         0.160000      -0.080662
                                                         0.284968       0.087015
                                                         0.708433      -0.056052
                                                         1.631862       0.113873
                          1       8    5dz2              0.098012       0.041140
                                                         0.160000      -0.046570
                                                         0.284968       0.050238
                                                         0.708433      -0.032362
                                                         1.631862       0.065745

       Atomic covalent radius [Angstrom]:                                  1.060

       Atomic van der Waals radius [Angstrom]:                             1.800

     GTH Potential information for                                       GTH-PBE

       Description:                       Goedecker-Teter-Hutter pseudopotential
                                           Goedecker et al., PRB 54, 1703 (1996)
                                          Hartwigsen et al., PRB 58, 3641 (1998)
                                                      Krack, TCA 114, 145 (2005)

       Gaussian exponent of the core charge distribution:               2.704164
       Electronic configuration (s p d ...):                               2   3

       Parameters of the local part of the GTH pseudopotential:

                          rloc        C1          C2          C3          C4
                        0.430000   -5.875943

       Parameters of the non-local part of the GTH (SOC) pseudopotential:

                   l      r(l)      h(i,j,l)
                                    k(i,j,l)
                   0    0.396377   11.008862   -3.470356
                                   -3.470356    4.480210
                   1    0.448298    3.056064    0.000000
                                    0.000000    0.000000
                                    0.026069   -0.021185
                                   -0.021185    0.025066


 MOLECULE KIND INFORMATION


 All atoms are their own molecule, skipping detailed information


 TOTAL NUMBERS AND MAXIMUM NUMBERS

  Total number of            - Atomic kinds:                                   1
                             - Atoms:                                          8
                             - Shell sets:                                     8
                             - Shells:                                        64
                             - Primitive Cartesian functions:                 40
                             - Cartesian basis functions:                    192
                             - Spherical basis functions:                    176

  Maximum angular momentum of- Orbital basis functions:                        2
                             - Local part of the GTH pseudopotential:          0
                             - Non-local part of the GTH pseudopotential:      3


 MODULE QUICKSTEP: ATOMIC COORDINATES IN ANGSTROM

   Atom Kind Element         X             Y             Z       Z(eff)     Mass
      1    1 P    15      0.000000      1.058926      0.398743   5.0000  30.9738
      2    1 P    15      0.000000     10.258014      4.174527   5.0000  30.9738
      3    1 P    15      0.000000      4.599544      2.685378   5.0000  30.9738
      4    1 P    15      0.000000      6.717396      1.887892   5.0000  30.9738
      5    1 P    15      1.652330      6.717396      0.398743   5.0000  30.9738
      6    1 P    15      1.652330      4.599544      4.174527   5.0000  30.9738
      7    1 P    15      1.652330     10.258014      2.685378   5.0000  30.9738
      8    1 P    15      1.652330      1.058926      1.887892   5.0000  30.9738



 SCF PARAMETERS         Density guess:                                    ATOMIC
                        --------------------------------------------------------
                        max_scf:                                             500
                        max_scf_history:                                       0
                        max_diis:                                              4
                        --------------------------------------------------------
                        eps_scf:                                        1.00E-09
                        eps_scf_history:                                0.00E+00
                        eps_diis:                                       1.00E-01
                        eps_eigval:                                     1.00E-05
                        --------------------------------------------------------
                        level_shift [a.u.]:                             0.000000
                        added MOs                                       156    0
                        --------------------------------------------------------
                        Mixing method:                            BROYDEN_MIXING
                                                charge density mixing in g-space
                        --------------------------------------------------------
                        No outer SCF

 PW_GRID| Information for grid number                                          1
 PW_GRID| Grid distributed over                                     8 processors
 PW_GRID| Real space group dimensions                                     8    1
 PW_GRID| the grid is blocked:                                                NO
 PW_GRID| Cutoff [a.u.]                                                    500.0
 PW_GRID| spherical cutoff:                                                   NO
 PW_GRID|   Bounds   1            -32      31                Points:          64
 PW_GRID|   Bounds   2           -108     107                Points:         216
 PW_GRID|   Bounds   3            -45      44                Points:          90
 PW_GRID| Volume element (a.u.^3)  0.9277E-03     Volume (a.u.^3)      1154.1952
 PW_GRID| Grid span                                                    FULLSPACE
 PW_GRID|   Distribution                         Average         Max         Min
 PW_GRID|   G-Vectors                           155520.0      155520      155520
 PW_GRID|   G-Rays                                2430.0        2430        2430
 PW_GRID|   Real Space Points                   155520.0      155520      155520

 PW_GRID| Information for grid number                                          2
 PW_GRID| Number of the reference grid                                         1
 PW_GRID| Grid distributed over                                     8 processors
 PW_GRID| Real space group dimensions                                     8    1
 PW_GRID| the grid is blocked:                                                NO
 PW_GRID| Cutoff [a.u.]                                                    166.7
 PW_GRID| spherical cutoff:                                                   NO
 PW_GRID|   Bounds   1            -20      19                Points:          40
 PW_GRID|   Bounds   2            -62      62                Points:         125
 PW_GRID|   Bounds   3            -27      26                Points:          54
 PW_GRID| Volume element (a.u.^3)  0.4275E-02     Volume (a.u.^3)      1154.1952
 PW_GRID| Grid span                                                    FULLSPACE
 PW_GRID|   Distribution                         Average         Max         Min
 PW_GRID|   G-Vectors                            33750.0       33880       33600
 PW_GRID|   G-Rays                                 843.8         847         840
 PW_GRID|   Real Space Points                    33750.0       33750       33750

 PW_GRID| Information for grid number                                          3
 PW_GRID| Number of the reference grid                                         1
 PW_GRID| Grid distributed over                                     8 processors
 PW_GRID| Real space group dimensions                                     8    1
 PW_GRID| the grid is blocked:                                                NO
 PW_GRID| Cutoff [a.u.]                                                     55.6
 PW_GRID| spherical cutoff:                                                   NO
 PW_GRID|   Bounds   1            -12      11                Points:          24
 PW_GRID|   Bounds   2            -36      35                Points:          72
 PW_GRID|   Bounds   3            -15      14                Points:          30
 PW_GRID| Volume element (a.u.^3)  0.2226E-01     Volume (a.u.^3)      1154.1952
 PW_GRID| Grid span                                                    FULLSPACE
 PW_GRID|   Distribution                         Average         Max         Min
 PW_GRID|   G-Vectors                             6480.0        6528        6408
 PW_GRID|   G-Rays                                 270.0         272         267
 PW_GRID|   Real Space Points                     6480.0        6480        6480

 PW_GRID| Information for grid number                                          4
 PW_GRID| Number of the reference grid                                         1
 PW_GRID| Grid distributed over                                     8 processors
 PW_GRID| Real space group dimensions                                     8    1
 PW_GRID| the grid is blocked:                                                NO
 PW_GRID| Cutoff [a.u.]                                                     18.5
 PW_GRID| spherical cutoff:                                                   NO
 PW_GRID|   Bounds   1             -7       7                Points:          15
 PW_GRID|   Bounds   2            -22      22                Points:          45
 PW_GRID|   Bounds   3             -9       8                Points:          18
 PW_GRID| Volume element (a.u.^3)  0.9500E-01     Volume (a.u.^3)      1154.1952
 PW_GRID| Grid span                                                    FULLSPACE
 PW_GRID|   Distribution                         Average         Max         Min
 PW_GRID|   G-Vectors                             1518.8        1545        1500
 PW_GRID|   G-Rays                                 101.2         103         100
 PW_GRID|   Real Space Points                     1518.8        1620         810

 POISSON| Solver                                                        PERIODIC
 POISSON| Periodicity                                                        XYZ

 RS_GRID| Information for grid number                                          1
 RS_GRID|   Bounds   1            -32      31                Points:          64
 RS_GRID|   Bounds   2           -108     107                Points:         216
 RS_GRID|   Bounds   3            -45      44                Points:          90
 RS_GRID| Real space fully replicated
 RS_GRID| Group size                                                           1

 RS_GRID| Information for grid number                                          2
 RS_GRID|   Bounds   1            -20      19                Points:          40
 RS_GRID|   Bounds   2            -62      62                Points:         125
 RS_GRID|   Bounds   3            -27      26                Points:          54
 RS_GRID| Real space fully replicated
 RS_GRID| Group size                                                           1

 RS_GRID| Information for grid number                                          3
 RS_GRID|   Bounds   1            -12      11                Points:          24
 RS_GRID|   Bounds   2            -36      35                Points:          72
 RS_GRID|   Bounds   3            -15      14                Points:          30
 RS_GRID| Real space fully replicated
 RS_GRID| Group size                                                           1

 RS_GRID| Information for grid number                                          4
 RS_GRID|   Bounds   1             -7       7                Points:          15
 RS_GRID|   Bounds   2            -22      22                Points:          45
 RS_GRID|   Bounds   3             -9       8                Points:          18
 RS_GRID| Real space fully replicated
 RS_GRID| Group size                                                           1

 Number of electrons:                                                         40
 Number of occupied orbitals:                                                 20
 Number of molecular orbitals:                                               176

 Number of orbital functions:                                                176
 Number of independent orbital functions:                                    176

 Extrapolation method: initial_guess

 Atomic guess: The first density matrix is obtained in terms of atomic orbitals
               and electronic configurations assigned to each atomic kind

 Guess for atomic kind: P

 Electronic structure
    Total number of core electrons                                         10.00
    Total number of valence electrons                                       5.00
    Total number of electrons                                              15.00
    Multiplicity                                                   not specified
    S   [  2.00  2.00] 2.00
    P   [  6.00] 3.00


 *******************************************************************************
                  Iteration          Convergence                     Energy [au]
 *******************************************************************************
                          1        0.575225E-01                  -6.294090030400
                          2        0.332454E-01                  -6.295513805902
                          3        0.291738E-03                  -6.296139637434
                          4        0.121889E-04                  -6.296139693389
                          5        0.112619E-06                  -6.296139693478

 Energy components [Hartree]           Total Energy ::           -6.296139693478
                                        Band Energy ::           -1.502604299816
                                     Kinetic Energy ::            2.375845543092
                                   Potential Energy ::           -8.671985236569
                                      Virial (-V/T) ::            3.650062716318
                                        Core Energy ::          -10.074542058978
                                          XC Energy ::           -1.459757722081
                                     Coulomb Energy ::            5.238160087582
                       Total Pseudopotential Energy ::          -12.510451014950
                       Local Pseudopotential Energy ::          -13.853561737466
                    Nonlocal Pseudopotential Energy ::            1.343110722517
                                        Confinement ::            0.600634128799

 Orbital energies  State     L     Occupation   Energy[a.u.]          Energy[eV]

                       1     0          2.000      -0.487401          -13.262855

                       1     1          3.000      -0.175934           -4.787411


 Total Electron Density at R=0:                                         0.000104
 Re-scaling the density matrix to get the right number of electrons
                  # Electrons              Trace(P)               Scaling factor
                           40                40.000                        1.000


 SCF WAVEFUNCTION OPTIMIZATION

  Step     Update method      Time    Convergence         Total energy    Change
  ------------------------------------------------------------------------------
     1 NoMix/Diag. 0.50E-01    4.0     0.52123558       -53.2072036704 -5.32E+01
     2 Broy./Diag. 0.50E-01    4.0     0.00299276       -52.5153852059  6.92E-01
     3 Broy./Diag. 0.50E-01    4.0     0.08814798       -52.3752383951  1.40E-01
     4 Broy./Diag. 0.50E-01    4.0     0.00123998       -52.5426357961 -1.67E-01
     5 Broy./Diag. 0.50E-01    4.0     0.02598374       -52.6523359593 -1.10E-01
     6 Broy./Diag. 0.50E-01    4.0     0.00115115       -52.6912685418 -3.89E-02
     7 Broy./Diag. 0.50E-01    4.0     0.01358006       -52.7224355650 -3.12E-02
     8 Broy./Diag. 0.50E-01    4.0     0.00095129       -52.7293711555 -6.94E-03
     9 Broy./Diag. 0.50E-01    4.0     0.00016266       -52.7303952581 -1.02E-03
    10 Broy./Diag. 0.50E-01    4.0     0.00061933       -52.7325905423 -2.20E-03
    11 Broy./Diag. 0.50E-01    4.0     0.00003537       -52.7322916067  2.99E-04
    12 Broy./Diag. 0.50E-01    4.0     0.00058982       -52.7295001944  2.79E-03
    13 Broy./Diag. 0.50E-01    4.0     0.00000199       -52.7286635178  8.37E-04
    14 Broy./Diag. 0.50E-01    4.0     0.00010351       -52.7280768896  5.87E-04
    15 Broy./Diag. 0.50E-01    4.0     0.00000410       -52.7278231354  2.54E-04
    16 Broy./Diag. 0.50E-01    4.0     0.00000647       -52.7277907827  3.24E-05
    17 Broy./Diag. 0.50E-01    4.0     0.00004100       -52.7277537947  3.70E-05
    18 Broy./Diag. 0.50E-01    4.0     0.00000865       -52.7277526352  1.16E-06
    19 Broy./Diag. 0.50E-01    4.0     0.00001215       -52.7277917186 -3.91E-05
    20 Broy./Diag. 0.50E-01    4.0     0.00000398       -52.7278098719 -1.82E-05
    21 Broy./Diag. 0.50E-01    4.0     0.00001533       -52.7278451276 -3.53E-05
    22 Broy./Diag. 0.50E-01    4.0     0.00000046       -52.7278489736 -3.85E-06
    23 Broy./Diag. 0.50E-01    4.0     0.00000077       -52.7278603448 -1.14E-05
    24 Broy./Diag. 0.50E-01    4.0     0.00000166       -52.7278651470 -4.80E-06
    25 Broy./Diag. 0.50E-01    4.0     0.00000099       -52.7278662672 -1.12E-06
    26 Broy./Diag. 0.50E-01    4.0     0.00000037       -52.7278625093  3.76E-06
    27 Broy./Diag. 0.50E-01    4.0     0.00000045       -52.7278604634  2.05E-06
    28 Broy./Diag. 0.50E-01    4.1     0.00000086       -52.7278572330  3.23E-06
    29 Broy./Diag. 0.50E-01    4.0     0.00000034       -52.7278543520  2.88E-06
    30 Broy./Diag. 0.50E-01    4.0     0.00000173       -52.7278484050  5.95E-06
    31 Broy./Diag. 0.50E-01    4.0     0.00000080       -52.7278447861  3.62E-06
    32 Broy./Diag. 0.50E-01    4.0     0.00000020       -52.7278433242  1.46E-06
    33 Broy./Diag. 0.50E-01    4.1     0.00000015       -52.7278405115  2.81E-06
    34 Broy./Diag. 0.50E-01    4.0     0.00000028       -52.7278393177  1.19E-06
    35 Broy./Diag. 0.50E-01    4.0     0.00000104       -52.7278405544 -1.24E-06
    36 Broy./Diag. 0.50E-01    4.0     0.00000003       -52.7278405340  2.04E-08
    37 Broy./Diag. 0.50E-01    4.0     0.00000043       -52.7278431801 -2.65E-06
    38 Broy./Diag. 0.50E-01    4.0     0.00000012       -52.7278436532 -4.73E-07
    39 Broy./Diag. 0.50E-01    4.0     0.00000013       -52.7278446178 -9.65E-07
    40 Broy./Diag. 0.50E-01    4.0     0.00000027       -52.7278454988 -8.81E-07
    41 Broy./Diag. 0.50E-01    4.0     0.00000015       -52.7278457003 -2.02E-07
    42 Broy./Diag. 0.50E-01    4.0     0.00000009       -52.7278447892  9.11E-07
    43 Broy./Diag. 0.50E-01    4.0     0.00000007       -52.7278442989  4.90E-07
    44 Broy./Diag. 0.50E-01    4.0     0.00000011       -52.7278440890  2.10E-07
    45 Broy./Diag. 0.50E-01    4.0     0.00000005       -52.7278439335  1.55E-07
    46 Broy./Diag. 0.50E-01    4.0     8.6224E-09       -52.7278437191  2.14E-07
    47 Broy./Diag. 0.50E-01    4.0     0.00000008       -52.7278432169  5.02E-07
    48 Broy./Diag. 0.50E-01    4.0     8.1907E-09       -52.7278430593  1.58E-07
    49 Broy./Diag. 0.50E-01    4.0     0.00000003       -52.7278430227  3.65E-08
    50 Broy./Diag. 0.50E-01    4.0     0.00000003       -52.7278429164  1.06E-07
    51 Broy./Diag. 0.50E-01    4.0     0.00000003       -52.7278428925  2.39E-08
    52 Broy./Diag. 0.50E-01    4.0     7.2011E-09       -52.7278430035 -1.11E-07
    53 Broy./Diag. 0.50E-01    4.0     6.8879E-09       -52.7278430592 -5.57E-08
    54 Broy./Diag. 0.50E-01    4.0     0.00000002       -52.7278430955 -3.63E-08
    55 Broy./Diag. 0.50E-01    4.0     6.8840E-09       -52.7278431112 -1.57E-08
    56 Broy./Diag. 0.50E-01    4.0     2.4245E-09       -52.7278431485 -3.73E-08
    57 Broy./Diag. 0.50E-01    4.0     0.00000001       -52.7278431762 -2.77E-08
    58 Broy./Diag. 0.50E-01    4.0     3.4575E-09       -52.7278431800 -3.81E-09
    59 Broy./Diag. 0.50E-01    4.0     3.7213E-09       -52.7278431390  4.10E-08
    60 Broy./Diag. 0.50E-01    4.0     6.7619E-09       -52.7278431420 -3.02E-09
    61 Broy./Diag. 0.50E-01    4.0     0.00000001       -52.7278431422 -2.14E-10
    62 Broy./Diag. 0.50E-01    4.0     3.4713E-09       -52.7278431223  1.99E-08
    63 Broy./Diag. 0.50E-01    4.0     7.0664E-09       -52.7278430978  2.45E-08
    64 Broy./Diag. 0.50E-01    4.0     7.9337E-09       -52.7278430872  1.06E-08
    65 Broy./Diag. 0.50E-01    4.0     2.8352E-09       -52.7278430832  4.06E-09
    66 Broy./Diag. 0.50E-01    4.0     3.2398E-09       -52.7278430742  8.92E-09
    67 Broy./Diag. 0.50E-01    4.0     1.5187E-09       -52.7278430689  5.35E-09
    68 Broy./Diag. 0.50E-01    4.0     1.3604E-09       -52.7278430703 -1.43E-09
    69 Broy./Diag. 0.50E-01    4.0     1.1323E-09       -52.7278430766 -6.24E-09
    70 Broy./Diag. 0.50E-01    4.0     2.0138E-09       -52.7278430770 -3.80E-10
    71 Broy./Diag. 0.50E-01    4.0     3.6264E-09       -52.7278430757  1.25E-09
    72 Broy./Diag. 0.50E-01    4.0     7.6584E-10       -52.7278430787 -3.00E-09

  *** SCF run converged in    72 steps ***


  Electronic density on regular grids:        -40.0000000000       -0.0000000000
  Core density on regular grids:               40.0000000000        0.0000000000
  Total charge density on r-space grids:       -0.0000000000
  Total charge density g-space grids:          -0.0000000000

  Overlap energy of the core charge distribution:               0.00000000027443
  Self energy of the core charge distribution:               -131.20687989482707
  Core Hamiltonian energy:                                     28.16978961788219
  Hartree energy:                                              63.71854587365451
  Exchange-correlation energy:                                -13.40929867568685

  Total energy:                                               -52.72784307870278

 !-----------------------------------------------------------------------------!
                     Mulliken Population Analysis

 #  Atom  Element  Kind  Atomic population                           Net charge
       1     P        1          5.000000                             -0.000000
       2     P        1          5.000000                              0.000000
       3     P        1          5.000000                             -0.000000
       4     P        1          5.000000                              0.000000
       5     P        1          5.000000                              0.000000
       6     P        1          5.000000                             -0.000000
       7     P        1          5.000000                              0.000000
       8     P        1          5.000000                              0.000000
 # Total charge                             40.000000                 -0.000000

 !-----------------------------------------------------------------------------!

 !-----------------------------------------------------------------------------!
                           Hirshfeld Charges

  #Atom  Element  Kind  Ref Charge     Population                    Net charge
      1       P      1       5.000          5.000                        -0.000
      2       P      1       5.000          5.000                        -0.000
      3       P      1       5.000          5.000                        -0.000
      4       P      1       5.000          5.000                        -0.000
      5       P      1       5.000          5.000                         0.000
      6       P      1       5.000          5.000                        -0.000
      7       P      1       5.000          5.000                         0.000
      8       P      1       5.000          5.000                         0.000

  Total Charge                                                           -0.000
 !-----------------------------------------------------------------------------!

 KPOINTS| Band Structure Calculation
 KPOINTS| Number of k-point sets                                               1
 KPOINTS| Number of added MOs/bands                                           -1
 KPOINTS| Number of k-points in set    1                                     148
 KPOINTS| In units of b-vector [2pi/Bohr]
 KPOINTS| Special point     1 not specifi     0.000000     0.000000     0.000000
 KPOINTS| Special point     2 not specifi    -0.500000     0.500000     0.000000
 KPOINTS| Special point     3 not specifi    -0.271317     0.728683     0.000000
 KPOINTS| Special point     4 not specifi     0.000000     0.000000     0.000000
 KPOINTS| Time for k-point line                                            2.049

 ENERGY| Total FORCE_EVAL ( QS ) energy [hartree]            -52.727843078702783

 -------------------------------------------------------------------------------
 -                                                                             -
 -                                DBCSR STATISTICS                             -
 -                                                                             -
 -------------------------------------------------------------------------------
 COUNTER                                    TOTAL       BLAS       SMM       ACC
 flops inhomo. stacks                           0       0.0%      0.0%      0.0%
 flops total                         0.000000E+00       0.0%      0.0%      0.0%
 flops max/rank                      0.000000E+00       0.0%      0.0%      0.0%
 matmuls inhomo. stacks                         0       0.0%      0.0%      0.0%
 matmuls total                                  0       0.0%      0.0%      0.0%
 number of processed stacks                     0       0.0%      0.0%      0.0%
 average stack size                                     0.0       0.0       0.0
 marketing flops                     0.000000E+00
 -------------------------------------------------------------------------------
 -                                                                             -
 -                      DBCSR MESSAGE PASSING PERFORMANCE                      -
 -                                                                             -
 -------------------------------------------------------------------------------
 ROUTINE             CALLS      AVE VOLUME [Bytes]
 MP_Bcast                1                     12.
 MP_Allreduce           19                     21.
 MP_Alltoall       1542704                  15904.
 -------------------------------------------------------------------------------

 -------------------------------------------------------------------------------
 -                                                                             -
 -                                DBM STATISTICS                               -
 -                                                                             -
 -------------------------------------------------------------------------------
    M  x    N  x    K                                          COUNT     PERCENT
 -------------------------------------------------------------------------------

 -------------------------------------------------------------------------------
 -                                                                             -
 -                                GRID STATISTICS                              -
 -                                                                             -
 -------------------------------------------------------------------------------
 LP    KERNEL             BACKEND                              COUNT     PERCENT
 4     collocate ortho    CPU                                2138316      50.34%
 4     integrate ortho    CPU                                2109024      49.65%
 0     collocate general  CPU                                     16       0.00%
 0     integrate general  CPU                                      8       0.00%
 -------------------------------------------------------------------------------

 MEMORY| Estimated peak process memory [MiB]                                 597

 -------------------------------------------------------------------------------
 ----                             MULTIGRID INFO                            ----
 -------------------------------------------------------------------------------
 count for grid        1:              0          cutoff [a.u.]          500.00
 count for grid        2:          29244          cutoff [a.u.]          166.67
 count for grid        3:          48908          cutoff [a.u.]           55.56
 count for grid        4:          32508          cutoff [a.u.]           18.52
 total gridlevel count  :         110660

 -------------------------------------------------------------------------------
 -                                                                             -
 -                         MESSAGE PASSING PERFORMANCE                         -
 -                                                                             -
 -------------------------------------------------------------------------------

 ROUTINE             CALLS      AVE VOLUME [Bytes]
 MP_Group                6
 MP_Bcast           667330                    415.
 MP_Allreduce        97045                    284.
 MP_Sync                 4
 MP_Alltoall          1301                6924116.
 MP_SendRecv          2058                 400518.
 MP_ISendRecv         2023                 397679.
 MP_Wait            460731
 MP_comm_split           4
 MP_ISend           487244                   7080.
 MP_IRecv           778880                   4438.
 -------------------------------------------------------------------------------


 -------------------------------------------------------------------------------
 -                                                                             -
 -                           R E F E R E N C E S                               -
 -                                                                             -
 -------------------------------------------------------------------------------
 
 CP2K version 2025.1 (Development Version), the CP2K developers group (2025).
 CP2K is freely available from https://www.cp2k.org/ .
 
 T. D. Kuehne, M. Iannuzzi, M. Del Ben, V. V. Rybkin, P. Seewald, F. Stein, T. 
 Laino, R. Z. Khaliullin, O. Schuett, F. Schiffmann, D. Golze, J. Wilhelm, S. 
 Chulkov, M. H. Bani-Hashemian, V. Weber, U. Borstnik, M. Taillefumier, A. S. 
 Jakobovits, A. Lazzaro, H. Pabst, T. Mueller, R. Schade, M. Guidon, S. 
 Andermatt, N. Holmberg, G. K. Schenter, A. Hehn, A. Bussy, F. Belleflamme, G. 
 Tabacchi, A. Gloess, M. Lass, I. Bethune, C. J. Mundy, C. Plessl, M. Watkins, 
 J. VandeVondele, M. Krack, J. Hutter.
 J. Chem. Phys. 152, 194103 (2020).
 CP2K: An electronic structure and molecular dynamics software package - 
 Quickstep: Efficient and accurate electronic structure calculations.
 https://doi.org/10.1063/5.0007045

 O. Schuett, P. Messmer, J. Hutter, J. VandeVondele.
 Electronic Structure Calculations on Graphics Processing Units, 173-190 (2016).
 GPU-Accelerated Sparse Matrix-Matrix Multiplication for Linear Scaling Density 
 Functional Theory.
 https://doi.org/10.1002/9781118670712.ch8

 J. Hutter, M. Iannuzzi, F. Schiffmann, J. VandeVondele.
 WIREs Comput Mol Sci. 4, 15-25 (2014).
 CP2K: atomistic simulations of condensed matter systems.
 https://doi.org/10.1002/wcms.1159

 U. Borstnik, J. VandeVondele, V. Weber, J. Hutter.
 Parallel Comput. 40, 47-58 (2014).
 Sparse matrix multiplication: The distributed block-compressed sparse row 
 library.
 https://doi.org/10.1016/j.parco.2014.03.012

 J. VandeVondele, J. Hutter.
 J. Chem. Phys. 127, 114105 (2007).
 Gaussian basis sets for accurate calculations on molecular systems in gas and 
 condensed phases.
 https://doi.org/10.1063/1.2770708

 J. VandeVondele, M. Krack, F. Mohamed, M. Parrinello, T. Chassaing, J. Hutter.
 Comput. Phys. Commun. 167, 103-128 (2005).
 QUICKSTEP: Fast and accurate density functional calculations using a mixed 
 Gaussian and plane waves approach.
 https://doi.org/10.1016/j.cpc.2004.12.014

 M. Krack.
 Theor. Chem. Acc. 114, 145-152 (2005).
 Pseudopotentials for H to Kr optimized for gradient-corrected 
 exchange-correlation functionals.
 https://doi.org/10.1007/s00214-005-0655-y

 M. Frigo, S. G. Johnson.
 Proc. IEEE 93, 216-231 (2005).
 The design and implementation of FFTW3.
 https://doi.org/10.1109/JPROC.2004.840301

 C. Hartwigsen, S. Goedecker, J. Hutter.
 Phys. Rev. B 58, 3641-3662 (1998).
 Relativistic separable dual-space Gaussian pseudopotentials from H to Rn.
 https://doi.org/10.1103/PhysRevB.58.3641

 G. Lippert, J. Hutter, M. Parrinello.
 Mol. Phys. 92, 477-487 (1997).
 A hybrid Gaussian and plane wave density functional scheme.
 https://doi.org/10.1080/002689797170220

 S. Goedecker, M. Teter, J. Hutter.
 Phys. Rev. B 54, 1703-1710 (1996).
 Separable dual-space Gaussian pseudopotentials.
 https://doi.org/10.1103/PhysRevB.54.1703

 J. P. Perdew, K. Burke, M. Ernzerhof.
 Phys. Rev. Lett. 77, 3865-3868 (1996).
 Generalized gradient approximation made simple.
 https://doi.org/10.1103/PhysRevLett.77.3865


 -------------------------------------------------------------------------------
 -                                                                             -
 -                                T I M I N G                                  -
 -                                                                             -
 -------------------------------------------------------------------------------
 SUBROUTINE                       CALLS  ASD         SELF TIME        TOTAL TIME
                                MAXIMUM       AVERAGE  MAXIMUM  AVERAGE  MAXIMUM
 CP2K                                 1  1.0    0.010    0.013  293.975  293.976
 qs_energies                          1  2.0    0.010    0.063  293.708  293.739
 scf_env_do_scf                       1  3.0    0.000    0.000  291.082  291.083
 scf_env_do_scf_inner_loop           72  4.0    0.031    0.034  291.082  291.082
 do_general_diag_kp                  73  6.0    0.482    0.521  270.669  272.569
 qs_scf_new_mos_kp                   72  5.0    0.001    0.001  268.726  270.652
 rskp_transform                   37160  7.0   81.059   91.531   81.059   91.531
 kpoint_density_transform            72  7.0    0.175    0.189   72.753   73.040
 mp_alltoall_i22                 263360  8.8   20.815   61.241   20.815   61.241
 dbcsr_desymmetrize_deep         150408  7.5    3.284    3.488   31.398   58.929
 dbcsr_complete_redistribute     112952  8.3    5.780    6.005   44.149   57.284
 transform_dmat                   18432  8.0   39.251   44.299   39.251   44.299
 copy_dbcsr_to_fm                 76088  7.0    0.866    0.907   42.813   43.468
 copy_fm_to_dbcsr                 36864  8.0    0.238    0.249   17.953   30.452
 cp_cfm_geeig                      2341  7.0    0.027    0.032   30.037   30.373
 cp_fm_start_copy_general        111184  7.3    4.861    5.584   26.704   26.909
 cp_cfm_heevd                      2341  8.0    0.004    0.005   22.298   22.658
 cp_cfm_heevd_base                 2341  9.0   22.294   22.654   22.294   22.654
 mp_allgather_i                  222368  8.3   17.345   17.709   17.345   17.709
 mp_alltoall_d11v                790080  9.4   13.029   13.996   13.029   13.996
 qs_ks_update_qs_env                 72  5.0    0.001    0.001   11.043   11.807
 dbcsr_finalize                  271300  8.7    1.357    1.440   10.096   10.694
 rebuild_ks_matrix                   72  6.0    0.000    0.000    9.850   10.614
 qs_ks_build_kohn_sham_matrix        72  7.0    0.059    0.062    9.849   10.614
 hybrid_alltoall_any             150408  8.5    0.647    0.682    7.570    8.192
 sum_up_and_integrate                72  8.0    0.001    0.001    6.987    7.770
 integrate_v_rspace                  72  9.0    0.092    0.139    6.982    7.765
 mp_cart_sub                     152178  9.0    6.492    6.508    6.492    6.508
 grid_integrate_task_list            72 10.0    5.754    6.471    5.754    6.471
 qs_rho_update_rho_low               73  5.0    0.000    0.001    6.245    6.264
 calculate_rho_elec                  73  6.0    0.099    0.108    6.244    6.263
 dbcsr_merge_all                 112952 10.3    2.978    3.373    5.710    6.205
 mp_alltoall_i11v                489264  9.0    5.474    5.953    5.474    5.953
 cp_cfm_triangular_multiply        7023  8.0    5.059    5.107    5.059    5.107
 grid_collocate_task_list            73  7.0    4.275    4.724    4.275    4.724
 cp_fm_finish_copy_general        46228  7.8    4.412    4.441    4.514    4.559
 kpoint_density_matrices             72  7.0    0.088    0.092    4.062    4.177
 mp_cart_create                   76095  9.0    3.893    3.982    3.893    3.982
 parallel_gemm_fm                  9216  8.0    0.010    0.011    3.870    3.981
 parallel_gemm_fm_gemm             9216  9.0    0.010    0.011    3.860    3.971
 cp_fm_gemm                        9216 10.0    3.850    3.960    3.850    3.960
 mp_bcast_iv                     444759  8.3    2.735    3.136    2.735    3.136
 density_rs2pw                       73  7.0    0.003    0.003    1.863    3.063
 fft_wrap_pw1pw2                   1301 10.0    0.015    0.017    2.954    2.969
 dbcsr_work_create               263360  8.8    1.653    1.788    2.566    2.752
 fft_wrap_pw1pw2_500                866 11.3    0.221    0.224    2.733    2.747
 dbcsr_create_new                443562  8.3    2.039    2.137    2.454    2.579
 transfer_rs2pw                     294  8.0    0.003    0.004    1.322    2.565
 transfer_rs2pw_500                  75  9.0    0.359    0.366    1.142    2.385
 fft3d_ps                          1301 12.0    1.055    1.078    2.328    2.354
 mp_sendrecv_dv                    2058 10.0    0.883    2.127    0.883    2.127
 qs_vxc_create                       72  8.0    0.001    0.001    2.117    2.122
 xc_vxc_pw_create                    72  9.0    0.087    0.088    2.116    2.121
 write_kpoints_restart               72  5.0    0.007    0.014    2.090    2.091
 dbcsr_work_destroy_all          263360  9.8    1.247    1.261    2.033    2.062
 gspace_mixing                       71  5.0    0.079    0.079    2.060    2.060
 dbcsr_copy                      100954  7.4    0.441    0.460    1.842    2.032
 copy_fm_to_dbcsr_bc              36864  9.0    0.564    0.588    1.904    1.999
 copy_dbcsr_to_fm_bc              76088  8.0    1.017    1.050    1.933    1.964
 dbcsr_iterator_start            810201  9.0    1.608    1.632    1.884    1.917
 tree_to_linear_d                112952 11.3    1.706    1.784    1.706    1.784
 dbcsr_data_new                 2825935  9.8    1.635    1.741    1.635    1.741
 broyden_mixing                      71  6.0    1.670    1.703    1.717    1.722
 dbcsr_data_release             3936952 10.2    1.638    1.680    1.638    1.680
 dbcsr_copy_into_existing         37306 10.0    1.070    1.239    1.290    1.461
 xc_pw_derive                       432 11.0    0.002    0.002    1.353    1.357
 dbcsr_destroy                   379914  8.3    0.658    0.692    1.236    1.320
 cp_cfm_cholesky_decompose         2341  8.0    1.259    1.296    1.259    1.296
 cp_cfm_triangular_invert          2341  8.0    1.253    1.259    1.253    1.259
 dbcsr_iterator_stop             810201  9.0    0.999    1.028    1.180    1.206
 evaluate_core_matrix_traces         72  6.0    0.000    0.000    1.192    1.192
 calculate_ptrace_kp                144  7.0    0.048    0.051    1.192    1.192
 dbcsr_dot                        63649  8.0    0.548    0.591    1.149    1.165
 potential_pw2rs                     72 10.0    0.007    0.007    1.137    1.155
 xc_rho_set_and_dset_create          72 10.0    0.043    0.045    1.150    1.155
 mp_alltoall_z22v                  1301 14.0    1.099    1.147    1.099    1.147
 cp_fm_write_unformatted           1768  6.0    0.470    0.967    0.598    1.081
 mp_waitall_1                    460731  8.4    0.604    1.006    0.604    1.006
 kpoint_set_mo_occupation            72  7.0    0.150    0.151    0.622    0.993
 mp_bcast_im                     222368  8.3    0.866    0.992    0.866    0.992
 quick_finalize                  150408  9.5    0.503    0.515    0.878    0.894
 xc_pw_divergence                    72 10.0    0.001    0.001    0.867    0.869
 mp_sum_dm3                          72  8.0    0.473    0.844    0.473    0.844
 transfer_pw2rs                     289 11.0    0.002    0.002    0.803    0.803
 self_consistency_check              72  5.0    0.046    0.047    0.734    0.784
 x_to_yz                            720 13.2    0.096    0.099    0.731    0.762
 mp_comm_free                    228307  9.0    0.618    0.696    0.618    0.696
 mp_isend_dv                     111776  8.3    0.580    0.665    0.580    0.665
 cp_sm_mix                        31824  6.0    0.248    0.271    0.580    0.655
 transfer_pw2rs_500                  73 11.9    0.349    0.362    0.598    0.618
 dbcsr_set                       253861  8.0    0.261    0.269    0.571    0.610
 mp_sum_d                         64647  8.9    0.458    0.595    0.458    0.595
 yz_to_x                            581 12.9    0.068    0.073    0.531    0.557
 mp_send_dv                        1768  7.0    0.113    0.557    0.113    0.557
 dbcsr_data_copy_aa2             112952 11.3    0.510    0.549    0.510    0.549
 dbcsr_sort_indices              303752 10.9    0.435    0.448    0.435    0.448
 cp_cfm_scale_and_add_fm           9364  7.0    0.421    0.427    0.421    0.427
 dbcsr_reserve_all_blocks         36864 10.0    0.066    0.071    0.385    0.404
 dbcsr_reserve_blocks             40392 10.6    0.333    0.351    0.375    0.394
 mp_max_d                         31826  7.0    0.257    0.391    0.257    0.391
 xc_functional_eval                  72 11.0    0.001    0.001    0.384    0.388
 pbe_lda_eval                        72 12.0    0.383    0.387    0.383    0.387
 dbcsr_zero                      253861  9.0    0.310    0.341    0.310    0.341
 dbcsr_iterator_seek             810201 10.0    0.276    0.305    0.276    0.305
 qs_energies_init_hamiltonians        1  3.0    0.000    0.000    0.291    0.291
 dbcsr_make_index_exist          443562  9.3    0.262    0.287    0.262    0.287
 merge_index                     112952 11.3    0.230    0.241    0.230    0.241
 cp_dbcsr_alloc_block_from_nbl     3528  5.3    0.159    0.177    0.216    0.240
 mp_irecv_iv                     444736  8.3    0.030    0.238    0.030    0.238
 build_core_hamiltonian_matrix        1  4.0    0.002    0.002    0.183    0.218
 pw_scatter_p                       720 12.2    0.213    0.215    0.213    0.215
 cp_cfm_to_fm                      2341  7.0    0.182    0.190    0.182    0.190
 cp_fm_cleanup_copy_general       78928  7.0    0.123    0.124    0.183    0.185
 dbcsr_switch_data_area          150408 10.5    0.134    0.136    0.176    0.179
 transfer_pw2rs_170                  72 12.0    0.074    0.077    0.155    0.177
 init_scf_run                         1  3.0    0.000    0.000    0.160    0.176
 scf_env_initial_rho_setup            1  4.0    0.000    0.000    0.160    0.176
 pw_poisson_solve                    72  8.0    0.001    0.001    0.166    0.167
 mp_isend_iv                     250312  8.3    0.043    0.160    0.043    0.160
 cp_cfm_to_cfm_columns             2341  8.0    0.140    0.146    0.140    0.146
 fft_wrap_pw1pw2_170                145 10.5    0.010    0.010    0.140    0.144
 transfer_rs2pw_170                  73  9.0    0.062    0.064    0.134    0.137
 mp_isendrecv_dv                   2023 13.0    0.071    0.134    0.071    0.134
 qs_env_update_s_mstruct              1  4.0    0.000    0.000    0.099    0.130
 mp_sum_dv                          367  3.8    0.068    0.129    0.068    0.129
 dbcsr_get_data_size_used        263360  9.8    0.117    0.129    0.117    0.129
 pw_integral_ab_c1d_c1d_gs           72  9.0    0.113    0.115    0.117    0.119
 mp_irecv_im2                    222368  8.3    0.015    0.118    0.015    0.118
 dbcsr_distribution_new          112954  8.6    0.103    0.115    0.103    0.115
 mp_recv_dv                        5304  7.0    0.014    0.115    0.014    0.115
 cp_fm_to_fm_matrix                4608  8.0    0.101    0.104    0.101    0.104
 pw_gather_p                        581 11.9    0.099    0.102    0.099    0.102
 calculate_rho_core                   1  5.0    0.002    0.002    0.058    0.101
 dbcsr_make_dbcsr_index          303752 10.9    0.092    0.096    0.092    0.096
 parser_read_line                  4815  4.1    0.002    0.002    0.089    0.091
 parser_read_line_low                22  6.3    0.008    0.030    0.088    0.089
 broadcast_input_information         22  7.3    0.027    0.037    0.080    0.085
 mp_isend_im2                    125156  8.3    0.019    0.074    0.019    0.074
 topology_control                     1  2.0    0.000    0.000    0.073    0.073
 mp_irecv_dv                     111776  8.3    0.067    0.071    0.067    0.071
 mixing_allocate                      1  3.0    0.003    0.003    0.063    0.068
 qs_init_subsys                       1  2.0    0.001    0.002    0.063    0.063
 pw_copy_from_array                 720 12.2    0.047    0.062    0.047    0.062
 qs_env_setup                         1  3.0    0.000    0.000    0.060    0.061
 qs_env_rebuild_pw_env                2  3.5    0.000    0.000    0.060    0.060
 pw_env_rebuild                       1  5.0    0.000    0.000    0.060    0.060
 restraint_control                    1  2.0    0.000    0.000    0.030    0.060
 mp_sum_i                             4  2.8    0.030    0.060    0.030    0.060
 pw_copy                           1080 10.5    0.055    0.057    0.055    0.057
 build_core_ppnl                      1  5.0    0.037    0.055    0.037    0.055
 pw_derive                          648 11.3    0.053    0.054    0.053    0.054
 pw_grid_setup                        4  6.0    0.000    0.000    0.053    0.053
 pw_grid_setup_internal               4  7.0    0.001    0.002    0.053    0.053
 mp_sum_dm                           71  7.0    0.030    0.050    0.030    0.050
 read_cell_cif                        2  4.5    0.002    0.005    0.049    0.050
 fft_wrap_pw1pw2_60                 145 10.5    0.003    0.003    0.046    0.047
 create_qs_kind_set                   1  2.0    0.000    0.000    0.047    0.047
 read_qs_kind                         1  3.0    0.024    0.026    0.047    0.047
 coordinate_control                   1  3.0    0.001    0.001    0.045    0.045
 coordinate_control_READ_COORDI       1  4.0    0.000    0.000    0.044    0.045
 cp_fm_create                       495  4.3    0.043    0.045    0.043    0.045
 read_coordinate_cif                  1  5.0    0.002    0.002    0.044    0.045
 build_overlap_matrix_low             1  5.0    0.009    0.011    0.038    0.042
 build_kinetic_matrix_low             1  5.0    0.009    0.010    0.037    0.041
 scf_post_calculation_gpw             1  3.0    0.000    0.000    0.040    0.040
 write_available_results              1  4.0    0.000    0.000    0.040    0.040
 write_mo_free_results                1  5.0    0.002    0.002    0.040    0.040
 transfer_pw2rs_60                   72 12.0    0.014    0.015    0.034    0.038
 pw_grid_sort                         4  8.0    0.024    0.024    0.035    0.036
 build_core_ppl                       1  5.0    0.023    0.034    0.023    0.034
 pw_poisson_set                      73  9.0    0.001    0.001    0.033    0.034
 qs_env_rebuild_rho                   1  5.0    0.000    0.000    0.030    0.033
 qs_rho_rebuild                       1  6.0    0.001    0.001    0.030    0.033
 transfer_rs2pw_60                   73  9.0    0.011    0.011    0.030    0.033
 mp_bcast_i_src                      88  8.3    0.027    0.032    0.027    0.032
 -------------------------------------------------------------------------------

 The number of warnings for this run is : 1
 
 -------------------------------------------------------------------------------
  **** **** ******  **  PROGRAM ENDED AT                 2025-08-04 23:23:52.874
 ***** ** ***  *** **   PROGRAM RAN ON                              i01r06c06s09
 **    ****   ******    PROGRAM RAN BY                                   di38fab
 ***** **    ** ** **   PROGRAM PROCESS ID                               2301484
  **** **  *******  **  PROGRAM STOPPED IN /hppfs/scratch/04/di38fab/09_GTH/Delt
                                           a_Set/P/aug-DZVP-MOLOPT-GTH-tier-1/8x
                                           8x8
