 DBCSR| CPU Multiplication driver                                           BLAS (U)
 DBCSR| Multrec recursion limit                                              512 (U)
 DBCSR| Multiplication stack size                                           1000 (D)
 DBCSR| Maximum elements for images                                    UNLIMITED (U)
 DBCSR| Multiplicative factor virtual images                                   1 (U)
 DBCSR| Use multiplication densification                                       T (D)
 DBCSR| Multiplication size stacks                                             3 (U)
 DBCSR| Use memory pool for CPU allocation                                     F (U)
 DBCSR| Number of 3D layers                                               SINGLE (U)
 DBCSR| Use MPI memory allocation                                              F (U)
 DBCSR| Use RMA algorithm                                                      F (U)
 DBCSR| Use Communication thread                                               T (U)
 DBCSR| Communication thread load                                             45 (D)
 DBCSR| MPI: My process id                                                     0
 DBCSR| MPI: Number of processes                                               8
 DBCSR| OMP: Current number of threads                                        12
 DBCSR| OMP: Max number of threads                                            12
 DBCSR| Split modifier for TAS multiplication algorithm                  1.0E+00 (U)


  **** **** ******  **  PROGRAM STARTED AT               2025-08-04 22:52:49.657
 ***** ** ***  *** **   PROGRAM STARTED ON                          i06r01c06s06
 **    ****   ******    PROGRAM STARTED BY                               di38fab
 ***** **    ** ** **   PROGRAM PROCESS ID                                639249
  **** **  *******  **  PROGRAM STARTED IN /hppfs/scratch/04/di38fab/09_GTH/Delt
                                           a_Set/Zn/aug-DZVP-MOLOPT-GTH-tier-1/8
                                           x8x8

 CP2K| version string:                 CP2K version 2025.1 (Development Version)
 CP2K| source code revision number:                                  git:3130539
 CP2K| cp2kflags: omp libint fftw3 libxc parallel scalapack max_contr=4         
 CP2K| is freely available from                            https://www.cp2k.org/
 CP2K| Program compiled at                         Tue Jun  3 16:14:32 CEST 2025
 CP2K| Program compiled on                                               login01
 CP2K| Program compiled for                                        Supermuc-foss
 CP2K| Data directory path                  /hppfs/work/pn36zo/di38fab/cp2k/data
 CP2K| Input file name                                                    GW.inp

 GLOBAL| Force Environment number                                              1
 GLOBAL| Basis set file name            /hppfs/scratch/04/di38fab/09_GTH/BASIS_A
 GLOBAL| Potential file name            /hppfs/work/pn36zo/di38fab/cp2k/data/GTH
 GLOBAL| MM Potential file name                                     MM_POTENTIAL
 GLOBAL| Coordinate file name                                             Zn.cif
 GLOBAL| Method name                                                        CP2K
 GLOBAL| Project name                                                       WSe2
 GLOBAL| Run type                                                         ENERGY
 GLOBAL| FFT library                                                       FFTW3
 GLOBAL| Diagonalization library                                       ScaLAPACK
 GLOBAL| Cholesky decomposition library                                ScaLAPACK
 GLOBAL| DGEMM library                                                      BLAS
 GLOBAL| Orthonormality check for eigenvectors                          DISABLED
 GLOBAL| Matrix multiplication library                                 ScaLAPACK
 GLOBAL| All-to-all communication in single precision                          F
 GLOBAL| FFTs using library dependent lengths                                  F
 GLOBAL| Grid backend                                                       AUTO
 GLOBAL| Global print level                                               MEDIUM
 GLOBAL| MPI I/O enabled                                                       T
 GLOBAL| Total number of message passing processes                             8
 GLOBAL| Number of threads for this process                                   12
 GLOBAL| This output is from process                                           0
 GLOBAL| OpenMP stack size per thread (OMP_STACKSIZE)                    default
 GLOBAL| CPU model name             Intel(R) Xeon(R) Platinum 8174 CPU @ 3.10GHz

 MEMORY| system memory details [Kb]
 MEMORY|                        rank 0           min           max       average
 MEMORY| MemTotal             98436708      98436664      98436708      98436686
 MEMORY| MemFree              85120228      84594988      85120228      84857608
 MEMORY| Buffers                     0             0             0             0
 MEMORY| Cached                2373600       2369820       2373600       2371710
 MEMORY| Slab                  1212348       1212348       1280632       1246490
 MEMORY| SReclaimable           274804        274804        276548        275676
 MEMORY| MemLikelyFree        87768632      87241356      87768632      87504994


 *** Fundamental physical constants (SI units) ***

 *** Literature: B. J. Mohr and B. N. Taylor,
 ***             CODATA recommended values of the fundamental physical
 ***             constants: 2006, Web Version 5.1
 ***             http://physics.nist.gov/constants

 Speed of light in vacuum [m/s]                             2.99792458000000E+08
 Magnetic constant or permeability of vacuum [N/A**2]       1.25663706143592E-06
 Electric constant or permittivity of vacuum [F/m]          8.85418781762039E-12
 Planck constant (h) [J*s]                                  6.62606896000000E-34
 Planck constant (h-bar) [J*s]                              1.05457162825177E-34
 Elementary charge [C]                                      1.60217648700000E-19
 Electron mass [kg]                                         9.10938215000000E-31
 Electron g factor [ ]                                     -2.00231930436220E+00
 Proton mass [kg]                                           1.67262163700000E-27
 Fine-structure constant                                    7.29735253760000E-03
 Rydberg constant [1/m]                                     1.09737315685270E+07
 Avogadro constant [1/mol]                                  6.02214179000000E+23
 Boltzmann constant [J/K]                                   1.38065040000000E-23
 Atomic mass unit [kg]                                      1.66053878200000E-27
 Bohr radius [m]                                            5.29177208590000E-11

 *** Conversion factors ***

 [u] -> [a.u.]                                              1.82288848426455E+03
 [Angstrom] -> [Bohr] = [a.u.]                              1.88972613288564E+00
 [a.u.] = [Bohr] -> [Angstrom]                              5.29177208590000E-01
 [a.u.] -> [s]                                              2.41888432650478E-17
 [a.u.] -> [fs]                                             2.41888432650478E-02
 [a.u.] -> [J]                                              4.35974393937059E-18
 [a.u.] -> [N]                                              8.23872205491840E-08
 [a.u.] -> [K]                                              3.15774647902944E+05
 [a.u.] -> [kJ/mol]                                         2.62549961709828E+03
 [a.u.] -> [kcal/mol]                                       6.27509468713739E+02
 [a.u.] -> [Pa]                                             2.94210107994716E+13
 [a.u.] -> [bar]                                            2.94210107994716E+08
 [a.u.] -> [atm]                                            2.90362800883016E+08
 [a.u.] -> [eV]                                             2.72113838565563E+01
 [a.u.] -> [Hz]                                             6.57968392072181E+15
 [a.u.] -> [1/cm] (wave numbers)                            2.19474631370540E+05
 [a.u./Bohr**2] -> [1/cm]                                   5.14048714338585E+03
 

 CELL_TOP| Volume [angstrom^3]:                                        30.701548
 CELL_TOP| Vector a [angstrom     2.662     0.000     0.000   |a| =     2.661690
 CELL_TOP| Vector b [angstrom     1.331     2.305     0.000   |b| =     2.661690
 CELL_TOP| Vector c [angstrom     0.000     0.000     5.004   |c| =     5.003970
 CELL_TOP| Angle (b,c), alpha [degree]:                                90.000000
 CELL_TOP| Angle (a,c), beta  [degree]:                                90.000000
 CELL_TOP| Angle (a,b), gamma [degree]:                                60.000000
 CELL_TOP| Numerically orthorhombic:                                          NO
 CELL_TOP| Periodicity                                                       XYZ

 CELL_CIF| Volume [angstrom^3]:                                        30.701548
 CELL_CIF| Vector a [angstrom     2.662     0.000     0.000   |a| =     2.661690
 CELL_CIF| Vector b [angstrom     1.331     2.305     0.000   |b| =     2.661690
 CELL_CIF| Vector c [angstrom     0.000     0.000     5.004   |c| =     5.003970
 CELL_CIF| Angle (b,c), alpha [degree]:                                90.000000
 CELL_CIF| Angle (a,c), beta  [degree]:                                90.000000
 CELL_CIF| Angle (a,b), gamma [degree]:                                60.000000
 CELL_CIF| Numerically orthorhombic:                                          NO
 CELL_CIF| Periodicity                                                       XYZ

 GENERATE|  Preliminary Number of Bonds generated:                             0
 GENERATE|  Achieved consistency in connectivity generation.

 CELL| Volume [angstrom^3]:                                            30.701548
 CELL| Vector a [angstrom]:       2.662     0.000     0.000   |a| =     2.661690
 CELL| Vector b [angstrom]:       1.331     2.305     0.000   |b| =     2.661690
 CELL| Vector c [angstrom]:       0.000     0.000     5.004   |c| =     5.003970
 CELL| Angle (b,c), alpha [degree]:                                    90.000000
 CELL| Angle (a,c), beta  [degree]:                                    90.000000
 CELL| Angle (a,b), gamma [degree]:                                    60.000000
 CELL| Numerically orthorhombic:                                              NO
 CELL| Periodicity                                                           XYZ

 CELL_REF| Volume [angstrom^3]:                                        30.701548
 CELL_REF| Vector a [angstrom     2.662     0.000     0.000   |a| =     2.661690
 CELL_REF| Vector b [angstrom     1.331     2.305     0.000   |b| =     2.661690
 CELL_REF| Vector c [angstrom     0.000     0.000     5.004   |c| =     5.003970
 CELL_REF| Angle (b,c), alpha [degree]:                                90.000000
 CELL_REF| Angle (a,c), beta  [degree]:                                90.000000
 CELL_REF| Angle (a,b), gamma [degree]:                                60.000000
 CELL_REF| Numerically orthorhombic:                                          NO
 CELL_REF| Periodicity                                                       XYZ

 *** WARNING in cryssym.F:180 :: Symmetry library SPGLIB not available ***


 *******************************************************************************
                                    Kpoints
 *******************************************************************************
 BRILLOUIN| K-point scheme                                        Monkhorst-Pack
 BRILLOUIN| K-Point grid                                             8    8    8
 BRILLOUIN| Accuracy in Symmetry determination                      0.100000E-05
 BRILLOUIN| K-Point point group symmetrization                               OFF
 BRILLOUIN| Wavefunction type                                            COMPLEX
 BRILLOUIN| List of Kpoints [2 Pi/Bohr]                                      256
 BRILLOUIN| Number           Weight            X              Y              Z
 BRILLOUIN|     1           0.00391       -0.43750       -0.43750       -0.43750
 BRILLOUIN|     2           0.00391       -0.43750       -0.43750       -0.31250
 BRILLOUIN|     3           0.00391       -0.43750       -0.43750       -0.18750
 BRILLOUIN|     4           0.00391       -0.43750       -0.43750       -0.06250
 BRILLOUIN|     5           0.00391       -0.43750       -0.43750        0.06250
 BRILLOUIN|     6           0.00391       -0.43750       -0.43750        0.18750
 BRILLOUIN|     7           0.00391       -0.43750       -0.43750        0.31250
 BRILLOUIN|     8           0.00391       -0.43750       -0.43750        0.43750
 BRILLOUIN|     9           0.00391       -0.43750       -0.31250       -0.43750
 BRILLOUIN|    10           0.00391       -0.43750       -0.31250       -0.31250
 BRILLOUIN|    11           0.00391       -0.43750       -0.31250       -0.18750
 BRILLOUIN|    12           0.00391       -0.43750       -0.31250       -0.06250
 BRILLOUIN|    13           0.00391       -0.43750       -0.31250        0.06250
 BRILLOUIN|    14           0.00391       -0.43750       -0.31250        0.18750
 BRILLOUIN|    15           0.00391       -0.43750       -0.31250        0.31250
 BRILLOUIN|    16           0.00391       -0.43750       -0.31250        0.43750
 BRILLOUIN|    17           0.00391       -0.43750       -0.18750       -0.43750
 BRILLOUIN|    18           0.00391       -0.43750       -0.18750       -0.31250
 BRILLOUIN|    19           0.00391       -0.43750       -0.18750       -0.18750
 BRILLOUIN|    20           0.00391       -0.43750       -0.18750       -0.06250
 BRILLOUIN|    21           0.00391       -0.43750       -0.18750        0.06250
 BRILLOUIN|    22           0.00391       -0.43750       -0.18750        0.18750
 BRILLOUIN|    23           0.00391       -0.43750       -0.18750        0.31250
 BRILLOUIN|    24           0.00391       -0.43750       -0.18750        0.43750
 BRILLOUIN|    25           0.00391       -0.43750       -0.06250       -0.43750
 BRILLOUIN|    26           0.00391       -0.43750       -0.06250       -0.31250
 BRILLOUIN|    27           0.00391       -0.43750       -0.06250       -0.18750
 BRILLOUIN|    28           0.00391       -0.43750       -0.06250       -0.06250
 BRILLOUIN|    29           0.00391       -0.43750       -0.06250        0.06250
 BRILLOUIN|    30           0.00391       -0.43750       -0.06250        0.18750
 BRILLOUIN|    31           0.00391       -0.43750       -0.06250        0.31250
 BRILLOUIN|    32           0.00391       -0.43750       -0.06250        0.43750
 BRILLOUIN|    33           0.00391       -0.43750        0.06250       -0.43750
 BRILLOUIN|    34           0.00391       -0.43750        0.06250       -0.31250
 BRILLOUIN|    35           0.00391       -0.43750        0.06250       -0.18750
 BRILLOUIN|    36           0.00391       -0.43750        0.06250       -0.06250
 BRILLOUIN|    37           0.00391       -0.43750        0.06250        0.06250
 BRILLOUIN|    38           0.00391       -0.43750        0.06250        0.18750
 BRILLOUIN|    39           0.00391       -0.43750        0.06250        0.31250
 BRILLOUIN|    40           0.00391       -0.43750        0.06250        0.43750
 BRILLOUIN|    41           0.00391       -0.43750        0.18750       -0.43750
 BRILLOUIN|    42           0.00391       -0.43750        0.18750       -0.31250
 BRILLOUIN|    43           0.00391       -0.43750        0.18750       -0.18750
 BRILLOUIN|    44           0.00391       -0.43750        0.18750       -0.06250
 BRILLOUIN|    45           0.00391       -0.43750        0.18750        0.06250
 BRILLOUIN|    46           0.00391       -0.43750        0.18750        0.18750
 BRILLOUIN|    47           0.00391       -0.43750        0.18750        0.31250
 BRILLOUIN|    48           0.00391       -0.43750        0.18750        0.43750
 BRILLOUIN|    49           0.00391       -0.43750        0.31250       -0.43750
 BRILLOUIN|    50           0.00391       -0.43750        0.31250       -0.31250
 BRILLOUIN|    51           0.00391       -0.43750        0.31250       -0.18750
 BRILLOUIN|    52           0.00391       -0.43750        0.31250       -0.06250
 BRILLOUIN|    53           0.00391       -0.43750        0.31250        0.06250
 BRILLOUIN|    54           0.00391       -0.43750        0.31250        0.18750
 BRILLOUIN|    55           0.00391       -0.43750        0.31250        0.31250
 BRILLOUIN|    56           0.00391       -0.43750        0.31250        0.43750
 BRILLOUIN|    57           0.00391       -0.43750        0.43750       -0.43750
 BRILLOUIN|    58           0.00391       -0.43750        0.43750       -0.31250
 BRILLOUIN|    59           0.00391       -0.43750        0.43750       -0.18750
 BRILLOUIN|    60           0.00391       -0.43750        0.43750       -0.06250
 BRILLOUIN|    61           0.00391       -0.43750        0.43750        0.06250
 BRILLOUIN|    62           0.00391       -0.43750        0.43750        0.18750
 BRILLOUIN|    63           0.00391       -0.43750        0.43750        0.31250
 BRILLOUIN|    64           0.00391       -0.43750        0.43750        0.43750
 BRILLOUIN|    65           0.00391       -0.31250       -0.43750       -0.43750
 BRILLOUIN|    66           0.00391       -0.31250       -0.43750       -0.31250
 BRILLOUIN|    67           0.00391       -0.31250       -0.43750       -0.18750
 BRILLOUIN|    68           0.00391       -0.31250       -0.43750       -0.06250
 BRILLOUIN|    69           0.00391       -0.31250       -0.43750        0.06250
 BRILLOUIN|    70           0.00391       -0.31250       -0.43750        0.18750
 BRILLOUIN|    71           0.00391       -0.31250       -0.43750        0.31250
 BRILLOUIN|    72           0.00391       -0.31250       -0.43750        0.43750
 BRILLOUIN|    73           0.00391       -0.31250       -0.31250       -0.43750
 BRILLOUIN|    74           0.00391       -0.31250       -0.31250       -0.31250
 BRILLOUIN|    75           0.00391       -0.31250       -0.31250       -0.18750
 BRILLOUIN|    76           0.00391       -0.31250       -0.31250       -0.06250
 BRILLOUIN|    77           0.00391       -0.31250       -0.31250        0.06250
 BRILLOUIN|    78           0.00391       -0.31250       -0.31250        0.18750
 BRILLOUIN|    79           0.00391       -0.31250       -0.31250        0.31250
 BRILLOUIN|    80           0.00391       -0.31250       -0.31250        0.43750
 BRILLOUIN|    81           0.00391       -0.31250       -0.18750       -0.43750
 BRILLOUIN|    82           0.00391       -0.31250       -0.18750       -0.31250
 BRILLOUIN|    83           0.00391       -0.31250       -0.18750       -0.18750
 BRILLOUIN|    84           0.00391       -0.31250       -0.18750       -0.06250
 BRILLOUIN|    85           0.00391       -0.31250       -0.18750        0.06250
 BRILLOUIN|    86           0.00391       -0.31250       -0.18750        0.18750
 BRILLOUIN|    87           0.00391       -0.31250       -0.18750        0.31250
 BRILLOUIN|    88           0.00391       -0.31250       -0.18750        0.43750
 BRILLOUIN|    89           0.00391       -0.31250       -0.06250       -0.43750
 BRILLOUIN|    90           0.00391       -0.31250       -0.06250       -0.31250
 BRILLOUIN|    91           0.00391       -0.31250       -0.06250       -0.18750
 BRILLOUIN|    92           0.00391       -0.31250       -0.06250       -0.06250
 BRILLOUIN|    93           0.00391       -0.31250       -0.06250        0.06250
 BRILLOUIN|    94           0.00391       -0.31250       -0.06250        0.18750
 BRILLOUIN|    95           0.00391       -0.31250       -0.06250        0.31250
 BRILLOUIN|    96           0.00391       -0.31250       -0.06250        0.43750
 BRILLOUIN|    97           0.00391       -0.31250        0.06250       -0.43750
 BRILLOUIN|    98           0.00391       -0.31250        0.06250       -0.31250
 BRILLOUIN|    99           0.00391       -0.31250        0.06250       -0.18750
 BRILLOUIN|   100           0.00391       -0.31250        0.06250       -0.06250
 BRILLOUIN|   101           0.00391       -0.31250        0.06250        0.06250
 BRILLOUIN|   102           0.00391       -0.31250        0.06250        0.18750
 BRILLOUIN|   103           0.00391       -0.31250        0.06250        0.31250
 BRILLOUIN|   104           0.00391       -0.31250        0.06250        0.43750
 BRILLOUIN|   105           0.00391       -0.31250        0.18750       -0.43750
 BRILLOUIN|   106           0.00391       -0.31250        0.18750       -0.31250
 BRILLOUIN|   107           0.00391       -0.31250        0.18750       -0.18750
 BRILLOUIN|   108           0.00391       -0.31250        0.18750       -0.06250
 BRILLOUIN|   109           0.00391       -0.31250        0.18750        0.06250
 BRILLOUIN|   110           0.00391       -0.31250        0.18750        0.18750
 BRILLOUIN|   111           0.00391       -0.31250        0.18750        0.31250
 BRILLOUIN|   112           0.00391       -0.31250        0.18750        0.43750
 BRILLOUIN|   113           0.00391       -0.31250        0.31250       -0.43750
 BRILLOUIN|   114           0.00391       -0.31250        0.31250       -0.31250
 BRILLOUIN|   115           0.00391       -0.31250        0.31250       -0.18750
 BRILLOUIN|   116           0.00391       -0.31250        0.31250       -0.06250
 BRILLOUIN|   117           0.00391       -0.31250        0.31250        0.06250
 BRILLOUIN|   118           0.00391       -0.31250        0.31250        0.18750
 BRILLOUIN|   119           0.00391       -0.31250        0.31250        0.31250
 BRILLOUIN|   120           0.00391       -0.31250        0.31250        0.43750
 BRILLOUIN|   121           0.00391       -0.31250        0.43750       -0.43750
 BRILLOUIN|   122           0.00391       -0.31250        0.43750       -0.31250
 BRILLOUIN|   123           0.00391       -0.31250        0.43750       -0.18750
 BRILLOUIN|   124           0.00391       -0.31250        0.43750       -0.06250
 BRILLOUIN|   125           0.00391       -0.31250        0.43750        0.06250
 BRILLOUIN|   126           0.00391       -0.31250        0.43750        0.18750
 BRILLOUIN|   127           0.00391       -0.31250        0.43750        0.31250
 BRILLOUIN|   128           0.00391       -0.31250        0.43750        0.43750
 BRILLOUIN|   129           0.00391       -0.18750       -0.43750       -0.43750
 BRILLOUIN|   130           0.00391       -0.18750       -0.43750       -0.31250
 BRILLOUIN|   131           0.00391       -0.18750       -0.43750       -0.18750
 BRILLOUIN|   132           0.00391       -0.18750       -0.43750       -0.06250
 BRILLOUIN|   133           0.00391       -0.18750       -0.43750        0.06250
 BRILLOUIN|   134           0.00391       -0.18750       -0.43750        0.18750
 BRILLOUIN|   135           0.00391       -0.18750       -0.43750        0.31250
 BRILLOUIN|   136           0.00391       -0.18750       -0.43750        0.43750
 BRILLOUIN|   137           0.00391       -0.18750       -0.31250       -0.43750
 BRILLOUIN|   138           0.00391       -0.18750       -0.31250       -0.31250
 BRILLOUIN|   139           0.00391       -0.18750       -0.31250       -0.18750
 BRILLOUIN|   140           0.00391       -0.18750       -0.31250       -0.06250
 BRILLOUIN|   141           0.00391       -0.18750       -0.31250        0.06250
 BRILLOUIN|   142           0.00391       -0.18750       -0.31250        0.18750
 BRILLOUIN|   143           0.00391       -0.18750       -0.31250        0.31250
 BRILLOUIN|   144           0.00391       -0.18750       -0.31250        0.43750
 BRILLOUIN|   145           0.00391       -0.18750       -0.18750       -0.43750
 BRILLOUIN|   146           0.00391       -0.18750       -0.18750       -0.31250
 BRILLOUIN|   147           0.00391       -0.18750       -0.18750       -0.18750
 BRILLOUIN|   148           0.00391       -0.18750       -0.18750       -0.06250
 BRILLOUIN|   149           0.00391       -0.18750       -0.18750        0.06250
 BRILLOUIN|   150           0.00391       -0.18750       -0.18750        0.18750
 BRILLOUIN|   151           0.00391       -0.18750       -0.18750        0.31250
 BRILLOUIN|   152           0.00391       -0.18750       -0.18750        0.43750
 BRILLOUIN|   153           0.00391       -0.18750       -0.06250       -0.43750
 BRILLOUIN|   154           0.00391       -0.18750       -0.06250       -0.31250
 BRILLOUIN|   155           0.00391       -0.18750       -0.06250       -0.18750
 BRILLOUIN|   156           0.00391       -0.18750       -0.06250       -0.06250
 BRILLOUIN|   157           0.00391       -0.18750       -0.06250        0.06250
 BRILLOUIN|   158           0.00391       -0.18750       -0.06250        0.18750
 BRILLOUIN|   159           0.00391       -0.18750       -0.06250        0.31250
 BRILLOUIN|   160           0.00391       -0.18750       -0.06250        0.43750
 BRILLOUIN|   161           0.00391       -0.18750        0.06250       -0.43750
 BRILLOUIN|   162           0.00391       -0.18750        0.06250       -0.31250
 BRILLOUIN|   163           0.00391       -0.18750        0.06250       -0.18750
 BRILLOUIN|   164           0.00391       -0.18750        0.06250       -0.06250
 BRILLOUIN|   165           0.00391       -0.18750        0.06250        0.06250
 BRILLOUIN|   166           0.00391       -0.18750        0.06250        0.18750
 BRILLOUIN|   167           0.00391       -0.18750        0.06250        0.31250
 BRILLOUIN|   168           0.00391       -0.18750        0.06250        0.43750
 BRILLOUIN|   169           0.00391       -0.18750        0.18750       -0.43750
 BRILLOUIN|   170           0.00391       -0.18750        0.18750       -0.31250
 BRILLOUIN|   171           0.00391       -0.18750        0.18750       -0.18750
 BRILLOUIN|   172           0.00391       -0.18750        0.18750       -0.06250
 BRILLOUIN|   173           0.00391       -0.18750        0.18750        0.06250
 BRILLOUIN|   174           0.00391       -0.18750        0.18750        0.18750
 BRILLOUIN|   175           0.00391       -0.18750        0.18750        0.31250
 BRILLOUIN|   176           0.00391       -0.18750        0.18750        0.43750
 BRILLOUIN|   177           0.00391       -0.18750        0.31250       -0.43750
 BRILLOUIN|   178           0.00391       -0.18750        0.31250       -0.31250
 BRILLOUIN|   179           0.00391       -0.18750        0.31250       -0.18750
 BRILLOUIN|   180           0.00391       -0.18750        0.31250       -0.06250
 BRILLOUIN|   181           0.00391       -0.18750        0.31250        0.06250
 BRILLOUIN|   182           0.00391       -0.18750        0.31250        0.18750
 BRILLOUIN|   183           0.00391       -0.18750        0.31250        0.31250
 BRILLOUIN|   184           0.00391       -0.18750        0.31250        0.43750
 BRILLOUIN|   185           0.00391       -0.18750        0.43750       -0.43750
 BRILLOUIN|   186           0.00391       -0.18750        0.43750       -0.31250
 BRILLOUIN|   187           0.00391       -0.18750        0.43750       -0.18750
 BRILLOUIN|   188           0.00391       -0.18750        0.43750       -0.06250
 BRILLOUIN|   189           0.00391       -0.18750        0.43750        0.06250
 BRILLOUIN|   190           0.00391       -0.18750        0.43750        0.18750
 BRILLOUIN|   191           0.00391       -0.18750        0.43750        0.31250
 BRILLOUIN|   192           0.00391       -0.18750        0.43750        0.43750
 BRILLOUIN|   193           0.00391       -0.06250       -0.43750       -0.43750
 BRILLOUIN|   194           0.00391       -0.06250       -0.43750       -0.31250
 BRILLOUIN|   195           0.00391       -0.06250       -0.43750       -0.18750
 BRILLOUIN|   196           0.00391       -0.06250       -0.43750       -0.06250
 BRILLOUIN|   197           0.00391       -0.06250       -0.43750        0.06250
 BRILLOUIN|   198           0.00391       -0.06250       -0.43750        0.18750
 BRILLOUIN|   199           0.00391       -0.06250       -0.43750        0.31250
 BRILLOUIN|   200           0.00391       -0.06250       -0.43750        0.43750
 BRILLOUIN|   201           0.00391       -0.06250       -0.31250       -0.43750
 BRILLOUIN|   202           0.00391       -0.06250       -0.31250       -0.31250
 BRILLOUIN|   203           0.00391       -0.06250       -0.31250       -0.18750
 BRILLOUIN|   204           0.00391       -0.06250       -0.31250       -0.06250
 BRILLOUIN|   205           0.00391       -0.06250       -0.31250        0.06250
 BRILLOUIN|   206           0.00391       -0.06250       -0.31250        0.18750
 BRILLOUIN|   207           0.00391       -0.06250       -0.31250        0.31250
 BRILLOUIN|   208           0.00391       -0.06250       -0.31250        0.43750
 BRILLOUIN|   209           0.00391       -0.06250       -0.18750       -0.43750
 BRILLOUIN|   210           0.00391       -0.06250       -0.18750       -0.31250
 BRILLOUIN|   211           0.00391       -0.06250       -0.18750       -0.18750
 BRILLOUIN|   212           0.00391       -0.06250       -0.18750       -0.06250
 BRILLOUIN|   213           0.00391       -0.06250       -0.18750        0.06250
 BRILLOUIN|   214           0.00391       -0.06250       -0.18750        0.18750
 BRILLOUIN|   215           0.00391       -0.06250       -0.18750        0.31250
 BRILLOUIN|   216           0.00391       -0.06250       -0.18750        0.43750
 BRILLOUIN|   217           0.00391       -0.06250       -0.06250       -0.43750
 BRILLOUIN|   218           0.00391       -0.06250       -0.06250       -0.31250
 BRILLOUIN|   219           0.00391       -0.06250       -0.06250       -0.18750
 BRILLOUIN|   220           0.00391       -0.06250       -0.06250       -0.06250
 BRILLOUIN|   221           0.00391       -0.06250       -0.06250        0.06250
 BRILLOUIN|   222           0.00391       -0.06250       -0.06250        0.18750
 BRILLOUIN|   223           0.00391       -0.06250       -0.06250        0.31250
 BRILLOUIN|   224           0.00391       -0.06250       -0.06250        0.43750
 BRILLOUIN|   225           0.00391       -0.06250        0.06250       -0.43750
 BRILLOUIN|   226           0.00391       -0.06250        0.06250       -0.31250
 BRILLOUIN|   227           0.00391       -0.06250        0.06250       -0.18750
 BRILLOUIN|   228           0.00391       -0.06250        0.06250       -0.06250
 BRILLOUIN|   229           0.00391       -0.06250        0.06250        0.06250
 BRILLOUIN|   230           0.00391       -0.06250        0.06250        0.18750
 BRILLOUIN|   231           0.00391       -0.06250        0.06250        0.31250
 BRILLOUIN|   232           0.00391       -0.06250        0.06250        0.43750
 BRILLOUIN|   233           0.00391       -0.06250        0.18750       -0.43750
 BRILLOUIN|   234           0.00391       -0.06250        0.18750       -0.31250
 BRILLOUIN|   235           0.00391       -0.06250        0.18750       -0.18750
 BRILLOUIN|   236           0.00391       -0.06250        0.18750       -0.06250
 BRILLOUIN|   237           0.00391       -0.06250        0.18750        0.06250
 BRILLOUIN|   238           0.00391       -0.06250        0.18750        0.18750
 BRILLOUIN|   239           0.00391       -0.06250        0.18750        0.31250
 BRILLOUIN|   240           0.00391       -0.06250        0.18750        0.43750
 BRILLOUIN|   241           0.00391       -0.06250        0.31250       -0.43750
 BRILLOUIN|   242           0.00391       -0.06250        0.31250       -0.31250
 BRILLOUIN|   243           0.00391       -0.06250        0.31250       -0.18750
 BRILLOUIN|   244           0.00391       -0.06250        0.31250       -0.06250
 BRILLOUIN|   245           0.00391       -0.06250        0.31250        0.06250
 BRILLOUIN|   246           0.00391       -0.06250        0.31250        0.18750
 BRILLOUIN|   247           0.00391       -0.06250        0.31250        0.31250
 BRILLOUIN|   248           0.00391       -0.06250        0.31250        0.43750
 BRILLOUIN|   249           0.00391       -0.06250        0.43750       -0.43750
 BRILLOUIN|   250           0.00391       -0.06250        0.43750       -0.31250
 BRILLOUIN|   251           0.00391       -0.06250        0.43750       -0.18750
 BRILLOUIN|   252           0.00391       -0.06250        0.43750       -0.06250
 BRILLOUIN|   253           0.00391       -0.06250        0.43750        0.06250
 BRILLOUIN|   254           0.00391       -0.06250        0.43750        0.18750
 BRILLOUIN|   255           0.00391       -0.06250        0.43750        0.31250
 BRILLOUIN|   256           0.00391       -0.06250        0.43750        0.43750
 *******************************************************************************

 *******************************************************************************
 *******************************************************************************
 **                                                                           **
 **     #####                         ##              ##                      **
 **    ##   ##            ##          ##              ##                      **
 **   ##     ##                       ##            ######                    **
 **   ##     ##  ##   ##  ##   #####  ##  ##   ####   ##    #####    #####    **
 **   ##     ##  ##   ##  ##  ##      ## ##   ##      ##   ##   ##  ##   ##   **
 **   ##  ## ##  ##   ##  ##  ##      ####     ###    ##   ######   ######    **
 **    ##  ###   ##   ##  ##  ##      ## ##      ##   ##   ##       ##        **
 **     #######   #####   ##   #####  ##  ##  ####    ##    #####   ##        **
 **           ##                                                    ##        **
 **                                                                           **
 **                                                ... make the atoms dance   **
 **                                                                           **
 **            Copyright (C) by CP2K developers group (2000-2025)             **
 **                      J. Chem. Phys. 152, 194103 (2020)                    **
 **                                                                           **
 *******************************************************************************

 DFT| Spin restricted Kohn-Sham (RKS) calculation                            RKS
 DFT| Multiplicity                                                             1
 DFT| Number of spin states                                                    1
 DFT| Charge                                                                   0
 DFT| Self-interaction correction (SIC)                                       NO
 DFT| Cutoffs: density                                              1.000000E-10
 DFT|          gradient                                             1.000000E-10
 DFT|          tau                                                  1.000000E-10
 DFT|          cutoff_smoothing_range                               0.000000E+00
 DFT| XC density smoothing                                                  NONE
 DFT| XC derivatives                                                          PW

 FUNCTIONAL| PBE:
 FUNCTIONAL| J.P.Perdew, K.Burke, M.Ernzerhof, Phys. Rev. Letter, vol. 77, n 18,
 FUNCTIONAL|  pp. 3865-3868, (1996) {spin unpolarized}                          


 QS| Method:                                                                 GPW
 QS| Density plane wave grid type                        NON-SPHERICAL FULLSPACE
 QS| Number of grid levels:                                                    4
 QS| Density cutoff [a.u.]:                                                500.0
 QS| Multi grid cutoff [a.u.]: 1) grid level                               500.0
 QS|                           2) grid level                               166.7
 QS|                           3) grid level                                55.6
 QS|                           4) grid level                                18.5
 QS| Grid level progression factor:                                          3.0
 QS| Relative density cutoff [a.u.]:                                        50.0
 QS| Interaction thresholds: eps_pgf_orb:                                1.0E-16
 QS|                         eps_filter_matrix:                          0.0E+00
 QS|                         eps_core_charge:                            1.0E-18
 QS|                         eps_rho_gspace:                             1.0E-16
 QS|                         eps_rho_rspace:                             1.0E-16
 QS|                         eps_gvg_rspace:                             1.0E-08
 QS|                         eps_ppl:                                    1.0E-02
 QS|                         eps_ppnl:                                   1.0E-10


 ATOMIC KIND INFORMATION

  1. Atomic kind: Zn                                    Number of atoms:       2

     Orbital Basis Set                                aug-DZVP-MOLOPT-GTH-tier-1

       Number of orbital shell sets:                                           1
       Number of orbital shells:                                              11
       Number of primitive Cartesian functions:                                6
       Number of Cartesian basis functions:                                   50
       Number of spherical basis functions:                                   41
       Norm type:                                                              2

       Normalised Cartesian orbitals:

                        Set   Shell   Orbital            Exponent    Coefficient

                          1       1    2s                0.047979      -0.036796
                                                         0.139193      -0.094463
                                                         0.376911      -0.022564
                                                         1.000684       0.163207
                                                         2.638267      -0.041030
                                                         6.104275       0.016727

                          1       2    3s                0.047979      -0.111349
                                                         0.139193       0.128448
                                                         0.376911       0.343049
                                                         1.000684      -0.735262
                                                         2.638267       0.294581
                                                         6.104275      -0.056747

                          1       3    4s                0.047979      -0.075560
                                                         0.139193      -0.001685
                                                         0.376911       0.030829
                                                         1.000684       0.000000
                                                         2.638267       0.000000
                                                         6.104275       0.000000

                          1       4    3px               0.047979      -0.033041
                                                         0.139193      -0.002357
                                                         0.376911       0.082133
                                                         1.000684      -0.079217
                                                         2.638267      -0.103883
                                                         6.104275       0.035380
                          1       4    3py               0.047979      -0.033041
                                                         0.139193      -0.002357
                                                         0.376911       0.082133
                                                         1.000684      -0.079217
                                                         2.638267      -0.103883
                                                         6.104275       0.035380
                          1       4    3pz               0.047979      -0.033041
                                                         0.139193      -0.002357
                                                         0.376911       0.082133
                                                         1.000684      -0.079217
                                                         2.638267      -0.103883
                                                         6.104275       0.035380

                          1       5    4px               0.047979       0.002583
                                                         0.139193       0.080547
                                                         0.376911       0.185414
                                                         1.000684      -0.257608
                                                         2.638267      -0.061965
                                                         6.104275       0.010518
                          1       5    4py               0.047979       0.002583
                                                         0.139193       0.080547
                                                         0.376911       0.185414
                                                         1.000684      -0.257608
                                                         2.638267      -0.061965
                                                         6.104275       0.010518
                          1       5    4pz               0.047979       0.002583
                                                         0.139193       0.080547
                                                         0.376911       0.185414
                                                         1.000684      -0.257608
                                                         2.638267      -0.061965
                                                         6.104275       0.010518

                          1       6    5px               0.047979      -0.037829
                                                         0.139193       0.044523
                                                         0.376911       0.175460
                                                         1.000684       0.000000
                                                         2.638267       0.000000
                                                         6.104275       0.000000
                          1       6    5py               0.047979      -0.037829
                                                         0.139193       0.044523
                                                         0.376911       0.175460
                                                         1.000684       0.000000
                                                         2.638267       0.000000
                                                         6.104275       0.000000
                          1       6    5pz               0.047979      -0.037829
                                                         0.139193       0.044523
                                                         0.376911       0.175460
                                                         1.000684       0.000000
                                                         2.638267       0.000000
                                                         6.104275       0.000000

                          1       7    4dx2              0.047979      -0.000038
                                                         0.139193       0.001869
                                                         0.376911       0.050447
                                                         1.000684       0.543951
                                                         2.638267       3.627180
                                                         6.104275      13.464071
                          1       7    4dxy              0.047979      -0.000066
                                                         0.139193       0.003237
                                                         0.376911       0.087377
                                                         1.000684       0.942150
                                                         2.638267       6.282461
                                                         6.104275      23.320455
                          1       7    4dxz              0.047979      -0.000066
                                                         0.139193       0.003237
                                                         0.376911       0.087377
                                                         1.000684       0.942150
                                                         2.638267       6.282461
                                                         6.104275      23.320455
                          1       7    4dy2              0.047979      -0.000038
                                                         0.139193       0.001869
                                                         0.376911       0.050447
                                                         1.000684       0.543951
                                                         2.638267       3.627180
                                                         6.104275      13.464071
                          1       7    4dyz              0.047979      -0.000066
                                                         0.139193       0.003237
                                                         0.376911       0.087377
                                                         1.000684       0.942150
                                                         2.638267       6.282461
                                                         6.104275      23.320455
                          1       7    4dz2              0.047979      -0.000038
                                                         0.139193       0.001869
                                                         0.376911       0.050447
                                                         1.000684       0.543951
                                                         2.638267       3.627180
                                                         6.104275      13.464071

                          1       8    5dx2              0.047979       0.001127
                                                         0.139193       0.024138
                                                         0.376911       0.183788
                                                         1.000684      -0.199622
                                                         2.638267      -1.316925
                                                         6.104275      -2.364570
                          1       8    5dxy              0.047979       0.001951
                                                         0.139193       0.041808
                                                         0.376911       0.318331
                                                         1.000684      -0.345755
                                                         2.638267      -2.280981
                                                         6.104275      -4.095555
                          1       8    5dxz              0.047979       0.001951
                                                         0.139193       0.041808
                                                         0.376911       0.318331
                                                         1.000684      -0.345755
                                                         2.638267      -2.280981
                                                         6.104275      -4.095555
                          1       8    5dy2              0.047979       0.001127
                                                         0.139193       0.024138
                                                         0.376911       0.183788
                                                         1.000684      -0.199622
                                                         2.638267      -1.316925
                                                         6.104275      -2.364570
                          1       8    5dyz              0.047979       0.001951
                                                         0.139193       0.041808
                                                         0.376911       0.318331
                                                         1.000684      -0.345755
                                                         2.638267      -2.280981
                                                         6.104275      -4.095555
                          1       8    5dz2              0.047979       0.001127
                                                         0.139193       0.024138
                                                         0.376911       0.183788
                                                         1.000684      -0.199622
                                                         2.638267      -1.316925
                                                         6.104275      -2.364570

                          1       9    6dx2              0.047979       0.002077
                                                         0.139193       0.015203
                                                         0.376911       0.196840
                                                         1.000684       0.000000
                                                         2.638267       0.000000
                                                         6.104275       0.000000
                          1       9    6dxy              0.047979       0.003597
                                                         0.139193       0.026332
                                                         0.376911       0.340937
                                                         1.000684       0.000000
                                                         2.638267       0.000000
                                                         6.104275       0.000000
                          1       9    6dxz              0.047979       0.003597
                                                         0.139193       0.026332
                                                         0.376911       0.340937
                                                         1.000684       0.000000
                                                         2.638267       0.000000
                                                         6.104275       0.000000
                          1       9    6dy2              0.047979       0.002077
                                                         0.139193       0.015203
                                                         0.376911       0.196840
                                                         1.000684       0.000000
                                                         2.638267       0.000000
                                                         6.104275       0.000000
                          1       9    6dyz              0.047979       0.003597
                                                         0.139193       0.026332
                                                         0.376911       0.340937
                                                         1.000684       0.000000
                                                         2.638267       0.000000
                                                         6.104275       0.000000
                          1       9    6dz2              0.047979       0.002077
                                                         0.139193       0.015203
                                                         0.376911       0.196840
                                                         1.000684       0.000000
                                                         2.638267       0.000000
                                                         6.104275       0.000000

                          1      10    5fx3              0.047979       0.000291
                                                         0.139193       0.009474
                                                         0.376911       0.071793
                                                         1.000684       0.131964
                                                         2.638267       0.062463
                                                         6.104275      -0.134501
                          1      10    5fx2y             0.047979       0.000650
                                                         0.139193       0.021185
                                                         0.376911       0.160535
                                                         1.000684       0.295080
                                                         2.638267       0.139671
                                                         6.104275      -0.300754
                          1      10    5fx2z             0.047979       0.000650
                                                         0.139193       0.021185
                                                         0.376911       0.160535
                                                         1.000684       0.295080
                                                         2.638267       0.139671
                                                         6.104275      -0.300754
                          1      10    5fxy2             0.047979       0.000650
                                                         0.139193       0.021185
                                                         0.376911       0.160535
                                                         1.000684       0.295080
                                                         2.638267       0.139671
                                                         6.104275      -0.300754
                          1      10    5fxyz             0.047979       0.001126
                                                         0.139193       0.036694
                                                         0.376911       0.278055
                                                         1.000684       0.511094
                                                         2.638267       0.241918
                                                         6.104275      -0.520922
                          1      10    5fxz2             0.047979       0.000650
                                                         0.139193       0.021185
                                                         0.376911       0.160535
                                                         1.000684       0.295080
                                                         2.638267       0.139671
                                                         6.104275      -0.300754
                          1      10    5fy3              0.047979       0.000291
                                                         0.139193       0.009474
                                                         0.376911       0.071793
                                                         1.000684       0.131964
                                                         2.638267       0.062463
                                                         6.104275      -0.134501
                          1      10    5fy2z             0.047979       0.000650
                                                         0.139193       0.021185
                                                         0.376911       0.160535
                                                         1.000684       0.295080
                                                         2.638267       0.139671
                                                         6.104275      -0.300754
                          1      10    5fyz2             0.047979       0.000650
                                                         0.139193       0.021185
                                                         0.376911       0.160535
                                                         1.000684       0.295080
                                                         2.638267       0.139671
                                                         6.104275      -0.300754
                          1      10    5fz3              0.047979       0.000291
                                                         0.139193       0.009474
                                                         0.376911       0.071793
                                                         1.000684       0.131964
                                                         2.638267       0.062463
                                                         6.104275      -0.134501

                          1      11    6fx3              0.047979       0.000345
                                                         0.139193       0.009450
                                                         0.376911       0.075509
                                                         1.000684       0.000000
                                                         2.638267       0.000000
                                                         6.104275       0.000000
                          1      11    6fx2y             0.047979       0.000771
                                                         0.139193       0.021131
                                                         0.376911       0.168842
                                                         1.000684       0.000000
                                                         2.638267       0.000000
                                                         6.104275       0.000000
                          1      11    6fx2z             0.047979       0.000771
                                                         0.139193       0.021131
                                                         0.376911       0.168842
                                                         1.000684       0.000000
                                                         2.638267       0.000000
                                                         6.104275       0.000000
                          1      11    6fxy2             0.047979       0.000771
                                                         0.139193       0.021131
                                                         0.376911       0.168842
                                                         1.000684       0.000000
                                                         2.638267       0.000000
                                                         6.104275       0.000000
                          1      11    6fxyz             0.047979       0.001336
                                                         0.139193       0.036600
                                                         0.376911       0.292443
                                                         1.000684       0.000000
                                                         2.638267       0.000000
                                                         6.104275       0.000000
                          1      11    6fxz2             0.047979       0.000771
                                                         0.139193       0.021131
                                                         0.376911       0.168842
                                                         1.000684       0.000000
                                                         2.638267       0.000000
                                                         6.104275       0.000000
                          1      11    6fy3              0.047979       0.000345
                                                         0.139193       0.009450
                                                         0.376911       0.075509
                                                         1.000684       0.000000
                                                         2.638267       0.000000
                                                         6.104275       0.000000
                          1      11    6fy2z             0.047979       0.000771
                                                         0.139193       0.021131
                                                         0.376911       0.168842
                                                         1.000684       0.000000
                                                         2.638267       0.000000
                                                         6.104275       0.000000
                          1      11    6fyz2             0.047979       0.000771
                                                         0.139193       0.021131
                                                         0.376911       0.168842
                                                         1.000684       0.000000
                                                         2.638267       0.000000
                                                         6.104275       0.000000
                          1      11    6fz3              0.047979       0.000345
                                                         0.139193       0.009450
                                                         0.376911       0.075509
                                                         1.000684       0.000000
                                                         2.638267       0.000000
                                                         6.104275       0.000000

       Atomic covalent radius [Angstrom]:                                  1.250

       Atomic van der Waals radius [Angstrom]:                             1.390

     GTH Potential information for                                       GTH-PBE

       Description:                       Goedecker-Teter-Hutter pseudopotential
                                           Goedecker et al., PRB 54, 1703 (1996)
                                          Hartwigsen et al., PRB 58, 3641 (1998)
                                                      Krack, TCA 114, 145 (2005)

       Gaussian exponent of the core charge distribution:               1.922338
       Electronic configuration (s p d ...):                           2   0  10

       Parameters of the local part of the GTH pseudopotential:

                          rloc        C1          C2          C3          C4
                        0.510000

       Parameters of the non-local part of the GTH (SOC) pseudopotential:

                   l      r(l)      h(i,j,l)
                                    k(i,j,l)
                   0    0.400316   11.530041   -8.791898    3.145086
                                   -8.791898   16.465775   -8.120578
                                    3.145086   -8.120578    6.445509
                   1    0.543182    2.597195   -0.594263
                                   -0.594263    0.703141
                                    0.100174   -0.106933
                                   -0.106933    0.126525
                   2    0.250959  -14.466958
                                    0.012727


 MOLECULE KIND INFORMATION


 All atoms are their own molecule, skipping detailed information


 TOTAL NUMBERS AND MAXIMUM NUMBERS

  Total number of            - Atomic kinds:                                   1
                             - Atoms:                                          2
                             - Shell sets:                                     2
                             - Shells:                                        22
                             - Primitive Cartesian functions:                 12
                             - Cartesian basis functions:                    100
                             - Spherical basis functions:                     82

  Maximum angular momentum of the orbital basis functions:                     3


 MODULE QUICKSTEP: ATOMIC COORDINATES IN ANGSTROM

   Atom Kind Element         X             Y             Z       Z(eff)     Mass
      1    1 Zn   30      0.000000      0.000000      0.000000  12.0000  65.3800
      2    1 Zn   30      1.330832      0.768356      2.501985  12.0000  65.3800



 SCF PARAMETERS         Density guess:                                    ATOMIC
                        --------------------------------------------------------
                        max_scf:                                             500
                        max_scf_history:                                       0
                        max_diis:                                              4
                        --------------------------------------------------------
                        eps_scf:                                        1.00E-09
                        eps_scf_history:                                0.00E+00
                        eps_diis:                                       1.00E-01
                        eps_eigval:                                     1.00E-05
                        --------------------------------------------------------
                        level_shift [a.u.]:                             0.000000
                        added MOs                                        70    0
                        --------------------------------------------------------
                        Mixing method:                            BROYDEN_MIXING
                                                charge density mixing in g-space
                        --------------------------------------------------------
                        Smear method:                                FERMI_DIRAC
                        Electronic temperature [K]:                        300.0
                        Electronic temperature [a.u.]:                  9.50E-04
                        Accuracy threshold:                             1.00E-10
                        --------------------------------------------------------
                        No outer SCF

 PW_GRID| Information for grid number                                          1
 PW_GRID| Grid distributed over                                     8 processors
 PW_GRID| Real space group dimensions                                     8    1
 PW_GRID| the grid is blocked:                                                NO
 PW_GRID| Cutoff [a.u.]                                                    500.0
 PW_GRID| spherical cutoff:                                                   NO
 PW_GRID|   Bounds   1            -27      26                Points:          54
 PW_GRID|   Bounds   2            -27      26                Points:          54
 PW_GRID|   Bounds   3            -48      47                Points:          96
 PW_GRID| Volume element (a.u.^3)  0.7401E-03     Volume (a.u.^3)       207.1843
 PW_GRID| Grid span                                                    FULLSPACE
 PW_GRID|   Distribution                         Average         Max         Min
 PW_GRID|   G-Vectors                            34992.0       34992       34992
 PW_GRID|   G-Rays                                 648.0         648         648
 PW_GRID|   Real Space Points                    34992.0       36288       31104

 PW_GRID| Information for grid number                                          2
 PW_GRID| Number of the reference grid                                         1
 PW_GRID| Grid distributed over                                     8 processors
 PW_GRID| Real space group dimensions                                     8    1
 PW_GRID| the grid is blocked:                                                NO
 PW_GRID| Cutoff [a.u.]                                                    166.7
 PW_GRID| spherical cutoff:                                                   NO
 PW_GRID|   Bounds   1            -15      14                Points:          30
 PW_GRID|   Bounds   2            -15      14                Points:          30
 PW_GRID|   Bounds   3            -30      29                Points:          60
 PW_GRID| Volume element (a.u.^3)  0.3837E-02     Volume (a.u.^3)       207.1843
 PW_GRID| Grid span                                                    FULLSPACE
 PW_GRID|   Distribution                         Average         Max         Min
 PW_GRID|   G-Vectors                             6750.0        6810        6690
 PW_GRID|   G-Rays                                 225.0         227         223
 PW_GRID|   Real Space Points                     6750.0        7200        5400

 PW_GRID| Information for grid number                                          3
 PW_GRID| Number of the reference grid                                         1
 PW_GRID| Grid distributed over                                     8 processors
 PW_GRID| Real space group dimensions                                     8    1
 PW_GRID| the grid is blocked:                                                NO
 PW_GRID| Cutoff [a.u.]                                                     55.6
 PW_GRID| spherical cutoff:                                                   NO
 PW_GRID|   Bounds   1             -9       8                Points:          18
 PW_GRID|   Bounds   2             -9       8                Points:          18
 PW_GRID|   Bounds   3            -16      15                Points:          32
 PW_GRID| Volume element (a.u.^3)  0.1998E-01     Volume (a.u.^3)       207.1843
 PW_GRID| Grid span                                                    FULLSPACE
 PW_GRID|   Distribution                         Average         Max         Min
 PW_GRID|   G-Vectors                             1296.0        1332        1260
 PW_GRID|   G-Rays                                  72.0          74          70
 PW_GRID|   Real Space Points                     1296.0        1728        1152

 PW_GRID| Information for grid number                                          4
 PW_GRID| Number of the reference grid                                         1
 PW_GRID| Grid distributed over                                     8 processors
 PW_GRID| Real space group dimensions                                     8    1
 PW_GRID| the grid is blocked:                                                NO
 PW_GRID| Cutoff [a.u.]                                                     18.5
 PW_GRID| spherical cutoff:                                                   NO
 PW_GRID|   Bounds   1             -4       4                Points:           9
 PW_GRID|   Bounds   2             -4       4                Points:           9
 PW_GRID|   Bounds   3            -10       9                Points:          20
 PW_GRID| Volume element (a.u.^3)  0.1279         Volume (a.u.^3)       207.1843
 PW_GRID| Grid span                                                    FULLSPACE
 PW_GRID|   Distribution                         Average         Max         Min
 PW_GRID|   G-Vectors                              202.5         234         162
 PW_GRID|   G-Rays                                  22.5          26          18
 PW_GRID|   Real Space Points                      202.5         360         180

 POISSON| Solver                                                        PERIODIC
 POISSON| Periodicity                                                        XYZ

 RS_GRID| Information for grid number                                          1
 RS_GRID|   Bounds   1            -27      26                Points:          54
 RS_GRID|   Bounds   2            -27      26                Points:          54
 RS_GRID|   Bounds   3            -48      47                Points:          96
 RS_GRID| Real space fully replicated
 RS_GRID| Group size                                                           1

 RS_GRID| Information for grid number                                          2
 RS_GRID|   Bounds   1            -15      14                Points:          30
 RS_GRID|   Bounds   2            -15      14                Points:          30
 RS_GRID|   Bounds   3            -30      29                Points:          60
 RS_GRID| Real space fully replicated
 RS_GRID| Group size                                                           1

 RS_GRID| Information for grid number                                          3
 RS_GRID|   Bounds   1             -9       8                Points:          18
 RS_GRID|   Bounds   2             -9       8                Points:          18
 RS_GRID|   Bounds   3            -16      15                Points:          32
 RS_GRID| Real space fully replicated
 RS_GRID| Group size                                                           1

 RS_GRID| Information for grid number                                          4
 RS_GRID|   Bounds   1             -4       4                Points:           9
 RS_GRID|   Bounds   2             -4       4                Points:           9
 RS_GRID|   Bounds   3            -10       9                Points:          20
 RS_GRID| Real space fully replicated
 RS_GRID| Group size                                                           1

 Number of electrons:                                                         24
 Number of occupied orbitals:                                                 12
 Number of molecular orbitals:                                                82

 Number of orbital functions:                                                 82
 Number of independent orbital functions:                                     82

 Extrapolation method: initial_guess

 Atomic guess: The first density matrix is obtained in terms of atomic orbitals
               and electronic configurations assigned to each atomic kind

 Guess for atomic kind: Zn

 Electronic structure
    Total number of core electrons                                         18.00
    Total number of valence electrons                                      12.00
    Total number of electrons                                              30.00
    Multiplicity                                                   not specified
    S   [  2.00  2.00  2.00] 2.00
    P   [  6.00  6.00]
    D     10.00


 *******************************************************************************
                  Iteration          Convergence                     Energy [au]
 *******************************************************************************
                          1         16.6773                     -35.091325643511
                          2         2.97681                     -58.426003657768
                          3        0.363795                     -60.134193308141
                          4        0.192374                     -60.149841340551
                          5        0.142722                     -60.150733637587
                          6        0.201623E-01                 -60.151768731926
                          7        0.816454E-04                 -60.151789667008
                          8        0.864017E-06                 -60.151789667357

 Energy components [Hartree]           Total Energy ::          -60.151789667357
                                        Band Energy ::           -3.774839670152
                                     Kinetic Energy ::           84.233728737919
                                   Potential Energy ::         -144.385518405276
                                      Virial (-V/T) ::            1.714105745627
                                        Core Energy ::         -110.588845870169
                                          XC Energy ::           -8.667653560837
                                     Coulomb Energy ::           59.104709763649
                       Total Pseudopotential Energy ::         -194.919218511930
                       Local Pseudopotential Energy ::         -136.018228016196
                    Nonlocal Pseudopotential Energy ::          -58.900990495734
                                        Confinement ::            0.966439038422

 Orbital energies  State     L     Occupation   Energy[a.u.]          Energy[eV]

                       1     0          2.000      -0.186449           -5.073533

                       1     2         10.000      -0.340194           -9.257155


 Total Electron Density at R=0:                                         0.000003
 Re-scaling the density matrix to get the right number of electrons
                  # Electrons              Trace(P)               Scaling factor
                           24                24.000                        1.000


 SCF WAVEFUNCTION OPTIMIZATION

  Step     Update method      Time    Convergence         Total energy    Change
  ------------------------------------------------------------------------------
     1 NoMix/Diag. 0.10E+00   41.9     3.63771217      -121.2535783116 -1.21E+02
     2 Broy./Diag. 0.10E+00   43.5     0.02096741      -121.6446633116 -3.91E-01
     3 Broy./Diag. 0.10E+00   43.6     0.12600370      -121.3922381456  2.52E-01
     4 Broy./Diag. 0.10E+00   43.5     0.01675763      -121.0456981131  3.47E-01
     5 Broy./Diag. 0.10E+00   44.2     0.01414634      -121.0253908112  2.03E-02
     6 Broy./Diag. 0.10E+00   43.9     0.00211289      -121.0469356137 -2.15E-02
     7 Broy./Diag. 0.10E+00   43.5     0.00855663      -121.0519450965 -5.01E-03
     8 Broy./Diag. 0.10E+00   43.4     0.00013110      -121.0521771609 -2.32E-04
     9 Broy./Diag. 0.10E+00   43.3     0.00105150      -121.0515414210  6.36E-04
    10 Broy./Diag. 0.10E+00   43.4     0.00003412      -121.0514413792  1.00E-04
    11 Broy./Diag. 0.10E+00   43.3     0.00029373      -121.0515164964 -7.51E-05
    12 Broy./Diag. 0.10E+00   43.4     0.00002921      -121.0514292692  8.72E-05
    13 Broy./Diag. 0.10E+00   43.3     0.00002744      -121.0514083507  2.09E-05
    14 Broy./Diag. 0.10E+00   43.4     0.00000966      -121.0514113387 -2.99E-06
    15 Broy./Diag. 0.10E+00   43.4     0.00000051      -121.0514128809 -1.54E-06
    16 Broy./Diag. 0.10E+00   43.4     0.00000103      -121.0514128830 -2.06E-09
    17 Broy./Diag. 0.10E+00   43.3     0.00000005      -121.0514122769  6.06E-07
    18 Broy./Diag. 0.10E+00   43.4     0.00000032      -121.0514122096  6.73E-08
    19 Broy./Diag. 0.10E+00   43.4     9.2924E-09      -121.0514121825  2.71E-08
    20 Broy./Diag. 0.10E+00   43.3     0.00000006      -121.0514121778  4.66E-09
    21 Broy./Diag. 0.10E+00   43.3     2.3018E-09      -121.0514122020 -2.42E-08
    22 Broy./Diag. 0.10E+00   43.4     0.00000003      -121.0514122027 -7.14E-10
    23 Broy./Diag. 0.10E+00   43.3     7.5540E-10      -121.0514122029 -2.18E-10

  *** SCF run converged in    23 steps ***


  Electronic density on regular grids:        -24.0000000000       -0.0000000000
  Core density on regular grids:               24.0000000000        0.0000000000
  Total charge density on r-space grids:       -0.0000000000
  Total charge density g-space grids:          -0.0000000000

  Overlap energy of the core charge distribution:               0.00000000053204
  Self energy of the core charge distribution:               -159.30058829583709
  Core Hamiltonian energy:                                     50.77703045029340
  Hartree energy:                                               5.46354546173806
[...]
      2       Zn     1      12.000         12.000                        -0.000

  Total Charge                                                            0.000
 !-----------------------------------------------------------------------------!

 KPOINTS| Band Structure Calculation
 KPOINTS| Number of k-point sets                                               1
 KPOINTS| Number of added MOs/bands                                           -1
 KPOINTS| Number of k-points in set    1                                     148
 KPOINTS| In units of b-vector [2pi/Bohr]
 KPOINTS| Special point     1 not specifi     0.000000     0.000000     0.000000
 KPOINTS| Special point     2 not specifi     0.500000     0.000000     0.000000
 KPOINTS| Special point     3 not specifi     0.333333     0.333333     0.000000
 KPOINTS| Special point     4 not specifi     0.000000     0.000000     0.000000
 KPOINTS| Time for k-point line                                           15.869

 ENERGY| Total FORCE_EVAL ( QS ) energy [hartree]           -121.051412202947105

 -------------------------------------------------------------------------------
 -                                                                             -
 -                                DBCSR STATISTICS                             -
 -                                                                             -
 -------------------------------------------------------------------------------
 COUNTER                                    TOTAL       BLAS       SMM       ACC
 flops inhomo. stacks                           0       0.0%      0.0%      0.0%
 flops total                         0.000000E+00       0.0%      0.0%      0.0%
 flops max/rank                      0.000000E+00       0.0%      0.0%      0.0%
 matmuls inhomo. stacks                         0       0.0%      0.0%      0.0%
 matmuls total                                  0       0.0%      0.0%      0.0%
 number of processed stacks                     0       0.0%      0.0%      0.0%
 average stack size                                     0.0       0.0       0.0
 marketing flops                     0.000000E+00
 -------------------------------------------------------------------------------
 -                                                                             -
 -                      DBCSR MESSAGE PASSING PERFORMANCE                      -
 -                                                                             -
 -------------------------------------------------------------------------------
 ROUTINE             CALLS      AVE VOLUME [Bytes]
 MP_Bcast                1                     12.
 MP_Allreduce           19                     21.
 MP_Alltoall        595288                  10464.
 -------------------------------------------------------------------------------

 -------------------------------------------------------------------------------
 -                                                                             -
 -                                DBM STATISTICS                               -
 -                                                                             -
 -------------------------------------------------------------------------------
    M  x    N  x    K                                          COUNT     PERCENT
 -------------------------------------------------------------------------------

 -------------------------------------------------------------------------------
 -                                                                             -
 -                                GRID STATISTICS                              -
 -                                                                             -
 -------------------------------------------------------------------------------
 LP    KERNEL             BACKEND                              COUNT     PERCENT
 6     collocate general  CPU                                 881760      51.06%
 6     integrate general  CPU                                 845020      48.94%
 0     collocate general  CPU                                      4       0.00%
 0     integrate general  CPU                                      2       0.00%
 -------------------------------------------------------------------------------

 MEMORY| Estimated peak process memory [MiB]                                1317

 -------------------------------------------------------------------------------
 ----                             MULTIGRID INFO                            ----
 -------------------------------------------------------------------------------
 count for grid        1:          60020          cutoff [a.u.]          500.00
 count for grid        2:          51472          cutoff [a.u.]          166.67
 count for grid        3:          43868          cutoff [a.u.]           55.56
 count for grid        4:          42902          cutoff [a.u.]           18.52
 total gridlevel count  :         198262

 -------------------------------------------------------------------------------
 -                                                                             -
 -                         MESSAGE PASSING PERFORMANCE                         -
 -                                                                             -
 -------------------------------------------------------------------------------

 ROUTINE             CALLS      AVE VOLUME [Bytes]
 MP_Group                6
 MP_Bcast           215704                   1669.
 MP_Allreduce       295457                     22.
 MP_Sync                 4
 MP_Alltoall           419                1573459.
 MP_SendRecv           686                  95216.
 MP_ISendRecv          651                  93293.
 MP_Wait            148895
 MP_comm_split           4
 MP_ISend           157964                   1591.
 MP_IRecv           252032                    984.
 -------------------------------------------------------------------------------


 -------------------------------------------------------------------------------
 -                                                                             -
 -                           R E F E R E N C E S                               -
 -                                                                             -
 -------------------------------------------------------------------------------
 
 CP2K version 2025.1 (Development Version), the CP2K developers group (2025).
 CP2K is freely available from https://www.cp2k.org/ .
 
 T. D. Kuehne, M. Iannuzzi, M. Del Ben, V. V. Rybkin, P. Seewald, F. Stein, T. 
 Laino, R. Z. Khaliullin, O. Schuett, F. Schiffmann, D. Golze, J. Wilhelm, S. 
 Chulkov, M. H. Bani-Hashemian, V. Weber, U. Borstnik, M. Taillefumier, A. S. 
 Jakobovits, A. Lazzaro, H. Pabst, T. Mueller, R. Schade, M. Guidon, S. 
 Andermatt, N. Holmberg, G. K. Schenter, A. Hehn, A. Bussy, F. Belleflamme, G. 
 Tabacchi, A. Gloess, M. Lass, I. Bethune, C. J. Mundy, C. Plessl, M. Watkins, 
 J. VandeVondele, M. Krack, J. Hutter.
 J. Chem. Phys. 152, 194103 (2020).
 CP2K: An electronic structure and molecular dynamics software package - 
 Quickstep: Efficient and accurate electronic structure calculations.
 https://doi.org/10.1063/5.0007045

 O. Schuett, P. Messmer, J. Hutter, J. VandeVondele.
 Electronic Structure Calculations on Graphics Processing Units, 173-190 (2016).
 GPU-Accelerated Sparse Matrix-Matrix Multiplication for Linear Scaling Density 
 Functional Theory.
 https://doi.org/10.1002/9781118670712.ch8

 J. Hutter, M. Iannuzzi, F. Schiffmann, J. VandeVondele.
 WIREs Comput Mol Sci. 4, 15-25 (2014).
 CP2K: atomistic simulations of condensed matter systems.
 https://doi.org/10.1002/wcms.1159

 U. Borstnik, J. VandeVondele, V. Weber, J. Hutter.
 Parallel Comput. 40, 47-58 (2014).
 Sparse matrix multiplication: The distributed block-compressed sparse row 
 library.
 https://doi.org/10.1016/j.parco.2014.03.012

 J. VandeVondele, J. Hutter.
 J. Chem. Phys. 127, 114105 (2007).
 Gaussian basis sets for accurate calculations on molecular systems in gas and 
 condensed phases.
 https://doi.org/10.1063/1.2770708

 J. VandeVondele, M. Krack, F. Mohamed, M. Parrinello, T. Chassaing, J. Hutter.
 Comput. Phys. Commun. 167, 103-128 (2005).
 QUICKSTEP: Fast and accurate density functional calculations using a mixed 
 Gaussian and plane waves approach.
 https://doi.org/10.1016/j.cpc.2004.12.014

 M. Krack.
 Theor. Chem. Acc. 114, 145-152 (2005).
 Pseudopotentials for H to Kr optimized for gradient-corrected 
 exchange-correlation functionals.
 https://doi.org/10.1007/s00214-005-0655-y

 M. Frigo, S. G. Johnson.
 Proc. IEEE 93, 216-231 (2005).
 The design and implementation of FFTW3.
 https://doi.org/10.1109/JPROC.2004.840301

 C. Hartwigsen, S. Goedecker, J. Hutter.
 Phys. Rev. B 58, 3641-3662 (1998).
 Relativistic separable dual-space Gaussian pseudopotentials from H to Rn.
 https://doi.org/10.1103/PhysRevB.58.3641

 G. Lippert, J. Hutter, M. Parrinello.
 Mol. Phys. 92, 477-487 (1997).
 A hybrid Gaussian and plane wave density functional scheme.
 https://doi.org/10.1080/002689797170220

 S. Goedecker, M. Teter, J. Hutter.
 Phys. Rev. B 54, 1703-1710 (1996).
 Separable dual-space Gaussian pseudopotentials.
 https://doi.org/10.1103/PhysRevB.54.1703

 J. P. Perdew, K. Burke, M. Ernzerhof.
 Phys. Rev. Lett. 77, 3865-3868 (1996).
 Generalized gradient approximation made simple.
 https://doi.org/10.1103/PhysRevLett.77.3865


 -------------------------------------------------------------------------------
 -                                                                             -
 -                                T I M I N G                                  -
 -                                                                             -
 -------------------------------------------------------------------------------
 SUBROUTINE                       CALLS  ASD         SELF TIME        TOTAL TIME
                                MAXIMUM       AVERAGE  MAXIMUM  AVERAGE  MAXIMUM
 CP2K                                 1  1.0    0.030    0.033 1037.373 1037.373
 qs_energies                          1  2.0    0.018    0.050 1037.123 1037.145
 scf_env_do_scf                       1  3.0    0.000    0.000 1005.760 1005.760
 scf_env_do_scf_inner_loop           23  4.0    0.084    0.089 1005.760 1005.760
 do_general_diag_kp                  24  5.9    0.137    0.167  966.363  973.525
 qs_scf_new_mos_kp                   23  5.0    0.000    0.000  950.607  957.758
 mp_alltoall_i22                 101276  8.7  769.676  946.500  769.676  946.500
 dbcsr_desymmetrize_deep          56822  7.4    0.894    1.208  537.972  660.450
 rskp_transform                   12072  6.9  114.835  613.658  114.835  613.658
 dbcsr_complete_redistribute      44454  8.0    1.589    1.920  250.703  304.994
 kpoint_density_transform            23  7.0    0.107    0.127  296.966  297.906
 copy_fm_to_dbcsr                 11776  8.0    0.071    0.081  240.453  294.444
 transform_dmat                    5888  8.0   54.182  290.700   54.182  290.700
 qs_ks_update_qs_env                 23  5.0    0.000    0.000   12.547   44.493
 rebuild_ks_matrix                   23  6.0    0.000    0.000    8.791   40.737
 qs_ks_build_kohn_sham_matrix        23  7.0    0.162    0.168    8.791   40.737
 transfer_rs2pw                      98  8.0    0.001    0.001   33.007   40.609
 transfer_rs2pw_500                  26  8.9    0.028    0.031   32.982   40.582
 mp_sendrecv_dv                     686 10.0   32.971   40.573   32.971   40.573
 sum_up_and_integrate                23  8.0    0.000    0.000    7.595   39.419
 integrate_v_rspace                  23  9.0    0.148    0.797    7.594   39.418
 grid_integrate_task_list            23 10.0    7.213   38.508    7.213   38.508
 qs_rho_update_rho_low               24  5.0    0.000    0.000   33.217   33.252
 calculate_rho_elec                  24  6.0    0.021    0.078   33.217   33.252
 density_rs2pw                       24  7.0    0.001    0.001   27.023   33.205
 grid_collocate_task_list            24  7.0    6.172   32.862    6.172   32.862
 copy_dbcsr_to_fm                 32678  6.7    0.340    0.383   18.593   18.876
 cp_dbcsr_alloc_block_from_nbl    30009  5.0    1.880    9.716    2.047   10.476
 qs_energies_init_hamiltonians        1  3.0    0.000    0.000    9.383    9.383
 build_core_hamiltonian_matrix        1  4.0    0.015    0.016    1.635    7.674
 qs_env_update_s_mstruct              1  4.0    0.000    0.000    6.391    7.520
 calculate_rho_core                   1  5.0    0.001    0.002    6.050    7.476
 mp_sum_d                        196881  9.0    5.767    6.908    5.767    6.908
 write_kpoints_restart               23  5.0    0.049    0.059    6.629    6.629
 dbcsr_dot                       196283  8.0    0.996    2.110    6.037    6.604
 dbcsr_finalize                  169828  7.6    0.652    0.750    4.342    4.578
 init_scf_run                         1  3.0    0.000    0.000    3.839    4.399
 scf_env_initial_rho_setup            1  4.0    0.000    0.000    3.839    4.399
 cp_fm_start_copy_general         35920  7.3    0.668    0.921    4.188    4.270
 mp_alltoall_d11v                303828  9.2    3.673    3.945    3.673    3.945
 evaluate_core_matrix_traces         23  6.0    0.000    0.000    3.755    3.755
 calculate_ptrace_kp                 46  7.0    0.148    0.161    3.755    3.755
 dbcsr_create_new                372046  7.6    2.450    3.201    2.680    3.458
 self_consistency_check              23  5.0    0.140    0.145    3.161    3.373
 cp_cfm_geeig_canon                 773  6.9    0.007    0.007    3.247    3.273
 cp_sm_mix                        98141  6.0    0.356    0.951    2.836    3.114
 mixing_allocate                      1  3.0    0.024    0.026    0.647    3.066
 calculate_first_density_matrix       1  5.0    0.003    0.003    2.444    3.004
 calculate_atomic_block_dm            1  6.0    0.001    0.001    2.434    2.996
 cp_cfm_heevd                      1546  7.9    0.002    0.002    2.935    2.957
 cp_cfm_heevd_base                 1546  8.9    2.933    2.955    2.933    2.955
 dbcsr_merge_all                  44454 10.0    1.794    2.007    2.655    2.844
 build_core_ppnl                      1  5.0    0.540    2.733    0.540    2.733
 mp_cart_sub                      65358  8.7    2.678    2.702    2.678    2.702
 mp_max_d                         98143  7.0    2.244    2.663    2.244    2.663
 hybrid_alltoall_any              56822  8.4    0.230    0.248    2.395    2.572
 cp_fm_write_unformatted           8534  6.0    1.696    2.343    1.734    2.502
 mp_allgather_i                   71840  8.3    2.168    2.268    2.168    2.268
 dbcsr_copy                      212325  6.6    1.219    1.423    1.751    2.137
 mp_alltoall_i11v                190184  8.8    1.772    1.847    1.772    1.847
 mp_cart_create                   32685  8.7    1.631    1.707    1.631    1.707
 build_overlap_matrix_low             1  5.0    0.049    0.145    0.355    1.653
 build_kinetic_matrix_low             1  5.0    0.048    0.144    0.354    1.651
 calculate_ecore_overlap              1  4.0    0.000    0.000    1.288    1.586
 qs_env_rebuild_rho                   1  5.0    0.000    0.000    0.323    1.526
 qs_rho_rebuild                       1  6.0    0.012    0.013    0.323    1.526
 mp_sum_iv                           24  5.3    1.206    1.486    1.206    1.486
 qs_scf_ensure_work_matrices          1  3.0    0.000    0.000    1.206    1.486
 copy_fm_to_dbcsr_bc              11776  9.0    0.163    0.182    0.696    1.255
 dbcsr_iterator_start            577785  8.6    0.978    1.004    1.122    1.148
 dbcsr_set                       290575  7.1    0.251    0.265    0.495    1.132
 dbcsr_work_create               101276  8.7    0.617    0.648    1.003    1.106
 mp_bcast_iv                     143704  8.3    0.887    1.014    0.887    1.014
 dbcsr_zero                      290575  8.1    0.244    0.868    0.244    0.868
 dbcsr_reserve_blocks             41785  7.4    0.208    0.796    0.224    0.831
 copy_dbcsr_to_fm_bc              32678  7.7    0.332    0.348    0.757    0.775
 dbcsr_data_new                 1134035  9.4    0.638    0.774    0.638    0.774
 dbcsr_work_destroy_all          101276  9.7    0.488    0.498    0.756    0.770
 dbcsr_iterator_stop             577785  8.6    0.627    0.634    0.745    0.758
 tree_to_linear_d                 44454 11.0    0.665    0.744    0.665    0.744
 kpoint_set_mo_occupation            23  7.0    0.603    0.609    0.654    0.680
 dbcsr_data_release             1825464  9.8    0.626    0.676    0.626    0.676
 dbcsr_destroy                   175764  7.2    0.282    0.303    0.501    0.542
 fft_wrap_pw1pw2                    419 10.0    0.003    0.003    0.429    0.466
 fft_wrap_pw1pw2_500                278 11.3    0.017    0.018    0.397    0.434
 fft3d_ps                           419 12.0    0.090    0.092    0.377    0.414
 cp_fm_finish_copy_general        14868  7.8    0.331    0.356    0.354    0.395
 dbcsr_copy_into_existing         16043  8.9    0.122    0.270    0.212    0.365
 kpoint_density_matrices             23  7.0    0.013    0.014    0.275    0.327
 quick_finalize                   56822  9.4    0.148    0.185    0.245    0.326
 parallel_gemm_fm                  2944  8.0    0.003    0.003    0.255    0.307
 mp_bcast_im                      71840  8.3    0.268    0.306    0.268    0.306
 parallel_gemm_fm_gemm             2944  9.0    0.003    0.003    0.252    0.304
 cp_fm_gemm                        2944 10.0    0.250    0.301    0.250    0.301
 mp_alltoall_z22v                   419 14.0    0.259    0.297    0.259    0.297
 cp_cfm_gemm                       2319  7.9    0.285    0.290    0.285    0.290
 potential_pw2rs                     23 10.0    0.001    0.001    0.233    0.271
 mp_waitall_1                    148895  8.3    0.123    0.248    0.123    0.248
 mp_comm_free                     98077  8.7    0.227    0.243    0.227    0.243
 yz_to_x                            189 12.8    0.008    0.009    0.193    0.226
 qs_vxc_create                       23  8.0    0.000    0.000    0.206    0.206
 xc_vxc_pw_create                    23  9.0    0.007    0.008    0.205    0.206
 dbcsr_iterator_seek             577785  9.6    0.144    0.183    0.144    0.183
 dbcsr_make_index_exist          372046  8.6    0.156    0.174    0.156    0.174
 mp_recv_dv                       25602  7.0    0.020    0.159    0.020    0.159
 gspace_mixing                       22  5.0    0.006    0.006    0.141    0.141
 dbcsr_sort_indices              143061 10.5    0.078    0.140    0.078    0.140
 xc_pw_derive                       138 11.0    0.000    0.000    0.135    0.140
 kpoint_init_cell_index               2  3.5    0.093    0.119    0.126    0.129
 broyden_mixing                      22  6.0    0.107    0.110    0.112    0.113
 mp_isend_dv                      36512  8.2    0.099    0.108    0.099    0.108
 xc_rho_set_and_dset_create          23 10.0    0.006    0.007    0.105    0.107
 dbcsr_reserve_all_blocks         11776 10.0    0.018    0.023    0.087    0.107
 -------------------------------------------------------------------------------

 The number of warnings for this run is : 1
 
 -------------------------------------------------------------------------------
  **** **** ******  **  PROGRAM ENDED AT                 2025-08-04 23:10:07.367
 ***** ** ***  *** **   PROGRAM RAN ON                              i06r01c06s06
 **    ****   ******    PROGRAM RAN BY                                   di38fab
 ***** **    ** ** **   PROGRAM PROCESS ID                                639249
  **** **  *******  **  PROGRAM STOPPED IN /hppfs/scratch/04/di38fab/09_GTH/Delt
                                           a_Set/Zn/aug-DZVP-MOLOPT-GTH-tier-1/8
                                           x8x8
