 DBCSR| CPU Multiplication driver                                           BLAS (U)
 DBCSR| Multrec recursion limit                                              512 (U)
 DBCSR| Multiplication stack size                                           1000 (D)
 DBCSR| Maximum elements for images                                    UNLIMITED (U)
 DBCSR| Multiplicative factor virtual images                                   1 (U)
 DBCSR| Use multiplication densification                                       T (D)
 DBCSR| Multiplication size stacks                                             3 (U)
 DBCSR| Use memory pool for CPU allocation                                     F (U)
 DBCSR| Number of 3D layers                                               SINGLE (U)
 DBCSR| Use MPI memory allocation                                              F (U)
 DBCSR| Use RMA algorithm                                                      F (U)
 DBCSR| Use Communication thread                                               T (U)
 DBCSR| Communication thread load                                             45 (D)
 DBCSR| MPI: My process id                                                     0
 DBCSR| MPI: Number of processes                                               8
 DBCSR| OMP: Current number of threads                                        12
 DBCSR| OMP: Max number of threads                                            12
 DBCSR| Split modifier for TAS multiplication algorithm                  1.0E+00 (U)


  **** **** ******  **  PROGRAM STARTED AT               2025-08-03 17:20:12.954
 ***** ** ***  *** **   PROGRAM STARTED ON                          i06r11c01s08
 **    ****   ******    PROGRAM STARTED BY                               di38fab
 ***** **    ** ** **   PROGRAM PROCESS ID                               2565570
  **** **  *******  **  PROGRAM STARTED IN /hppfs/scratch/04/di38fab/09_GTH/Delt
                                           a_Set/Ca/DZVP-MOLOPT-PBE-GTH/8x8x8

 CP2K| version string:                 CP2K version 2025.1 (Development Version)
 CP2K| source code revision number:                                  git:3130539
 CP2K| cp2kflags: omp libint fftw3 libxc parallel scalapack max_contr=4         
 CP2K| is freely available from                            https://www.cp2k.org/
 CP2K| Program compiled at                         Tue Jun  3 16:14:32 CEST 2025
 CP2K| Program compiled on                                               login01
 CP2K| Program compiled for                                        Supermuc-foss
 CP2K| Data directory path                  /hppfs/work/pn36zo/di38fab/cp2k/data
 CP2K| Input file name                                                    GW.inp

 GLOBAL| Force Environment number                                              1
 GLOBAL| Basis set file name            /hppfs/scratch/04/di38fab/09_GTH/BASIS_A
 GLOBAL| Potential file name            /hppfs/work/pn36zo/di38fab/cp2k/data/GTH
 GLOBAL| MM Potential file name                                     MM_POTENTIAL
 GLOBAL| Coordinate file name                                             Ca.cif
 GLOBAL| Method name                                                        CP2K
 GLOBAL| Project name                                                       WSe2
 GLOBAL| Run type                                                         ENERGY
 GLOBAL| FFT library                                                       FFTW3
 GLOBAL| Diagonalization library                                       ScaLAPACK
 GLOBAL| Cholesky decomposition library                                ScaLAPACK
 GLOBAL| DGEMM library                                                      BLAS
 GLOBAL| Orthonormality check for eigenvectors                          DISABLED
 GLOBAL| Matrix multiplication library                                 ScaLAPACK
 GLOBAL| All-to-all communication in single precision                          F
 GLOBAL| FFTs using library dependent lengths                                  F
 GLOBAL| Grid backend                                                       AUTO
 GLOBAL| Global print level                                               MEDIUM
 GLOBAL| MPI I/O enabled                                                       T
 GLOBAL| Total number of message passing processes                             8
 GLOBAL| Number of threads for this process                                   12
 GLOBAL| This output is from process                                           0
 GLOBAL| OpenMP stack size per thread (OMP_STACKSIZE)                    default
 GLOBAL| CPU model name             Intel(R) Xeon(R) Platinum 8174 CPU @ 3.10GHz

 MEMORY| system memory details [Kb]
 MEMORY|                        rank 0           min           max       average
 MEMORY| MemTotal             98436736      98436660      98436736      98436698
 MEMORY| MemFree              84284336      84201356      84284336      84242846
 MEMORY| Buffers                     0             0             0             0
 MEMORY| Cached                2353680       2348148       2353680       2350914
 MEMORY| Slab                  1251036       1251036       1276880       1263958
 MEMORY| SReclaimable           275676        274824        275676        275250
 MEMORY| MemLikelyFree        86913692      86824328      86913692      86869010


 *** Fundamental physical constants (SI units) ***

 *** Literature: B. J. Mohr and B. N. Taylor,
 ***             CODATA recommended values of the fundamental physical
 ***             constants: 2006, Web Version 5.1
 ***             http://physics.nist.gov/constants

 Speed of light in vacuum [m/s]                             2.99792458000000E+08
 Magnetic constant or permeability of vacuum [N/A**2]       1.25663706143592E-06
 Electric constant or permittivity of vacuum [F/m]          8.85418781762039E-12
 Planck constant (h) [J*s]                                  6.62606896000000E-34
 Planck constant (h-bar) [J*s]                              1.05457162825177E-34
 Elementary charge [C]                                      1.60217648700000E-19
 Electron mass [kg]                                         9.10938215000000E-31
 Electron g factor [ ]                                     -2.00231930436220E+00
 Proton mass [kg]                                           1.67262163700000E-27
 Fine-structure constant                                    7.29735253760000E-03
 Rydberg constant [1/m]                                     1.09737315685270E+07
 Avogadro constant [1/mol]                                  6.02214179000000E+23
 Boltzmann constant [J/K]                                   1.38065040000000E-23
 Atomic mass unit [kg]                                      1.66053878200000E-27
 Bohr radius [m]                                            5.29177208590000E-11

 *** Conversion factors ***

 [u] -> [a.u.]                                              1.82288848426455E+03
 [Angstrom] -> [Bohr] = [a.u.]                              1.88972613288564E+00
 [a.u.] = [Bohr] -> [Angstrom]                              5.29177208590000E-01
 [a.u.] -> [s]                                              2.41888432650478E-17
 [a.u.] -> [fs]                                             2.41888432650478E-02
 [a.u.] -> [J]                                              4.35974393937059E-18
 [a.u.] -> [N]                                              8.23872205491840E-08
 [a.u.] -> [K]                                              3.15774647902944E+05
 [a.u.] -> [kJ/mol]                                         2.62549961709828E+03
 [a.u.] -> [kcal/mol]                                       6.27509468713739E+02
 [a.u.] -> [Pa]                                             2.94210107994716E+13
 [a.u.] -> [bar]                                            2.94210107994716E+08
 [a.u.] -> [atm]                                            2.90362800883016E+08
 [a.u.] -> [eV]                                             2.72113838565563E+01
 [a.u.] -> [Hz]                                             6.57968392072181E+15
 [a.u.] -> [1/cm] (wave numbers)                            2.19474631370540E+05
 [a.u./Bohr**2] -> [1/cm]                                   5.14048714338585E+03
 

 CELL_TOP| Volume [angstrom^3]:                                       168.660489
 CELL_TOP| Vector a [angstrom     5.525     0.000     0.000   |a| =     5.525070
 CELL_TOP| Vector b [angstrom     0.000     5.525     0.000   |b| =     5.525070
 CELL_TOP| Vector c [angstrom     0.000     0.000     5.525   |c| =     5.525070
 CELL_TOP| Angle (b,c), alpha [degree]:                                90.000000
 CELL_TOP| Angle (a,c), beta  [degree]:                                90.000000
 CELL_TOP| Angle (a,b), gamma [degree]:                                90.000000
 CELL_TOP| Numerically orthorhombic:                                         YES
 CELL_TOP| Periodicity                                                       XYZ

 CELL_CIF| Volume [angstrom^3]:                                       168.660489
 CELL_CIF| Vector a [angstrom     5.525     0.000     0.000   |a| =     5.525070
 CELL_CIF| Vector b [angstrom     0.000     5.525     0.000   |b| =     5.525070
 CELL_CIF| Vector c [angstrom     0.000     0.000     5.525   |c| =     5.525070
 CELL_CIF| Angle (b,c), alpha [degree]:                                90.000000
 CELL_CIF| Angle (a,c), beta  [degree]:                                90.000000
 CELL_CIF| Angle (a,b), gamma [degree]:                                90.000000
 CELL_CIF| Numerically orthorhombic:                                         YES
 CELL_CIF| Periodicity                                                       XYZ

 GENERATE|  Preliminary Number of Bonds generated:                             0
 GENERATE|  Achieved consistency in connectivity generation.

 CELL| Volume [angstrom^3]:                                           168.660489
 CELL| Vector a [angstrom]:       5.525     0.000     0.000   |a| =     5.525070
 CELL| Vector b [angstrom]:       0.000     5.525     0.000   |b| =     5.525070
 CELL| Vector c [angstrom]:       0.000     0.000     5.525   |c| =     5.525070
 CELL| Angle (b,c), alpha [degree]:                                    90.000000
 CELL| Angle (a,c), beta  [degree]:                                    90.000000
 CELL| Angle (a,b), gamma [degree]:                                    90.000000
 CELL| Numerically orthorhombic:                                             YES
 CELL| Periodicity                                                           XYZ

 CELL_REF| Volume [angstrom^3]:                                       168.660489
 CELL_REF| Vector a [angstrom     5.525     0.000     0.000   |a| =     5.525070
 CELL_REF| Vector b [angstrom     0.000     5.525     0.000   |b| =     5.525070
 CELL_REF| Vector c [angstrom     0.000     0.000     5.525   |c| =     5.525070
 CELL_REF| Angle (b,c), alpha [degree]:                                90.000000
 CELL_REF| Angle (a,c), beta  [degree]:                                90.000000
 CELL_REF| Angle (a,b), gamma [degree]:                                90.000000
 CELL_REF| Numerically orthorhombic:                                         YES
 CELL_REF| Periodicity                                                       XYZ

 *** WARNING in cryssym.F:180 :: Symmetry library SPGLIB not available ***


 *******************************************************************************
                                    Kpoints
 *******************************************************************************
 BRILLOUIN| K-point scheme                                        Monkhorst-Pack
 BRILLOUIN| K-Point grid                                             8    8    8
 BRILLOUIN| Accuracy in Symmetry determination                      0.100000E-05
 BRILLOUIN| K-Point point group symmetrization                               OFF
 BRILLOUIN| Wavefunction type                                            COMPLEX
 BRILLOUIN| List of Kpoints [2 Pi/Bohr]                                      256
 BRILLOUIN| Number           Weight            X              Y              Z
 BRILLOUIN|     1           0.00391       -0.43750       -0.43750       -0.43750
 BRILLOUIN|     2           0.00391       -0.43750       -0.43750       -0.31250
 BRILLOUIN|     3           0.00391       -0.43750       -0.43750       -0.18750
 BRILLOUIN|     4           0.00391       -0.43750       -0.43750       -0.06250
 BRILLOUIN|     5           0.00391       -0.43750       -0.43750        0.06250
 BRILLOUIN|     6           0.00391       -0.43750       -0.43750        0.18750
 BRILLOUIN|     7           0.00391       -0.43750       -0.43750        0.31250
 BRILLOUIN|     8           0.00391       -0.43750       -0.43750        0.43750
 BRILLOUIN|     9           0.00391       -0.43750       -0.31250       -0.43750
 BRILLOUIN|    10           0.00391       -0.43750       -0.31250       -0.31250
 BRILLOUIN|    11           0.00391       -0.43750       -0.31250       -0.18750
 BRILLOUIN|    12           0.00391       -0.43750       -0.31250       -0.06250
 BRILLOUIN|    13           0.00391       -0.43750       -0.31250        0.06250
 BRILLOUIN|    14           0.00391       -0.43750       -0.31250        0.18750
 BRILLOUIN|    15           0.00391       -0.43750       -0.31250        0.31250
 BRILLOUIN|    16           0.00391       -0.43750       -0.31250        0.43750
 BRILLOUIN|    17           0.00391       -0.43750       -0.18750       -0.43750
 BRILLOUIN|    18           0.00391       -0.43750       -0.18750       -0.31250
 BRILLOUIN|    19           0.00391       -0.43750       -0.18750       -0.18750
 BRILLOUIN|    20           0.00391       -0.43750       -0.18750       -0.06250
 BRILLOUIN|    21           0.00391       -0.43750       -0.18750        0.06250
 BRILLOUIN|    22           0.00391       -0.43750       -0.18750        0.18750
 BRILLOUIN|    23           0.00391       -0.43750       -0.18750        0.31250
 BRILLOUIN|    24           0.00391       -0.43750       -0.18750        0.43750
 BRILLOUIN|    25           0.00391       -0.43750       -0.06250       -0.43750
 BRILLOUIN|    26           0.00391       -0.43750       -0.06250       -0.31250
 BRILLOUIN|    27           0.00391       -0.43750       -0.06250       -0.18750
 BRILLOUIN|    28           0.00391       -0.43750       -0.06250       -0.06250
 BRILLOUIN|    29           0.00391       -0.43750       -0.06250        0.06250
 BRILLOUIN|    30           0.00391       -0.43750       -0.06250        0.18750
 BRILLOUIN|    31           0.00391       -0.43750       -0.06250        0.31250
 BRILLOUIN|    32           0.00391       -0.43750       -0.06250        0.43750
 BRILLOUIN|    33           0.00391       -0.43750        0.06250       -0.43750
 BRILLOUIN|    34           0.00391       -0.43750        0.06250       -0.31250
 BRILLOUIN|    35           0.00391       -0.43750        0.06250       -0.18750
 BRILLOUIN|    36           0.00391       -0.43750        0.06250       -0.06250
 BRILLOUIN|    37           0.00391       -0.43750        0.06250        0.06250
 BRILLOUIN|    38           0.00391       -0.43750        0.06250        0.18750
 BRILLOUIN|    39           0.00391       -0.43750        0.06250        0.31250
 BRILLOUIN|    40           0.00391       -0.43750        0.06250        0.43750
 BRILLOUIN|    41           0.00391       -0.43750        0.18750       -0.43750
 BRILLOUIN|    42           0.00391       -0.43750        0.18750       -0.31250
 BRILLOUIN|    43           0.00391       -0.43750        0.18750       -0.18750
 BRILLOUIN|    44           0.00391       -0.43750        0.18750       -0.06250
 BRILLOUIN|    45           0.00391       -0.43750        0.18750        0.06250
 BRILLOUIN|    46           0.00391       -0.43750        0.18750        0.18750
 BRILLOUIN|    47           0.00391       -0.43750        0.18750        0.31250
 BRILLOUIN|    48           0.00391       -0.43750        0.18750        0.43750
 BRILLOUIN|    49           0.00391       -0.43750        0.31250       -0.43750
 BRILLOUIN|    50           0.00391       -0.43750        0.31250       -0.31250
 BRILLOUIN|    51           0.00391       -0.43750        0.31250       -0.18750
 BRILLOUIN|    52           0.00391       -0.43750        0.31250       -0.06250
 BRILLOUIN|    53           0.00391       -0.43750        0.31250        0.06250
 BRILLOUIN|    54           0.00391       -0.43750        0.31250        0.18750
 BRILLOUIN|    55           0.00391       -0.43750        0.31250        0.31250
 BRILLOUIN|    56           0.00391       -0.43750        0.31250        0.43750
 BRILLOUIN|    57           0.00391       -0.43750        0.43750       -0.43750
 BRILLOUIN|    58           0.00391       -0.43750        0.43750       -0.31250
 BRILLOUIN|    59           0.00391       -0.43750        0.43750       -0.18750
 BRILLOUIN|    60           0.00391       -0.43750        0.43750       -0.06250
 BRILLOUIN|    61           0.00391       -0.43750        0.43750        0.06250
 BRILLOUIN|    62           0.00391       -0.43750        0.43750        0.18750
 BRILLOUIN|    63           0.00391       -0.43750        0.43750        0.31250
 BRILLOUIN|    64           0.00391       -0.43750        0.43750        0.43750
 BRILLOUIN|    65           0.00391       -0.31250       -0.43750       -0.43750
 BRILLOUIN|    66           0.00391       -0.31250       -0.43750       -0.31250
 BRILLOUIN|    67           0.00391       -0.31250       -0.43750       -0.18750
 BRILLOUIN|    68           0.00391       -0.31250       -0.43750       -0.06250
 BRILLOUIN|    69           0.00391       -0.31250       -0.43750        0.06250
 BRILLOUIN|    70           0.00391       -0.31250       -0.43750        0.18750
 BRILLOUIN|    71           0.00391       -0.31250       -0.43750        0.31250
 BRILLOUIN|    72           0.00391       -0.31250       -0.43750        0.43750
 BRILLOUIN|    73           0.00391       -0.31250       -0.31250       -0.43750
 BRILLOUIN|    74           0.00391       -0.31250       -0.31250       -0.31250
 BRILLOUIN|    75           0.00391       -0.31250       -0.31250       -0.18750
 BRILLOUIN|    76           0.00391       -0.31250       -0.31250       -0.06250
 BRILLOUIN|    77           0.00391       -0.31250       -0.31250        0.06250
 BRILLOUIN|    78           0.00391       -0.31250       -0.31250        0.18750
 BRILLOUIN|    79           0.00391       -0.31250       -0.31250        0.31250
 BRILLOUIN|    80           0.00391       -0.31250       -0.31250        0.43750
 BRILLOUIN|    81           0.00391       -0.31250       -0.18750       -0.43750
 BRILLOUIN|    82           0.00391       -0.31250       -0.18750       -0.31250
 BRILLOUIN|    83           0.00391       -0.31250       -0.18750       -0.18750
 BRILLOUIN|    84           0.00391       -0.31250       -0.18750       -0.06250
 BRILLOUIN|    85           0.00391       -0.31250       -0.18750        0.06250
 BRILLOUIN|    86           0.00391       -0.31250       -0.18750        0.18750
 BRILLOUIN|    87           0.00391       -0.31250       -0.18750        0.31250
 BRILLOUIN|    88           0.00391       -0.31250       -0.18750        0.43750
 BRILLOUIN|    89           0.00391       -0.31250       -0.06250       -0.43750
 BRILLOUIN|    90           0.00391       -0.31250       -0.06250       -0.31250
 BRILLOUIN|    91           0.00391       -0.31250       -0.06250       -0.18750
 BRILLOUIN|    92           0.00391       -0.31250       -0.06250       -0.06250
 BRILLOUIN|    93           0.00391       -0.31250       -0.06250        0.06250
 BRILLOUIN|    94           0.00391       -0.31250       -0.06250        0.18750
 BRILLOUIN|    95           0.00391       -0.31250       -0.06250        0.31250
 BRILLOUIN|    96           0.00391       -0.31250       -0.06250        0.43750
 BRILLOUIN|    97           0.00391       -0.31250        0.06250       -0.43750
 BRILLOUIN|    98           0.00391       -0.31250        0.06250       -0.31250
 BRILLOUIN|    99           0.00391       -0.31250        0.06250       -0.18750
 BRILLOUIN|   100           0.00391       -0.31250        0.06250       -0.06250
 BRILLOUIN|   101           0.00391       -0.31250        0.06250        0.06250
 BRILLOUIN|   102           0.00391       -0.31250        0.06250        0.18750
 BRILLOUIN|   103           0.00391       -0.31250        0.06250        0.31250
 BRILLOUIN|   104           0.00391       -0.31250        0.06250        0.43750
 BRILLOUIN|   105           0.00391       -0.31250        0.18750       -0.43750
 BRILLOUIN|   106           0.00391       -0.31250        0.18750       -0.31250
 BRILLOUIN|   107           0.00391       -0.31250        0.18750       -0.18750
 BRILLOUIN|   108           0.00391       -0.31250        0.18750       -0.06250
 BRILLOUIN|   109           0.00391       -0.31250        0.18750        0.06250
 BRILLOUIN|   110           0.00391       -0.31250        0.18750        0.18750
 BRILLOUIN|   111           0.00391       -0.31250        0.18750        0.31250
 BRILLOUIN|   112           0.00391       -0.31250        0.18750        0.43750
 BRILLOUIN|   113           0.00391       -0.31250        0.31250       -0.43750
 BRILLOUIN|   114           0.00391       -0.31250        0.31250       -0.31250
 BRILLOUIN|   115           0.00391       -0.31250        0.31250       -0.18750
 BRILLOUIN|   116           0.00391       -0.31250        0.31250       -0.06250
 BRILLOUIN|   117           0.00391       -0.31250        0.31250        0.06250
 BRILLOUIN|   118           0.00391       -0.31250        0.31250        0.18750
 BRILLOUIN|   119           0.00391       -0.31250        0.31250        0.31250
 BRILLOUIN|   120           0.00391       -0.31250        0.31250        0.43750
 BRILLOUIN|   121           0.00391       -0.31250        0.43750       -0.43750
 BRILLOUIN|   122           0.00391       -0.31250        0.43750       -0.31250
 BRILLOUIN|   123           0.00391       -0.31250        0.43750       -0.18750
 BRILLOUIN|   124           0.00391       -0.31250        0.43750       -0.06250
 BRILLOUIN|   125           0.00391       -0.31250        0.43750        0.06250
 BRILLOUIN|   126           0.00391       -0.31250        0.43750        0.18750
 BRILLOUIN|   127           0.00391       -0.31250        0.43750        0.31250
 BRILLOUIN|   128           0.00391       -0.31250        0.43750        0.43750
 BRILLOUIN|   129           0.00391       -0.18750       -0.43750       -0.43750
 BRILLOUIN|   130           0.00391       -0.18750       -0.43750       -0.31250
 BRILLOUIN|   131           0.00391       -0.18750       -0.43750       -0.18750
 BRILLOUIN|   132           0.00391       -0.18750       -0.43750       -0.06250
 BRILLOUIN|   133           0.00391       -0.18750       -0.43750        0.06250
 BRILLOUIN|   134           0.00391       -0.18750       -0.43750        0.18750
 BRILLOUIN|   135           0.00391       -0.18750       -0.43750        0.31250
 BRILLOUIN|   136           0.00391       -0.18750       -0.43750        0.43750
 BRILLOUIN|   137           0.00391       -0.18750       -0.31250       -0.43750
 BRILLOUIN|   138           0.00391       -0.18750       -0.31250       -0.31250
 BRILLOUIN|   139           0.00391       -0.18750       -0.31250       -0.18750
 BRILLOUIN|   140           0.00391       -0.18750       -0.31250       -0.06250
 BRILLOUIN|   141           0.00391       -0.18750       -0.31250        0.06250
 BRILLOUIN|   142           0.00391       -0.18750       -0.31250        0.18750
 BRILLOUIN|   143           0.00391       -0.18750       -0.31250        0.31250
 BRILLOUIN|   144           0.00391       -0.18750       -0.31250        0.43750
 BRILLOUIN|   145           0.00391       -0.18750       -0.18750       -0.43750
 BRILLOUIN|   146           0.00391       -0.18750       -0.18750       -0.31250
 BRILLOUIN|   147           0.00391       -0.18750       -0.18750       -0.18750
 BRILLOUIN|   148           0.00391       -0.18750       -0.18750       -0.06250
 BRILLOUIN|   149           0.00391       -0.18750       -0.18750        0.06250
 BRILLOUIN|   150           0.00391       -0.18750       -0.18750        0.18750
 BRILLOUIN|   151           0.00391       -0.18750       -0.18750        0.31250
 BRILLOUIN|   152           0.00391       -0.18750       -0.18750        0.43750
 BRILLOUIN|   153           0.00391       -0.18750       -0.06250       -0.43750
 BRILLOUIN|   154           0.00391       -0.18750       -0.06250       -0.31250
 BRILLOUIN|   155           0.00391       -0.18750       -0.06250       -0.18750
 BRILLOUIN|   156           0.00391       -0.18750       -0.06250       -0.06250
 BRILLOUIN|   157           0.00391       -0.18750       -0.06250        0.06250
 BRILLOUIN|   158           0.00391       -0.18750       -0.06250        0.18750
 BRILLOUIN|   159           0.00391       -0.18750       -0.06250        0.31250
 BRILLOUIN|   160           0.00391       -0.18750       -0.06250        0.43750
 BRILLOUIN|   161           0.00391       -0.18750        0.06250       -0.43750
 BRILLOUIN|   162           0.00391       -0.18750        0.06250       -0.31250
 BRILLOUIN|   163           0.00391       -0.18750        0.06250       -0.18750
 BRILLOUIN|   164           0.00391       -0.18750        0.06250       -0.06250
 BRILLOUIN|   165           0.00391       -0.18750        0.06250        0.06250
 BRILLOUIN|   166           0.00391       -0.18750        0.06250        0.18750
 BRILLOUIN|   167           0.00391       -0.18750        0.06250        0.31250
 BRILLOUIN|   168           0.00391       -0.18750        0.06250        0.43750
 BRILLOUIN|   169           0.00391       -0.18750        0.18750       -0.43750
 BRILLOUIN|   170           0.00391       -0.18750        0.18750       -0.31250
 BRILLOUIN|   171           0.00391       -0.18750        0.18750       -0.18750
 BRILLOUIN|   172           0.00391       -0.18750        0.18750       -0.06250
 BRILLOUIN|   173           0.00391       -0.18750        0.18750        0.06250
 BRILLOUIN|   174           0.00391       -0.18750        0.18750        0.18750
 BRILLOUIN|   175           0.00391       -0.18750        0.18750        0.31250
 BRILLOUIN|   176           0.00391       -0.18750        0.18750        0.43750
 BRILLOUIN|   177           0.00391       -0.18750        0.31250       -0.43750
 BRILLOUIN|   178           0.00391       -0.18750        0.31250       -0.31250
 BRILLOUIN|   179           0.00391       -0.18750        0.31250       -0.18750
 BRILLOUIN|   180           0.00391       -0.18750        0.31250       -0.06250
 BRILLOUIN|   181           0.00391       -0.18750        0.31250        0.06250
 BRILLOUIN|   182           0.00391       -0.18750        0.31250        0.18750
 BRILLOUIN|   183           0.00391       -0.18750        0.31250        0.31250
 BRILLOUIN|   184           0.00391       -0.18750        0.31250        0.43750
 BRILLOUIN|   185           0.00391       -0.18750        0.43750       -0.43750
 BRILLOUIN|   186           0.00391       -0.18750        0.43750       -0.31250
 BRILLOUIN|   187           0.00391       -0.18750        0.43750       -0.18750
 BRILLOUIN|   188           0.00391       -0.18750        0.43750       -0.06250
 BRILLOUIN|   189           0.00391       -0.18750        0.43750        0.06250
 BRILLOUIN|   190           0.00391       -0.18750        0.43750        0.18750
 BRILLOUIN|   191           0.00391       -0.18750        0.43750        0.31250
 BRILLOUIN|   192           0.00391       -0.18750        0.43750        0.43750
 BRILLOUIN|   193           0.00391       -0.06250       -0.43750       -0.43750
 BRILLOUIN|   194           0.00391       -0.06250       -0.43750       -0.31250
 BRILLOUIN|   195           0.00391       -0.06250       -0.43750       -0.18750
 BRILLOUIN|   196           0.00391       -0.06250       -0.43750       -0.06250
 BRILLOUIN|   197           0.00391       -0.06250       -0.43750        0.06250
 BRILLOUIN|   198           0.00391       -0.06250       -0.43750        0.18750
 BRILLOUIN|   199           0.00391       -0.06250       -0.43750        0.31250
 BRILLOUIN|   200           0.00391       -0.06250       -0.43750        0.43750
 BRILLOUIN|   201           0.00391       -0.06250       -0.31250       -0.43750
 BRILLOUIN|   202           0.00391       -0.06250       -0.31250       -0.31250
 BRILLOUIN|   203           0.00391       -0.06250       -0.31250       -0.18750
 BRILLOUIN|   204           0.00391       -0.06250       -0.31250       -0.06250
 BRILLOUIN|   205           0.00391       -0.06250       -0.31250        0.06250
 BRILLOUIN|   206           0.00391       -0.06250       -0.31250        0.18750
 BRILLOUIN|   207           0.00391       -0.06250       -0.31250        0.31250
 BRILLOUIN|   208           0.00391       -0.06250       -0.31250        0.43750
 BRILLOUIN|   209           0.00391       -0.06250       -0.18750       -0.43750
 BRILLOUIN|   210           0.00391       -0.06250       -0.18750       -0.31250
 BRILLOUIN|   211           0.00391       -0.06250       -0.18750       -0.18750
 BRILLOUIN|   212           0.00391       -0.06250       -0.18750       -0.06250
 BRILLOUIN|   213           0.00391       -0.06250       -0.18750        0.06250
 BRILLOUIN|   214           0.00391       -0.06250       -0.18750        0.18750
 BRILLOUIN|   215           0.00391       -0.06250       -0.18750        0.31250
 BRILLOUIN|   216           0.00391       -0.06250       -0.18750        0.43750
 BRILLOUIN|   217           0.00391       -0.06250       -0.06250       -0.43750
 BRILLOUIN|   218           0.00391       -0.06250       -0.06250       -0.31250
 BRILLOUIN|   219           0.00391       -0.06250       -0.06250       -0.18750
 BRILLOUIN|   220           0.00391       -0.06250       -0.06250       -0.06250
 BRILLOUIN|   221           0.00391       -0.06250       -0.06250        0.06250
 BRILLOUIN|   222           0.00391       -0.06250       -0.06250        0.18750
 BRILLOUIN|   223           0.00391       -0.06250       -0.06250        0.31250
 BRILLOUIN|   224           0.00391       -0.06250       -0.06250        0.43750
 BRILLOUIN|   225           0.00391       -0.06250        0.06250       -0.43750
 BRILLOUIN|   226           0.00391       -0.06250        0.06250       -0.31250
 BRILLOUIN|   227           0.00391       -0.06250        0.06250       -0.18750
 BRILLOUIN|   228           0.00391       -0.06250        0.06250       -0.06250
 BRILLOUIN|   229           0.00391       -0.06250        0.06250        0.06250
 BRILLOUIN|   230           0.00391       -0.06250        0.06250        0.18750
 BRILLOUIN|   231           0.00391       -0.06250        0.06250        0.31250
 BRILLOUIN|   232           0.00391       -0.06250        0.06250        0.43750
 BRILLOUIN|   233           0.00391       -0.06250        0.18750       -0.43750
 BRILLOUIN|   234           0.00391       -0.06250        0.18750       -0.31250
 BRILLOUIN|   235           0.00391       -0.06250        0.18750       -0.18750
 BRILLOUIN|   236           0.00391       -0.06250        0.18750       -0.06250
 BRILLOUIN|   237           0.00391       -0.06250        0.18750        0.06250
 BRILLOUIN|   238           0.00391       -0.06250        0.18750        0.18750
 BRILLOUIN|   239           0.00391       -0.06250        0.18750        0.31250
 BRILLOUIN|   240           0.00391       -0.06250        0.18750        0.43750
 BRILLOUIN|   241           0.00391       -0.06250        0.31250       -0.43750
 BRILLOUIN|   242           0.00391       -0.06250        0.31250       -0.31250
 BRILLOUIN|   243           0.00391       -0.06250        0.31250       -0.18750
 BRILLOUIN|   244           0.00391       -0.06250        0.31250       -0.06250
 BRILLOUIN|   245           0.00391       -0.06250        0.31250        0.06250
 BRILLOUIN|   246           0.00391       -0.06250        0.31250        0.18750
 BRILLOUIN|   247           0.00391       -0.06250        0.31250        0.31250
 BRILLOUIN|   248           0.00391       -0.06250        0.31250        0.43750
 BRILLOUIN|   249           0.00391       -0.06250        0.43750       -0.43750
 BRILLOUIN|   250           0.00391       -0.06250        0.43750       -0.31250
 BRILLOUIN|   251           0.00391       -0.06250        0.43750       -0.18750
 BRILLOUIN|   252           0.00391       -0.06250        0.43750       -0.06250
 BRILLOUIN|   253           0.00391       -0.06250        0.43750        0.06250
 BRILLOUIN|   254           0.00391       -0.06250        0.43750        0.18750
 BRILLOUIN|   255           0.00391       -0.06250        0.43750        0.31250
 BRILLOUIN|   256           0.00391       -0.06250        0.43750        0.43750
 *******************************************************************************

 *******************************************************************************
 *******************************************************************************
 **                                                                           **
 **     #####                         ##              ##                      **
 **    ##   ##            ##          ##              ##                      **
 **   ##     ##                       ##            ######                    **
 **   ##     ##  ##   ##  ##   #####  ##  ##   ####   ##    #####    #####    **
 **   ##     ##  ##   ##  ##  ##      ## ##   ##      ##   ##   ##  ##   ##   **
 **   ##  ## ##  ##   ##  ##  ##      ####     ###    ##   ######   ######    **
 **    ##  ###   ##   ##  ##  ##      ## ##      ##   ##   ##       ##        **
 **     #######   #####   ##   #####  ##  ##  ####    ##    #####   ##        **
 **           ##                                                    ##        **
 **                                                                           **
 **                                                ... make the atoms dance   **
 **                                                                           **
 **            Copyright (C) by CP2K developers group (2000-2025)             **
 **                      J. Chem. Phys. 152, 194103 (2020)                    **
 **                                                                           **
 *******************************************************************************

 DFT| Spin restricted Kohn-Sham (RKS) calculation                            RKS
 DFT| Multiplicity                                                             1
 DFT| Number of spin states                                                    1
 DFT| Charge                                                                   0
 DFT| Self-interaction correction (SIC)                                       NO
 DFT| Cutoffs: density                                              1.000000E-10
 DFT|          gradient                                             1.000000E-10
 DFT|          tau                                                  1.000000E-10
 DFT|          cutoff_smoothing_range                               0.000000E+00
 DFT| XC density smoothing                                                  NONE
 DFT| XC derivatives                                                          PW

 FUNCTIONAL| PBE:
 FUNCTIONAL| J.P.Perdew, K.Burke, M.Ernzerhof, Phys. Rev. Letter, vol. 77, n 18,
 FUNCTIONAL|  pp. 3865-3868, (1996) {spin unpolarized}                          


 QS| Method:                                                                 GPW
 QS| Density plane wave grid type                        NON-SPHERICAL FULLSPACE
 QS| Number of grid levels:                                                    4
 QS| Density cutoff [a.u.]:                                                500.0
 QS| Multi grid cutoff [a.u.]: 1) grid level                               500.0
 QS|                           2) grid level                               166.7
 QS|                           3) grid level                                55.6
 QS|                           4) grid level                                18.5
 QS| Grid level progression factor:                                          3.0
 QS| Relative density cutoff [a.u.]:                                        50.0
 QS| Interaction thresholds: eps_pgf_orb:                                1.0E-16
 QS|                         eps_filter_matrix:                          0.0E+00
 QS|                         eps_core_charge:                            1.0E-18
 QS|                         eps_rho_gspace:                             1.0E-16
 QS|                         eps_rho_rspace:                             1.0E-16
 QS|                         eps_gvg_rspace:                             1.0E-08
 QS|                         eps_ppl:                                    1.0E-02
 QS|                         eps_ppnl:                                   1.0E-10


 ATOMIC KIND INFORMATION

  1. Atomic kind: Ca                                    Number of atoms:       4

     Orbital Basis Set                                   DZVP-MOLOPT-GGA-GTH-q10

       Number of orbital shell sets:                                           1
       Number of orbital shells:                                               6
       Number of primitive Cartesian functions:                                6
       Number of Cartesian basis functions:                                   15
       Number of spherical basis functions:                                   14
       Norm type:                                                              2

       Normalised Cartesian orbitals:

                        Set   Shell   Orbital            Exponent    Coefficient

                          1       1    2s                9.791254      -0.299895
                                                         3.447098       1.154748
                                                         1.838720      -0.762110
                                                         0.685976       0.859588
                                                         0.247235      -0.615062
                                                         0.054787       0.098234

                          1       2    3s                9.791254       0.066043
                                                         3.447098      -0.639190
                                                         1.838720       0.145504
                                                         0.685976       0.538705
                                                         0.247235       0.023273
                                                         0.054787      -0.070252

                          1       3    4s                9.791254       0.113320
                                                         3.447098      -0.629579
                                                         1.838720       0.208688
                                                         0.685976       0.161308
                                                         0.247235       0.081190
                                                         0.054787       0.044470

                          1       4    3px               9.791254      -0.181314
                                                         3.447098      -0.646061
                                                         1.838720       0.904210
                                                         0.685976       0.422622
                                                         0.247235       0.068879
                                                         0.054787       0.011532
                          1       4    3py               9.791254      -0.181314
                                                         3.447098      -0.646061
                                                         1.838720       0.904210
                                                         0.685976       0.422622
                                                         0.247235       0.068879
                                                         0.054787       0.011532
                          1       4    3pz               9.791254      -0.181314
                                                         3.447098      -0.646061
                                                         1.838720       0.904210
                                                         0.685976       0.422622
                                                         0.247235       0.068879
                                                         0.054787       0.011532

                          1       5    4px               9.791254       0.162900
                                                         3.447098       0.278931
                                                         1.838720      -0.616104
                                                         0.685976      -0.427106
                                                         0.247235       0.017380
                                                         0.054787       0.033725
                          1       5    4py               9.791254       0.162900
                                                         3.447098       0.278931
                                                         1.838720      -0.616104
                                                         0.685976      -0.427106
                                                         0.247235       0.017380
                                                         0.054787       0.033725
                          1       5    4pz               9.791254       0.162900
                                                         3.447098       0.278931
                                                         1.838720      -0.616104
                                                         0.685976      -0.427106
                                                         0.247235       0.017380
                                                         0.054787       0.033725

                          1       6    4dx2              9.791254      -0.359464
                                                         3.447098       0.800550
                                                         1.838720       0.977250
                                                         0.685976       0.251434
                                                         0.247235       0.069680
                                                         0.054787       0.003572
                          1       6    4dxy              9.791254      -0.622611
                                                         3.447098       1.386594
                                                         1.838720       1.692647
                                                         0.685976       0.435497
                                                         0.247235       0.120689
                                                         0.054787       0.006187
                          1       6    4dxz              9.791254      -0.622611
                                                         3.447098       1.386594
                                                         1.838720       1.692647
                                                         0.685976       0.435497
                                                         0.247235       0.120689
                                                         0.054787       0.006187
                          1       6    4dy2              9.791254      -0.359464
                                                         3.447098       0.800550
                                                         1.838720       0.977250
                                                         0.685976       0.251434
                                                         0.247235       0.069680
                                                         0.054787       0.003572
                          1       6    4dyz              9.791254      -0.622611
                                                         3.447098       1.386594
                                                         1.838720       1.692647
                                                         0.685976       0.435497
                                                         0.247235       0.120689
                                                         0.054787       0.006187
                          1       6    4dz2              9.791254      -0.359464
                                                         3.447098       0.800550
                                                         1.838720       0.977250
                                                         0.685976       0.251434
                                                         0.247235       0.069680
                                                         0.054787       0.003572

       Atomic covalent radius [Angstrom]:                                  1.740

       Atomic van der Waals radius [Angstrom]:                             2.310

     GTH Potential information for                                   GTH-PBE-q10

       Description:                       Goedecker-Teter-Hutter pseudopotential
                                           Goedecker et al., PRB 54, 1703 (1996)
                                          Hartwigsen et al., PRB 58, 3641 (1998)
                                                      Krack, TCA 114, 145 (2005)

       Gaussian exponent of the core charge distribution:               3.287311
       Electronic configuration (s p d ...):                               4   6

       Parameters of the local part of the GTH pseudopotential:

                          rloc        C1          C2          C3          C4
                        0.390000   -4.167072   -1.583798

       Parameters of the non-local part of the GTH (SOC) pseudopotential:

                   l      r(l)      h(i,j,l)
                                    k(i,j,l)
                   0    0.289356   20.531876   -7.129786
                                   -7.129786    9.204514
                   1    0.327882    5.805605   -0.428753
                                   -0.428753    0.507308
                                    0.159923   -0.199679
                                   -0.199679    0.236263
                   2    0.679617    0.058068
                                    0.000465


 MOLECULE KIND INFORMATION


 All atoms are their own molecule, skipping detailed information


 TOTAL NUMBERS AND MAXIMUM NUMBERS

  Total number of            - Atomic kinds:                                   1
                             - Atoms:                                          4
                             - Shell sets:                                     4
                             - Shells:                                        24
                             - Primitive Cartesian functions:                 24
                             - Cartesian basis functions:                     60
                             - Spherical basis functions:                     56

  Maximum angular momentum of- Orbital basis functions:                        2
                             - Local part of the GTH pseudopotential:          2
                             - Non-local part of the GTH pseudopotential:      3


 MODULE QUICKSTEP: ATOMIC COORDINATES IN ANGSTROM

   Atom Kind Element         X             Y             Z       Z(eff)     Mass
      1    1 Ca   20      0.000000      0.000000      0.000000  10.0000  40.0780
      2    1 Ca   20      0.000000      2.762535      2.762535  10.0000  40.0780
      3    1 Ca   20      2.762535      0.000000      2.762535  10.0000  40.0780
      4    1 Ca   20      2.762535      2.762535      0.000000  10.0000  40.0780



 SCF PARAMETERS         Density guess:                                    ATOMIC
                        --------------------------------------------------------
                        max_scf:                                             500
                        max_scf_history:                                       0
                        max_diis:                                              4
                        --------------------------------------------------------
                        eps_scf:                                        1.00E-09
                        eps_scf_history:                                0.00E+00
                        eps_diis:                                       1.00E-01
                        eps_eigval:                                     1.00E-05
                        --------------------------------------------------------
                        level_shift [a.u.]:                             0.000000
                        added MOs                                        36    0
                        --------------------------------------------------------
                        Mixing method:                            BROYDEN_MIXING
                                                charge density mixing in g-space
                        --------------------------------------------------------
                        Smear method:                                FERMI_DIRAC
                        Electronic temperature [K]:                        300.0
                        Electronic temperature [a.u.]:                  9.50E-04
                        Accuracy threshold:                             1.00E-10
                        --------------------------------------------------------
                        No outer SCF

 PW_GRID| Information for grid number                                          1
 PW_GRID| Grid distributed over                                     8 processors
 PW_GRID| Real space group dimensions                                     8    1
 PW_GRID| the grid is blocked:                                                NO
 PW_GRID| Cutoff [a.u.]                                                    500.0
 PW_GRID| spherical cutoff:                                                   NO
 PW_GRID|   Bounds   1            -54      53                Points:         108
 PW_GRID|   Bounds   2            -54      53                Points:         108
 PW_GRID|   Bounds   3            -54      53                Points:         108
 PW_GRID| Volume element (a.u.^3)  0.9035E-03     Volume (a.u.^3)      1138.1774
 PW_GRID| Grid span                                                    FULLSPACE
 PW_GRID|   Distribution                         Average         Max         Min
 PW_GRID|   G-Vectors                           157464.0      157464      157464
 PW_GRID|   G-Rays                                1458.0        1458        1458
 PW_GRID|   Real Space Points                   157464.0      163296      151632

 PW_GRID| Information for grid number                                          2
 PW_GRID| Number of the reference grid                                         1
 PW_GRID| Grid distributed over                                     8 processors
 PW_GRID| Real space group dimensions                                     8    1
 PW_GRID| the grid is blocked:                                                NO
 PW_GRID| Cutoff [a.u.]                                                    166.7
 PW_GRID| spherical cutoff:                                                   NO
 PW_GRID|   Bounds   1            -32      31                Points:          64
 PW_GRID|   Bounds   2            -32      31                Points:          64
 PW_GRID|   Bounds   3            -32      31                Points:          64
 PW_GRID| Volume element (a.u.^3)  0.4342E-02     Volume (a.u.^3)      1138.1774
 PW_GRID| Grid span                                                    FULLSPACE
 PW_GRID|   Distribution                         Average         Max         Min
 PW_GRID|   G-Vectors                            32768.0       32832       32704
 PW_GRID|   G-Rays                                 512.0         513         511
 PW_GRID|   Real Space Points                    32768.0       32768       32768

 PW_GRID| Information for grid number                                          3
 PW_GRID| Number of the reference grid                                         1
 PW_GRID| Grid distributed over                                     8 processors
 PW_GRID| Real space group dimensions                                     8    1
 PW_GRID| the grid is blocked:                                                NO
 PW_GRID| Cutoff [a.u.]                                                     55.6
 PW_GRID| spherical cutoff:                                                   NO
 PW_GRID|   Bounds   1            -18      17                Points:          36
 PW_GRID|   Bounds   2            -18      17                Points:          36
 PW_GRID|   Bounds   3            -18      17                Points:          36
 PW_GRID| Volume element (a.u.^3)  0.2440E-01     Volume (a.u.^3)      1138.1774
 PW_GRID| Grid span                                                    FULLSPACE
 PW_GRID|   Distribution                         Average         Max         Min
 PW_GRID|   G-Vectors                             5832.0        5904        5796
 PW_GRID|   G-Rays                                 162.0         164         161
 PW_GRID|   Real Space Points                     5832.0        6480        5184

 PW_GRID| Information for grid number                                          4
 PW_GRID| Number of the reference grid                                         1
 PW_GRID| Grid distributed over                                     8 processors
 PW_GRID| Real space group dimensions                                     8    1
 PW_GRID| the grid is blocked:                                                NO
 PW_GRID| Cutoff [a.u.]                                                     18.5
 PW_GRID| spherical cutoff:                                                   NO
 PW_GRID|   Bounds   1            -12      11                Points:          24
 PW_GRID|   Bounds   2            -12      11                Points:          24
 PW_GRID|   Bounds   3            -12      11                Points:          24
 PW_GRID| Volume element (a.u.^3)  0.8233E-01     Volume (a.u.^3)      1138.1774
 PW_GRID| Grid span                                                    FULLSPACE
 PW_GRID|   Distribution                         Average         Max         Min
 PW_GRID|   G-Vectors                             1728.0        1800        1680
 PW_GRID|   G-Rays                                  72.0          75          70
 PW_GRID|   Real Space Points                     1728.0        1728        1728

 POISSON| Solver                                                        PERIODIC
 POISSON| Periodicity                                                        XYZ

 RS_GRID| Information for grid number                                          1
 RS_GRID|   Bounds   1            -54      53                Points:         108
 RS_GRID|   Bounds   2            -54      53                Points:         108
 RS_GRID|   Bounds   3            -54      53                Points:         108
 RS_GRID| Real space fully replicated
 RS_GRID| Group size                                                           1

 RS_GRID| Information for grid number                                          2
 RS_GRID|   Bounds   1            -32      31                Points:          64
 RS_GRID|   Bounds   2            -32      31                Points:          64
 RS_GRID|   Bounds   3            -32      31                Points:          64
 RS_GRID| Real space fully replicated
 RS_GRID| Group size                                                           1

 RS_GRID| Information for grid number                                          3
 RS_GRID|   Bounds   1            -18      17                Points:          36
 RS_GRID|   Bounds   2            -18      17                Points:          36
 RS_GRID|   Bounds   3            -18      17                Points:          36
 RS_GRID| Real space fully replicated
 RS_GRID| Group size                                                           1

 RS_GRID| Information for grid number                                          4
 RS_GRID|   Bounds   1            -12      11                Points:          24
 RS_GRID|   Bounds   2            -12      11                Points:          24
 RS_GRID|   Bounds   3            -12      11                Points:          24
 RS_GRID| Real space fully replicated
 RS_GRID| Group size                                                           1

 Number of electrons:                                                         40
 Number of occupied orbitals:                                                 20
 Number of molecular orbitals:                                                56

 Number of orbital functions:                                                 56
 Number of independent orbital functions:                                     56

 Extrapolation method: initial_guess

 Atomic guess: The first density matrix is obtained in terms of atomic orbitals
               and electronic configurations assigned to each atomic kind

 Guess for atomic kind: Ca

 Electronic structure
    Total number of core electrons                                         10.00
    Total number of valence electrons                                      10.00
    Total number of electrons                                              20.00
    Multiplicity                                                   not specified
    S   [  2.00  2.00] 2.00  2.00
    P   [  6.00] 6.00


 *******************************************************************************
                  Iteration          Convergence                     Energy [au]
 *******************************************************************************
                          1        0.819040E-01                 -36.445527281783
                          2        0.178189E-01                 -36.447550781619
                          3        0.128123E-02                 -36.447619137082
                          4        0.389101E-06                 -36.447619514590

 Energy components [Hartree]           Total Energy ::          -36.447619514590
                                        Band Energy ::           -9.709953031914
                                     Kinetic Energy ::           13.130901936212
                                   Potential Energy ::          -49.578521450802
                                      Virial (-V/T) ::            3.775713328121
                                        Core Energy ::          -59.855818940612
                                          XC Energy ::           -4.830727620835
                                     Coulomb Energy ::           28.238927046858
                       Total Pseudopotential Energy ::          -73.049387216140
                       Local Pseudopotential Energy ::          -81.514095746926
                    Nonlocal Pseudopotential Energy ::            8.464708530786
                                        Confinement ::            0.626663393153

 Orbital energies  State     L     Occupation   Energy[a.u.]          Energy[eV]

                       1     0          2.000      -1.726392          -46.977509
                       2     0          2.000      -0.111556           -3.035588

                       1     1          6.000      -1.005676          -27.365844


 Total Electron Density at R=0:                                         0.001603
 Re-scaling the density matrix to get the right number of electrons
                  # Electrons              Trace(P)               Scaling factor
                           40                40.000                        1.000


 SCF WAVEFUNCTION OPTIMIZATION

  Step     Update method      Time    Convergence         Total energy    Change
  ------------------------------------------------------------------------------
     1 NoMix/Diag. 0.10E+00    2.2     0.81343223      -147.2607859963 -1.47E+02
     2 Broy./Diag. 0.10E+00    2.3     0.00071904      -146.2190743941  1.04E+00
     3 Broy./Diag. 0.10E+00    2.3     0.01070291      -146.6026617786 -3.84E-01
     4 Broy./Diag. 0.10E+00    2.3     0.00011984      -146.8375813645 -2.35E-01
     5 Broy./Diag. 0.10E+00    2.3     0.00067134      -146.8428598846 -5.28E-03
     6 Broy./Diag. 0.10E+00    2.3     0.00001958      -146.8424490667  4.11E-04
     7 Broy./Diag. 0.10E+00    2.3     0.00014364      -146.8238863109  1.86E-02
     8 Broy./Diag. 0.10E+00    2.3     0.00000657      -146.8196865033  4.20E-03
     9 Broy./Diag. 0.10E+00    2.3     0.00007129      -146.8214058378 -1.72E-03
    10 Broy./Diag. 0.10E+00    2.3     0.00000369      -146.8202552761  1.15E-03
    11 Broy./Diag. 0.10E+00    2.3     0.00003026      -146.8201248308  1.30E-04
    12 Broy./Diag. 0.10E+00    2.3     0.00000058      -146.8197624555  3.62E-04
    13 Broy./Diag. 0.10E+00    2.3     0.00000358      -146.8195581049  2.04E-04
    14 Broy./Diag. 0.10E+00    2.3     0.00000003      -146.8194936750  6.44E-05
    15 Broy./Diag. 0.10E+00    2.3     0.00000017      -146.8195113968 -1.77E-05
    16 Broy./Diag. 0.10E+00    2.3     0.00000002      -146.8195113208  7.60E-08
    17 Broy./Diag. 0.10E+00    2.3     0.00000011      -146.8195164569 -5.14E-06
    18 Broy./Diag. 0.10E+00    2.3     6.1217E-09      -146.8195197062 -3.25E-06
    19 Broy./Diag. 0.10E+00    2.3     7.0614E-09      -146.8195210465 -1.34E-06
    20 Broy./Diag. 0.10E+00    2.3     7.8508E-09      -146.8195204327  6.14E-07
    21 Broy./Diag. 0.10E+00    2.3     3.5063E-09      -146.8195199266  5.06E-07
    22 Broy./Diag. 0.10E+00    2.3     7.0365E-09      -146.8195195402  3.86E-07
    23 Broy./Diag. 0.10E+00    2.3     3.5329E-09      -146.8195193300  2.10E-07
    24 Broy./Diag. 0.10E+00    2.3     5.5394E-09      -146.8195191812  1.49E-07
    25 Broy./Diag. 0.10E+00    2.3     2.1243E-09      -146.8195189741  2.07E-07
    26 Broy./Diag. 0.10E+00    2.3     1.7708E-09      -146.8195188472  1.27E-07
    27 Broy./Diag. 0.10E+00    2.3     1.6332E-09      -146.8195187791  6.81E-08
    28 Broy./Diag. 0.10E+00    2.3     3.2105E-10      -146.8195187401  3.90E-08

  *** SCF run converged in    28 steps ***


  Electronic density on regular grids:        -40.0000000000       -0.0000000000
  Core density on regular grids:               40.0000000000        0.0000000000
  Total charge density on r-space grids:       -0.0000000000
  Total charge density g-space grids:          -0.0000000000

  Overlap energy of the core charge distribution:               0.00000000000000
  Self energy of the core charge distribution:               -289.32799156295198
  Core Hamiltonian energy:                                     68.67422072790487
  Hartree energy:                                              94.16789497110437
  Exchange-correlation energy:                                -20.33318586104027
  Electronic entropic energy:                                  -0.00045701514861
  Fermi energy:                                                 0.15594102511305

  Total energy:                                              -146.81951874013046

 !-----------------------------------------------------------------------------!
                     Mulliken Population Analysis

 #  Atom  Element  Kind  Atomic population                           Net charge
       1     Ca       1         10.000000                              0.000000
       2     Ca       1         10.000000                              0.000000
       3     Ca       1         10.000000                              0.000000
       4     Ca       1         10.000000                              0.000000
 # Total charge                             40.000000                  0.000000

 !-----------------------------------------------------------------------------!

 !-----------------------------------------------------------------------------!
                           Hirshfeld Charges

  #Atom  Element  Kind  Ref Charge     Population                    Net charge
      1       Ca     1      10.000         10.000                         0.000
      2       Ca     1      10.000         10.000                        -0.000
      3       Ca     1      10.000         10.000                         0.000
      4       Ca     1      10.000         10.000                        -0.000

  Total Charge                                                            0.000
 !-----------------------------------------------------------------------------!

 KPOINTS| Band Structure Calculation
 KPOINTS| Number of k-point sets                                               1
 KPOINTS| Number of added MOs/bands                                           -1
 KPOINTS| Number of k-points in set    1                                     148
 KPOINTS| In units of b-vector [2pi/Bohr]
 KPOINTS| Special point     1 not specifi     0.000000     0.000000     0.000000
 KPOINTS| Special point     2 not specifi     0.500000     0.000000     0.500000
 KPOINTS| Special point     3 not specifi     0.625000     0.250000     0.625000
 KPOINTS| Special point     4 not specifi     0.000000     0.000000     0.000000
 KPOINTS| Time for k-point line                                            1.012

 ENERGY| Total FORCE_EVAL ( QS ) energy [hartree]           -146.819518740130462

 -------------------------------------------------------------------------------
 -                                                                             -
 -                                DBCSR STATISTICS                             -
 -                                                                             -
 -------------------------------------------------------------------------------
 COUNTER                                    TOTAL       BLAS       SMM       ACC
 flops inhomo. stacks                           0       0.0%      0.0%      0.0%
 flops total                         0.000000E+00       0.0%      0.0%      0.0%
 flops max/rank                      0.000000E+00       0.0%      0.0%      0.0%
 matmuls inhomo. stacks                         0       0.0%      0.0%      0.0%
 matmuls total                                  0       0.0%      0.0%      0.0%
 number of processed stacks                     0       0.0%      0.0%      0.0%
 average stack size                                     0.0       0.0       0.0
 marketing flops                     0.000000E+00
 -------------------------------------------------------------------------------
 -                                                                             -
 -                      DBCSR MESSAGE PASSING PERFORMANCE                      -
 -                                                                             -
 -------------------------------------------------------------------------------
 ROUTINE             CALLS      AVE VOLUME [Bytes]
 MP_Bcast                1                     12.
 MP_Allreduce           19                     21.
 MP_Alltoall        615792                   1560.
 -------------------------------------------------------------------------------

 -------------------------------------------------------------------------------
 -                                                                             -
 -                                DBM STATISTICS                               -
 -                                                                             -
 -------------------------------------------------------------------------------
    M  x    N  x    K                                          COUNT     PERCENT
 -------------------------------------------------------------------------------

 -------------------------------------------------------------------------------
 -                                                                             -
 -                                GRID STATISTICS                              -
 -                                                                             -
 -------------------------------------------------------------------------------
 LP    KERNEL             BACKEND                              COUNT     PERCENT
 4     collocate ortho    CPU                                 387208      50.88%
 4     integrate ortho    CPU                                 373856      49.12%
 0     collocate general  CPU                                      8       0.00%
 0     integrate general  CPU                                      4       0.00%
 -------------------------------------------------------------------------------

 MEMORY| Estimated peak process memory [MiB]                                 456

 -------------------------------------------------------------------------------
 ----                             MULTIGRID INFO                            ----
 -------------------------------------------------------------------------------
 count for grid        1:          28844          cutoff [a.u.]          500.00
 count for grid        2:          10988          cutoff [a.u.]          166.67
 count for grid        3:          10164          cutoff [a.u.]           55.56
 count for grid        4:          13956          cutoff [a.u.]           18.52
 total gridlevel count  :          63952

 -------------------------------------------------------------------------------
 -                                                                             -
 -                         MESSAGE PASSING PERFORMANCE                         -
 -                                                                             -
 -------------------------------------------------------------------------------

 ROUTINE             CALLS      AVE VOLUME [Bytes]
 MP_Group                6
 MP_Bcast           262699                  16503.
 MP_Allreduce        63921                     64.
 MP_Sync                 4
 MP_Alltoall           509                7107961.
 MP_SendRecv           826                 423761.
 MP_ISendRecv          791                 416489.
 MP_Wait            180715
 MP_comm_split           4
 MP_ISend           191564                    725.
 MP_IRecv           305792                    457.
 -------------------------------------------------------------------------------


 -------------------------------------------------------------------------------
 -                                                                             -
 -                           R E F E R E N C E S                               -
 -                                                                             -
 -------------------------------------------------------------------------------
 
 CP2K version 2025.1 (Development Version), the CP2K developers group (2025).
 CP2K is freely available from https://www.cp2k.org/ .
 
 T. D. Kuehne, M. Iannuzzi, M. Del Ben, V. V. Rybkin, P. Seewald, F. Stein, T. 
 Laino, R. Z. Khaliullin, O. Schuett, F. Schiffmann, D. Golze, J. Wilhelm, S. 
 Chulkov, M. H. Bani-Hashemian, V. Weber, U. Borstnik, M. Taillefumier, A. S. 
 Jakobovits, A. Lazzaro, H. Pabst, T. Mueller, R. Schade, M. Guidon, S. 
 Andermatt, N. Holmberg, G. K. Schenter, A. Hehn, A. Bussy, F. Belleflamme, G. 
 Tabacchi, A. Gloess, M. Lass, I. Bethune, C. J. Mundy, C. Plessl, M. Watkins, 
 J. VandeVondele, M. Krack, J. Hutter.
 J. Chem. Phys. 152, 194103 (2020).
 CP2K: An electronic structure and molecular dynamics software package - 
 Quickstep: Efficient and accurate electronic structure calculations.
 https://doi.org/10.1063/5.0007045

 O. Schuett, P. Messmer, J. Hutter, J. VandeVondele.
 Electronic Structure Calculations on Graphics Processing Units, 173-190 (2016).
 GPU-Accelerated Sparse Matrix-Matrix Multiplication for Linear Scaling Density 
 Functional Theory.
 https://doi.org/10.1002/9781118670712.ch8

 J. Hutter, M. Iannuzzi, F. Schiffmann, J. VandeVondele.
 WIREs Comput Mol Sci. 4, 15-25 (2014).
 CP2K: atomistic simulations of condensed matter systems.
 https://doi.org/10.1002/wcms.1159

 U. Borstnik, J. VandeVondele, V. Weber, J. Hutter.
 Parallel Comput. 40, 47-58 (2014).
 Sparse matrix multiplication: The distributed block-compressed sparse row 
 library.
 https://doi.org/10.1016/j.parco.2014.03.012

 J. VandeVondele, J. Hutter.
 J. Chem. Phys. 127, 114105 (2007).
 Gaussian basis sets for accurate calculations on molecular systems in gas and 
 condensed phases.
 https://doi.org/10.1063/1.2770708

 J. VandeVondele, M. Krack, F. Mohamed, M. Parrinello, T. Chassaing, J. Hutter.
 Comput. Phys. Commun. 167, 103-128 (2005).
 QUICKSTEP: Fast and accurate density functional calculations using a mixed 
 Gaussian and plane waves approach.
 https://doi.org/10.1016/j.cpc.2004.12.014

 M. Krack.
 Theor. Chem. Acc. 114, 145-152 (2005).
 Pseudopotentials for H to Kr optimized for gradient-corrected 
 exchange-correlation functionals.
 https://doi.org/10.1007/s00214-005-0655-y

 M. Frigo, S. G. Johnson.
 Proc. IEEE 93, 216-231 (2005).
 The design and implementation of FFTW3.
 https://doi.org/10.1109/JPROC.2004.840301

 C. Hartwigsen, S. Goedecker, J. Hutter.
 Phys. Rev. B 58, 3641-3662 (1998).
 Relativistic separable dual-space Gaussian pseudopotentials from H to Rn.
 https://doi.org/10.1103/PhysRevB.58.3641

 G. Lippert, J. Hutter, M. Parrinello.
 Mol. Phys. 92, 477-487 (1997).
 A hybrid Gaussian and plane wave density functional scheme.
 https://doi.org/10.1080/002689797170220

 S. Goedecker, M. Teter, J. Hutter.
 Phys. Rev. B 54, 1703-1710 (1996).
 Separable dual-space Gaussian pseudopotentials.
 https://doi.org/10.1103/PhysRevB.54.1703

 J. P. Perdew, K. Burke, M. Ernzerhof.
 Phys. Rev. Lett. 77, 3865-3868 (1996).
 Generalized gradient approximation made simple.
 https://doi.org/10.1103/PhysRevLett.77.3865


 -------------------------------------------------------------------------------
 -                                                                             -
 -                                T I M I N G                                  -
 -                                                                             -
 -------------------------------------------------------------------------------
 SUBROUTINE                       CALLS  ASD         SELF TIME        TOTAL TIME
                                MAXIMUM       AVERAGE  MAXIMUM  AVERAGE  MAXIMUM
 CP2K                                 1  1.0    0.012    0.017   67.543   67.543
 qs_energies                          1  2.0    0.006    0.025   66.323   66.334
 scf_env_do_scf                       1  3.0    0.000    0.000   64.620   64.620
 scf_env_do_scf_inner_loop           28  4.0    0.020    0.021   64.620   64.620
 do_general_diag_kp                  29  5.9    0.170    0.175   57.676   57.966
 qs_scf_new_mos_kp                   28  5.0    0.000    0.000   56.700   56.986
 rskp_transform                   14632  6.9   12.244   19.716   12.244   19.716
 mp_alltoall_i22                 105120  8.8   13.383   18.026   13.383   18.026
 dbcsr_complete_redistribute      45096  8.2    1.513    1.549   16.492   18.018
 dbcsr_desymmetrize_deep          60024  7.4    0.954    0.972   14.316   17.463
 kpoint_density_transform            28  7.0    0.068    0.070   15.098   15.114
 copy_dbcsr_to_fm                 30760  6.9    0.324    0.332   14.675   14.878
 transform_dmat                    7168  8.0    5.927    9.543    5.927    9.543
 copy_fm_to_dbcsr                 14336  8.0    0.088    0.092    7.550    8.936
 qs_ks_update_qs_env                 28  5.0    0.000    0.000    3.507    4.291
 dbcsr_finalize                  117428  8.5    0.522    0.554    3.690    3.957
 cp_fm_start_copy_general         43600  7.3    0.636    0.917    3.752    3.792
 rebuild_ks_matrix                   28  6.0    0.000    0.000    2.949    3.733
 qs_ks_build_kohn_sham_matrix        28  7.0    0.037    0.037    2.949    3.733
 mp_alltoall_d11v                315360  9.3    2.848    2.924    2.848    2.924
 sum_up_and_integrate                28  8.0    0.000    0.000    1.762    2.551
 integrate_v_rspace                  28  9.0    0.028    0.046    1.760    2.549
 mp_cart_sub                      61522  8.9    2.469    2.476    2.469    2.476
 dbcsr_merge_all                  45096 10.2    1.161    1.364    2.058    2.288
 qs_rho_update_rho_low               29  5.0    0.000    0.000    2.118    2.130
 calculate_rho_elec                  29  6.0    0.035    0.038    2.118    2.130
 grid_integrate_task_list            28 10.0    1.315    2.082    1.315    2.082
 mp_alltoall_i11v                195312  9.0    1.866    1.908    1.866    1.908
 hybrid_alltoall_any              60024  8.4    0.248    0.254    1.812    1.831
 mp_allgather_i                   87200  8.3    1.577    1.677    1.577    1.677
 cp_cfm_geeig_canon                 933  6.9    0.006    0.006    1.612    1.630
 grid_collocate_task_list            29  7.0    1.120    1.590    1.120    1.590
 cp_cfm_heevd                      1866  7.9    0.002    0.002    1.478    1.497
 cp_cfm_heevd_base                 1866  8.9    1.477    1.495    1.477    1.495
 mp_cart_create                   30767  8.9    1.436    1.461    1.436    1.461
 mp_bcast_iv                     174554  8.3    1.041    1.191    1.041    1.191
 write_kpoints_restart               28  5.0    0.005    0.007    1.157    1.157
 density_rs2pw                       29  7.0    0.001    0.001    0.959    1.144
 fft_wrap_pw1pw2                    509 10.0    0.005    0.005    1.125    1.136
 dbcsr_work_create               105120  8.8    0.618    0.630    1.059    1.079
 fft_wrap_pw1pw2_500                338 11.3    0.087    0.089    1.043    1.057
 create_qs_kind_set                   1  2.0    0.000    0.000    1.014    1.014
 read_qs_kind                         1  3.0    0.615    0.621    1.014    1.014
 transfer_rs2pw                     118  8.0    0.001    0.001    0.818    1.013
 dbcsr_create_new                197540  8.1    0.809    0.842    0.973    1.006
 transfer_rs2pw_500                  31  8.9    0.115    0.122    0.750    0.950
 fft3d_ps                           509 12.0    0.390    0.402    0.890    0.905
 mp_sendrecv_dv                     826 10.0    0.675    0.864    0.675    0.864
 qs_vxc_create                       28  8.0    0.000    0.000    0.819    0.821
 xc_vxc_pw_create                    28  9.0    0.034    0.035    0.819    0.821
 dbcsr_iterator_start            349087  8.9    0.657    0.670    0.773    0.789
 dbcsr_data_new                 1132525  9.7    0.740    0.761    0.740    0.761
 dbcsr_work_destroy_all          105120  9.8    0.500    0.508    0.745    0.754
 tree_to_linear_d                 45096 11.2    0.714    0.732    0.714    0.732
 gspace_mixing                       27  5.0    0.030    0.031    0.713    0.713
 copy_fm_to_dbcsr_bc              14336  9.0    0.196    0.203    0.663    0.685
 copy_dbcsr_to_fm_bc              30760  7.9    0.298    0.309    0.661    0.673
 dbcsr_copy                       56972  7.1    0.269    0.284    0.605    0.652
 broyden_mixing                      27  6.0    0.571    0.583    0.587    0.590
 dbcsr_data_release             1601660 10.1    0.577    0.588    0.577    0.588
 dbcsr_dot                        41889  8.0    0.187    0.202    0.562    0.577
 evaluate_core_matrix_traces         28  6.0    0.000    0.000    0.558    0.558
 calculate_ptrace_kp                 56  7.0    0.030    0.031    0.557    0.557
 kpoint_set_mo_occupation            28  7.0    0.471    0.480    0.508    0.530
 xc_pw_derive                       168 11.0    0.001    0.001    0.518    0.528
 dbcsr_iterator_stop             349087  8.9    0.427    0.432    0.504    0.510
 dbcsr_destroy                   155652  8.1    0.260    0.266    0.486    0.496
 parser_read_line                134477  4.0    0.045    0.048    0.485    0.493
 cp_fm_write_unformatted           1496  6.0    0.304    0.452    0.308    0.468
 mp_alltoall_z22v                   509 14.0    0.433    0.458    0.433    0.458
 xc_rho_set_and_dset_create          28 10.0    0.018    0.021    0.446    0.453
 parser_read_line_low               153  5.2    0.048    0.202    0.440    0.450
 potential_pw2rs                     28 10.0    0.002    0.002    0.416    0.429
 broadcast_input_information        153  6.2    0.099    0.102    0.391    0.426
 mp_waitall_1                    180715  8.3    0.224    0.372    0.224    0.372
 mp_bcast_im                      87200  8.3    0.317    0.360    0.317    0.360
 mp_sum_d                         42535  8.9    0.315    0.360    0.315    0.360
 xc_pw_divergence                    28 10.0    0.000    0.000    0.333    0.340
 quick_finalize                   60024  9.4    0.188    0.194    0.328    0.337
 cp_dbcsr_alloc_block_from_nbl     5406  5.1    0.175    0.302    0.200    0.335
 qs_energies_init_hamiltonians        1  3.0    0.000    0.000    0.325    0.325
 self_consistency_check              28  5.0    0.029    0.030    0.318    0.323
 dbcsr_copy_into_existing         15084  9.8    0.179    0.229    0.267    0.316
 x_to_yz                            280 13.2    0.039    0.040    0.283    0.294
 transfer_pw2rs                     113 11.0    0.001    0.001    0.290    0.291
 cp_sm_mix                        20944  6.0    0.068    0.077    0.258    0.265
 cp_fm_finish_copy_general        18068  7.8    0.204    0.214    0.233    0.242
 mp_comm_free                     92325  8.9    0.226    0.240    0.226    0.240
 yz_to_x                            229 12.8    0.023    0.024    0.212    0.225
 transfer_pw2rs_500                  29 11.9    0.113    0.118    0.212    0.223
 build_core_hamiltonian_matrix        1  4.0    0.003    0.003    0.168    0.217
 mp_bcast_i_src                     612  7.2    0.178    0.213    0.178    0.213
 dbcsr_set                       120849  7.7    0.112    0.114    0.161    0.170
 init_scf_run                         1  3.0    0.000    0.000    0.152    0.167
 scf_env_initial_rho_setup            1  4.0    0.000    0.000    0.152    0.167
 xc_functional_eval                  28 11.0    0.000    0.000    0.153    0.159
 pbe_lda_eval                        28 12.0    0.152    0.159    0.152    0.159
 mp_max_d                         20946  7.0    0.142    0.154    0.142    0.154
 qs_env_update_s_mstruct              1  4.0    0.000    0.000    0.116    0.143
 kpoint_density_matrices             28  7.0    0.011    0.011    0.135    0.138
 dbcsr_sort_indices              124862 10.8    0.126    0.134    0.126    0.134
 parallel_gemm_fm                  3584  8.0    0.003    0.003    0.120    0.123
 dbcsr_iterator_seek             349087  9.9    0.116    0.122    0.116    0.122
 parallel_gemm_fm_gemm             3584  9.0    0.003    0.003    0.117    0.120
 cp_cfm_gemm                       2799  7.9    0.116    0.118    0.116    0.118
 cp_fm_gemm                        3584 10.0    0.114    0.117    0.114    0.117
 mp_bcast_am_src                    153  7.2    0.099    0.104    0.112    0.116
 dbcsr_make_index_exist          197540  9.1    0.103    0.109    0.103    0.109
 dbcsr_reserve_all_blocks         14336 10.0    0.023    0.024    0.102    0.107
 dbcsr_reserve_blocks             19742  9.7    0.082    0.084    0.102    0.104
 mixing_allocate                      1  3.0    0.004    0.005    0.067    0.103
 calculate_rho_core                   1  5.0    0.002    0.002    0.075    0.099
 merge_index                      45096 11.2    0.087    0.099    0.087    0.099
 topology_control                     1  2.0    0.000    0.000    0.096    0.097
 mp_irecv_iv                     174400  8.3    0.010    0.083    0.010    0.083
 scf_post_calculation_gpw             1  3.0    0.000    0.000    0.081    0.081
 write_available_results              1  4.0    0.000    0.000    0.081    0.081
 write_mo_free_results                1  5.0    0.002    0.002    0.081    0.081
 pw_scatter_p                       280 12.2    0.078    0.080    0.078    0.080
 mp_isend_dv                      44192  8.2    0.073    0.077    0.073    0.077
 read_cell_cif                        2  4.5    0.006    0.038    0.076    0.077
 mp_isendrecv_dv                    791 13.0    0.026    0.075    0.026    0.075
 dbcsr_switch_data_area           60024 10.4    0.054    0.054    0.070    0.072
 pw_poisson_solve                    28  8.0    0.000    0.000    0.068    0.068
 qs_env_rebuild_rho                   1  5.0    0.000    0.000    0.036    0.067
 qs_rho_rebuild                       1  6.0    0.002    0.003    0.036    0.067
 transfer_pw2rs_170                  28 12.0    0.026    0.029    0.058    0.066
 qs_init_subsys                       1  2.0    0.001    0.002    0.063    0.063
 qs_env_setup                         1  3.0    0.000    0.000    0.060    0.061
 qs_env_rebuild_pw_env                2  3.5    0.000    0.000    0.060    0.060
 cp_fm_cleanup_copy_general       31056  7.0    0.038    0.040    0.058    0.060
 pw_env_rebuild                       1  5.0    0.000    0.001    0.059    0.060
 mp_isend_iv                      98248  8.3    0.015    0.059    0.015    0.059
 dbcsr_zero                      120849  8.7    0.049    0.058    0.049    0.058
 transfer_rs2pw_170                  29  9.0    0.022    0.023    0.051    0.057
 mp_sum_dv                          323  3.3    0.039    0.057    0.039    0.057
 calculate_first_density_matrix       1  5.0    0.001    0.001    0.039    0.054
 fft_wrap_pw1pw2_170                 57 10.5    0.004    0.004    0.053    0.054
 calculate_atomic_block_dm            1  6.0    0.001    0.001    0.038    0.053
 build_overlap_matrix_low             1  5.0    0.009    0.010    0.038    0.051
 pw_grid_setup                        4  6.0    0.000    0.000    0.050    0.051
 mp_sum_dm3                          28  8.0    0.036    0.050    0.036    0.050
 pw_grid_setup_internal               4  7.0    0.001    0.002    0.050    0.050
 build_kinetic_matrix_low             1  5.0    0.008    0.009    0.036    0.049
 calculate_ecore_overlap              1  4.0    0.000    0.000    0.037    0.049
 pw_integral_ab_c1d_c1d_gs           28  9.0    0.043    0.044    0.046    0.046
 dbcsr_distribution_new           45098  8.6    0.040    0.045    0.040    0.045
 mp_sum_iv                           24  5.3    0.033    0.043    0.033    0.043
 qs_scf_ensure_work_matrices          1  3.0    0.000    0.000    0.033    0.043
 mp_irecv_im2                     87200  8.3    0.005    0.042    0.005    0.042
 build_core_ppnl                      1  5.0    0.035    0.042    0.035    0.042
 hirshfeld_integration                1  6.0    0.017    0.033    0.041    0.041
 coordinate_control                   1  3.0    0.000    0.001    0.038    0.038
 coordinate_control_READ_COORDI       1  4.0    0.000    0.000    0.037    0.038
 read_coordinate_cif                  1  5.0    0.002    0.002    0.037    0.037
 dbcsr_get_data_size_used        105120  9.8    0.036    0.037    0.036    0.037
 pw_gather_p                        229 11.8    0.036    0.037    0.036    0.037
 dbcsr_make_dbcsr_index          124862 10.8    0.033    0.035    0.033    0.035
 pw_grid_sort                         4  8.0    0.023    0.024    0.033    0.034
 calculate_hirshfeld_normalizat       1  6.0    0.013    0.026    0.034    0.034
 mixing_init                          1  5.0    0.027    0.029    0.029    0.029
 dbcsr_data_copy_aa2              45096 11.2    0.027    0.029    0.027    0.029
 mp_isend_im2                     49124  8.3    0.007    0.027    0.007    0.027
 mp_irecv_dv                      44192  8.2    0.025    0.025    0.025    0.025
 pw_copy                            420 10.5    0.025    0.025    0.025    0.025
 pw_copy_from_array                 280 12.2    0.017    0.023    0.017    0.023
 pw_derive                          252 11.3    0.021    0.022    0.021    0.022
 restraint_control                    1  2.0    0.000    0.000    0.011    0.021
 mp_sum_i                             4  2.8    0.011    0.021    0.011    0.021
 cp_cfm_scale_and_add_fm           3732  6.9    0.016    0.016    0.016    0.016
 mp_recv_dv                        4488  7.0    0.002    0.016    0.002    0.016
 fft_wrap_pw1pw2_60                  57 10.5    0.001    0.001    0.016    0.016
 transfer_pw2rs_60                   28 12.0    0.005    0.005    0.013    0.016
 pw_poisson_set                      29  8.9    0.000    0.000    0.014    0.015
 build_core_ppl                       1  5.0    0.011    0.014    0.011    0.014
 mp_sum_dm                           27  7.0    0.008    0.014    0.008    0.014
 transfer_rs2pw_60                   29  9.0    0.004    0.004    0.012    0.013
 mp_comm_size                     42875  9.0    0.011    0.011    0.011    0.011
 qs_create_task_list                  1  5.0    0.000    0.000    0.005    0.011
 mp_sum_l                           429  2.1    0.008    0.011    0.008    0.011
 generate_qs_task_list                1  6.0    0.004    0.008    0.005    0.011
 mp_comm_rank                     42875  9.0    0.010    0.011    0.010    0.011
 sort_shells                          4  9.0    0.010    0.010    0.010    0.010
 pw_axpy                            284  9.3    0.010    0.010    0.010    0.010
 fft_wrap_pw1pw2_20                  57 10.5    0.000    0.001    0.008    0.009
 grid_free_task_list                  1  2.0    0.006    0.008    0.006    0.008
 pw_grid_assign                       4  8.0    0.007    0.007    0.008    0.008
 init_cube_info                       4  6.0    0.007    0.007    0.007    0.007
 pw_zero                            141 10.4    0.006    0.007    0.006    0.007
 pw_copy_to_array                   229 11.8    0.007    0.007    0.007    0.007
 -------------------------------------------------------------------------------

 The number of warnings for this run is : 1
 
 -------------------------------------------------------------------------------
  **** **** ******  **  PROGRAM ENDED AT                 2025-08-03 17:21:20.844
 ***** ** ***  *** **   PROGRAM RAN ON                              i06r11c01s08
 **    ****   ******    PROGRAM RAN BY                                   di38fab
 ***** **    ** ** **   PROGRAM PROCESS ID                               2565570
  **** **  *******  **  PROGRAM STOPPED IN /hppfs/scratch/04/di38fab/09_GTH/Delt
                                           a_Set/Ca/DZVP-MOLOPT-PBE-GTH/8x8x8
