W                                       
   1.00000000000000     
     3.189680    0.000000    0.000000
     0.000000    3.189680    0.000000
     0.000000    0.000000    3.189680
   W 
     2
Direct
  0.000000  0.000000  0.000000
  0.500000  0.500000  0.500000
 
   28   28   28
  283.41      274.17      247.99      209.15      163.70      118.18      78.311      47.840      27.833      16.853    
  11.916      9.8009      8.8198      8.4219      8.3190      8.4219      8.8198      9.8009      11.916      16.853    
  27.833      47.840      78.311      118.18      163.70      209.15      247.99      274.17      274.17      265.29    
  240.10      202.66      158.73      114.65      76.014      46.505      27.176      16.609      11.864      9.8010    
  8.8385      8.4464      8.3446      8.4464      8.8385      9.8010      11.864      16.609      27.176      46.505    
  76.014      114.65      158.73      202.66      240.10      265.29      247.99      240.10      217.66      184.09    
  144.44      104.47      69.391      42.673      25.309      15.927      11.716      9.7970      8.8894      8.5149    
  8.4166      8.5149      8.8894      9.7970      11.716      15.927      25.309      42.673      69.391      104.47    
  144.44      184.09      217.66      240.10      209.15      202.66      184.09      156.08      122.74      88.952    
  59.313      36.907      22.561      14.948      11.482      9.7787      8.9593      8.6135      8.5211      8.6135    
  8.9593      9.7787      11.482      14.948      22.561      36.907      59.313      88.952      122.74      156.08    
  184.09      202.66      163.70      158.73      144.44      122.74      96.734      70.344      47.328      30.183    
  19.456      13.869      11.167      9.7367      9.0302      8.7221      8.6376      8.7221      9.0302      9.7367    
  11.167      13.869      19.456      30.183      47.328      70.344      96.734      122.74      144.44      158.73    
  118.18      114.65      104.47      88.952      70.344      51.569      35.431      23.703      16.578      12.847    
  10.801      9.6670      9.0845      8.8185      8.7429      8.8185      9.0845      9.6670      10.801      12.847    
  16.578      23.703      35.431      51.569      70.344      88.952      104.47      114.65      78.311      76.014    
  69.391      59.313      47.328      35.431      25.473      18.478      14.306      11.898      10.422      9.5706    
  9.1077      8.8828      8.8161      8.8828      9.1077      9.5706      10.422      11.898      14.306      18.478    
  25.473      35.431      47.328      59.313      69.391      76.014      47.840      46.505      42.673      36.907    
  30.183      23.703      18.478      14.904      12.613      11.061      10.064      9.4509      9.0904      8.9012    
  8.8423      8.9012      9.0904      9.4509      10.064      11.061      12.613      14.904      18.478      23.703    
  30.183      36.907      42.673      46.505      27.833      27.176      25.309      22.561      19.456      16.578    
  14.306      12.613      11.315      10.383      9.7414      9.3100      9.0294      8.8688      8.8161      8.8688    
  9.0294      9.3100      9.7414      10.383      11.315      12.613      14.306      16.578      19.456      22.561    
  25.309      27.176      16.853      16.609      15.927      14.948      13.869      12.847      11.898      11.061    
  10.383      9.8568      9.4554      9.1505      8.9284      8.7902      8.7429      8.7902      8.9284      9.1505    
  9.4554      9.8568      10.383      11.061      11.898      12.847      13.869      14.948      15.927      16.609    
  11.916      11.864      11.716      11.482      11.167      10.801      10.422      10.064      9.7414      9.4554    
  9.2010      8.9786      8.7988      8.6796      8.6376      8.6796      8.7988      8.9786      9.2010      9.4554    
  9.7414      10.064      10.422      10.801      11.167      11.482      11.716      11.864      9.8009      9.8010    
  9.7970      9.7787      9.7367      9.6670      9.5706      9.4509      9.3100      9.1505      8.9786      8.8080    
  8.6596      8.5576      8.5211      8.5576      8.6596      8.8080      8.9786      9.1505      9.3100      9.4509    
  9.5706      9.6670      9.7367      9.7787      9.7970      9.8010      8.8198      8.8385      8.8894      8.9593    
  9.0302      9.0845      9.1077      9.0904      9.0294      8.9284      8.7988      8.6596      8.5347      8.4478    
  8.4166      8.4478      8.5347      8.6596      8.7988      8.9284      9.0294      9.0904      9.1077      9.0845    
  9.0302      8.9593      8.8894      8.8385      8.4219      8.4464      8.5149      8.6135      8.7221      8.8185    
  8.8828      8.9012      8.8688      8.7902      8.6796      8.5576      8.4478      8.3718      8.3446      8.3718    
  8.4478      8.5576      8.6796      8.7902      8.8688      8.9012      8.8828      8.8185      8.7221      8.6135    
  8.5149      8.4464      8.3190      8.3446      8.4166      8.5211      8.6376      8.7429      8.8161      8.8423    
  8.8161      8.7429      8.6376      8.5211      8.4166      8.3446      8.3190      8.3446      8.4166      8.5211    
  8.6376      8.7429      8.8161      8.8423      8.8161      8.7429      8.6376      8.5211      8.4166      8.3446    
  8.4219      8.4464      8.5149      8.6135      8.7221      8.8185      8.8828      8.9012      8.8688      8.7902    
  8.6796      8.5576      8.4478      8.3718      8.3446      8.3718      8.4478      8.5576      8.6796      8.7902    
  8.8688      8.9012      8.8828      8.8185      8.7221      8.6135      8.5149      8.4464      8.8198      8.8385    
  8.8894      8.9593      9.0302      9.0845      9.1077      9.0904      9.0294      8.9284      8.7988      8.6596    
  8.5347      8.4478      8.4166      8.4478      8.5347      8.6596      8.7988      8.9284      9.0294      9.0904    
  9.1077      9.0845      9.0302      8.9593      8.8894      8.8385      9.8009      9.8010      9.7970      9.7787    
  9.7367      9.6670      9.5706      9.4509      9.3100      9.1505      8.9786      8.8080      8.6596      8.5576    
  8.5211      8.5576      8.6596      8.8080      8.9786      9.1505      9.3100      9.4509      9.5706      9.6670    
  9.7367      9.7787      9.7970      9.8010      11.916      11.864      11.716      11.482      11.167      10.801    
  10.422      10.064      9.7414      9.4554      9.2010      8.9786      8.7988      8.6796      8.6376      8.6796    
  8.7988      8.9786      9.2010      9.4554      9.7414      10.064      10.422      10.801      11.167      11.482    
  11.716      11.864      16.853      16.609      15.927      14.948      13.869      12.847      11.898      11.061    
  10.383      9.8568      9.4554      9.1505      8.9284      8.7902      8.7429      8.7902      8.9284      9.1505    
  9.4554      9.8568      10.383      11.061      11.898      12.847      13.869      14.948      15.927      16.609    
  27.833      27.176      25.309      22.561      19.456      16.578      14.306      12.613      11.315      10.383    
  9.7414      9.3100      9.0294      8.8688      8.8161      8.8688      9.0294      9.3100      9.7414      10.383    
  11.315      12.613      14.306      16.578      19.456      22.561      25.309      27.176      47.840      46.505    
  42.673      36.907      30.183      23.703      18.478      14.904      12.613      11.061      10.064      9.4509    
  9.0904      8.9012      8.8423      8.9012      9.0904      9.4509      10.064      11.061      12.613      14.904    
  18.478      23.703      30.183      36.907      42.673      46.505      78.311      76.014      69.391      59.313    
  47.328      35.431      25.473      18.478      14.306      11.898      10.422      9.5706      9.1077      8.8828    
  8.8161      8.8828      9.1077      9.5706      10.422      11.898      14.306      18.478      25.473      35.431    
  47.328      59.313      69.391      76.014      118.18      114.65      104.47      88.952      70.344      51.569    
  35.431      23.703      16.578      12.847      10.801      9.6670      9.0845      8.8185      8.7429      8.8185    
  9.0845      9.6670      10.801      12.847      16.578      23.703      35.431      51.569      70.344      88.952    
  104.47      114.65      163.70      158.73      144.44      122.74      96.734      70.344      47.328      30.183    
  19.456      13.869      11.167      9.7367      9.0302      8.7221      8.6376      8.7221      9.0302      9.7367    
  11.167      13.869      19.456      30.183      47.328      70.344      96.734      122.74      144.44      158.73    
  209.15      202.66      184.09      156.08      122.74      88.952      59.313      36.907      22.561      14.948    
  11.482      9.7787      8.9593      8.6135      8.5211      8.6135      8.9593      9.7787      11.482      14.948    
  22.561      36.907      59.313      88.952      122.74      156.08      184.09      202.66      247.99      240.10    
  217.66      184.09      144.44      104.47      69.391      42.673      25.309      15.927      11.716      9.7970    
  8.8894      8.5149      8.4166      8.5149      8.8894      9.7970      11.716      15.927      25.309      42.673    
  69.391      104.47      144.44      184.09      217.66      240.10      274.17      265.29      240.10      202.66    
  158.73      114.65      76.014      46.505      27.176      16.609      11.864      9.8010      8.8385      8.4464    
  8.3446      8.4464      8.8385      9.8010      11.864      16.609      27.176      46.505      76.014      114.65    
  158.73      202.66      240.10      265.29      274.17      265.29      240.10      202.66      158.73      114.65    
  76.014      46.505      27.176      16.609      11.864      9.8010      8.8385      8.4464      8.3446      8.4464    
  8.8385      9.8010      11.864      16.609      27.176      46.505      76.014      114.65      158.73      202.66    
  240.10      265.29      265.29      256.75      232.51      196.38      153.91      111.22      73.780      45.209    
  26.543      16.378      11.817      9.8033      8.8589      8.4725      8.3718      8.4725      8.8589      9.8033    
  11.817      16.378      26.543      45.209      73.780      111.22      153.91      196.38      232.51      256.75    
  240.10      232.51      210.86      178.42      140.05      101.33      67.341      41.495      24.748      15.732    
  11.681      9.8053      8.9145      8.5451      8.4478      8.5451      8.9145      9.8053      11.681      15.732    
  24.748      41.495      67.341      101.33      140.05      178.42      210.86      232.51      202.66      196.38    
  178.42      151.30      118.99      86.255      57.564      35.922      22.111      14.807      11.462      9.7956    
  8.9907      8.6492      8.5576      8.6492      8.9907      9.7956      11.462      14.807      22.111      35.922    
  57.564      86.255      118.99      151.30      178.42      196.38      158.73      153.91      140.05      118.99    
  93.777      68.215      45.966      29.444      19.144      13.787      11.164      9.7633      9.0684      8.7636    
  8.6796      8.7636      9.0684      9.7633      11.164      13.787      19.144      29.444      45.966      68.215    
  93.777      118.99      140.05      153.91      114.65      111.22      101.33      86.255      68.215      50.054    
  34.492      23.225      16.401      12.811      10.814      9.7032      9.1293      8.8655      8.7902      8.8655    
  9.1293      9.7032      10.814      12.811      16.401      23.225      34.492      50.054      68.215      86.255    
  101.33      111.22      76.014      73.780      67.341      57.564      45.966      34.492      24.925      18.229    
  14.233      11.893      10.452      9.6161      9.1589      8.9353      8.8688      8.9353      9.1589      9.6161    
  10.452      11.893      14.233      18.229      24.925      34.492      45.966      57.564      67.341      73.780    
  46.505      45.209      41.495      35.922      29.444      23.225      18.229      14.812      12.595      11.084    
  10.108      9.5052      9.1485      8.9602      8.9012      8.9602      9.1485      9.5052      10.108      11.084    
  12.595      14.812      18.229      23.225      29.444      35.922      41.495      45.209      27.176      26.543    
  24.748      22.111      19.144      16.401      14.233      12.595      11.334      10.425      9.7976      9.3730    
  9.0952      8.9353      8.8828      8.9353      9.0952      9.3730      9.7976      10.425      11.334      12.595    
  14.233      16.401      19.144      22.111      24.748      26.543      16.609      16.378      15.732      14.807    
  13.787      12.811      11.893      11.084      10.425      9.9135      9.5214      9.2218      9.0025      8.8655    
  8.8185      8.8655      9.0025      9.2218      9.5214      9.9135      10.425      11.084      11.893      12.811    
  13.787      14.807      15.732      16.378      11.864      11.817      11.681      11.462      11.164      10.814    
  10.452      10.108      9.7976      9.5214      9.2745      9.0574      8.8811      8.7636      8.7221      8.7636    
  8.8811      9.0574      9.2745      9.5214      9.7976      10.108      10.452      10.814      11.164      11.462    
  11.681      11.817      9.8010      9.8033      9.8053      9.7956      9.7633      9.7032      9.6161      9.5052    
  9.3730      9.2218      9.0574      8.8929      8.7489      8.6492      8.6135      8.6492      8.7488      8.8929    
  9.0574      9.2218      9.3730      9.5052      9.6161      9.7032      9.7633      9.7956      9.8053      9.8033    
  8.8385      8.8589      8.9145      8.9907      9.0684      9.1293      9.1589      9.1485      9.0952      9.0025    
  8.8811      8.7489      8.6290      8.5451      8.5149      8.5451      8.6290      8.7488      8.8811      9.0025    
  9.0952      9.1485      9.1589      9.1293      9.0684      8.9907      8.9145      8.8589      8.4464      8.4725    
  8.5451      8.6492      8.7636      8.8655      8.9353      8.9602      8.9353      8.8655      8.7636      8.6492    
  8.5451      8.4725      8.4464      8.4725      8.5451      8.6492      8.7636      8.8655      8.9353      8.9602    
  8.9353      8.8655      8.7636      8.6492      8.5451      8.4725      8.3446      8.3718      8.4478      8.5576    
  8.6796      8.7902      8.8688      8.9012      8.8828      8.8185      8.7221      8.6135      8.5149      8.4464    
  8.4219      8.4464      8.5149      8.6135      8.7221      8.8185      8.8828      8.9012      8.8688      8.7902    
  8.6796      8.5576      8.4478      8.3718      8.4464      8.4725      8.5451      8.6492      8.7636      8.8655    
  8.9353      8.9602      8.9353      8.8655      8.7636      8.6492      8.5451      8.4725      8.4464      8.4725    
  8.5451      8.6492      8.7636      8.8655      8.9353      8.9602      8.9353      8.8655      8.7636      8.6492    
  8.5451      8.4725      8.8385      8.8589      8.9145      8.9907      9.0684      9.1293      9.1589      9.1485    
  9.0952      9.0025      8.8811      8.7488      8.6290      8.5451      8.5149      8.5451      8.6290      8.7489    
  8.8811      9.0025      9.0952      9.1485      9.1589      9.1293      9.0684      8.9907      8.9145      8.8589    
  9.8010      9.8033      9.8053      9.7956      9.7633      9.7032      9.6161      9.5052      9.3730      9.2218    
  9.0574      8.8929      8.7488      8.6492      8.6135      8.6492      8.7489      8.8929      9.0574      9.2218    
  9.3730      9.5052      9.6161      9.7032      9.7633      9.7956      9.8053      9.8033      11.864      11.817    
  11.681      11.462      11.164      10.814      10.452      10.108      9.7976      9.5214      9.2745      9.0574    
  8.8811      8.7636      8.7221      8.7636      8.8811      9.0574      9.2745      9.5214      9.7976      10.108    
  10.452      10.814      11.164      11.462      11.681      11.817      16.609      16.378      15.732      14.807    
  13.787      12.811      11.893      11.084      10.425      9.9135      9.5214      9.2218      9.0025      8.8655    
  8.8185      8.8655      9.0025      9.2218      9.5214      9.9135      10.425      11.084      11.893      12.811    
  13.787      14.807      15.732      16.378      27.176      26.543      24.748      22.111      19.144      16.401    
  14.233      12.595      11.334      10.425      9.7976      9.3730      9.0952      8.9353      8.8828      8.9353    
  9.0952      9.3730      9.7976      10.425      11.334      12.595      14.233      16.401      19.144      22.111    
  24.748      26.543      46.505      45.209      41.495      35.922      29.444      23.225      18.229      14.812    
  12.595      11.084      10.108      9.5052      9.1485      8.9602      8.9012      8.9602      9.1485      9.5052    
  10.108      11.084      12.595      14.812      18.229      23.225      29.444      35.922      41.495      45.209    
  76.014      73.780      67.341      57.564      45.966      34.492      24.925      18.229      14.233      11.893    
  10.452      9.6161      9.1589      8.9353      8.8688      8.9353      9.1589      9.6161      10.452      11.893    
  14.233      18.229      24.925      34.492      45.966      57.564      67.341      73.780      114.65      111.22    
  101.33      86.255      68.215      50.054      34.492      23.225      16.401      12.811      10.814      9.7032    
  9.1293      8.8655      8.7902      8.8655      9.1293      9.7032      10.814      12.811      16.401      23.225    
  34.492      50.054      68.215      86.255      101.33      111.22      158.73      153.91      140.05      118.99    
  93.777      68.215      45.966      29.444      19.144      13.787      11.164      9.7633      9.0684      8.7636    
  8.6796      8.7636      9.0684      9.7633      11.164      13.787      19.144      29.444      45.966      68.215    
  93.777      118.99      140.05      153.91      202.66      196.38      178.42      151.30      118.99      86.255    
  57.564      35.922      22.111      14.807      11.462      9.7956      8.9907      8.6492      8.5576      8.6492    
  8.9907      9.7956      11.462      14.807      22.111      35.922      57.564      86.255      118.99      151.30    
  178.42      196.38      240.10      232.51      210.86      178.42      140.05      101.33      67.341      41.495    
  24.748      15.732      11.681      9.8053      8.9145      8.5451      8.4478      8.5451      8.9145      9.8053    
  11.681      15.732      24.748      41.495      67.341      101.33      140.05      178.42      210.86      232.51    
  265.29      256.75      232.51      196.38      153.91      111.22      73.780      45.209      26.543      16.378    
  11.817      9.8033      8.8589      8.4725      8.3718      8.4725      8.8589      9.8033      11.817      16.378    
  26.543      45.209      73.780      111.22      153.91      196.38      232.51      256.75      247.99      240.10    
  217.66      184.09      144.44      104.47      69.391      42.673      25.309      15.927      11.716      9.7970    
  8.8894      8.5149      8.4166      8.5149      8.8894      9.7970      11.716      15.927      25.309      42.673    
  69.391      104.47      144.44      184.09      217.66      240.10      240.10      232.51      210.86      178.42    
  140.05      101.33      67.341      41.495      24.748      15.732      11.681      9.8053      8.9145      8.5451    
  8.4478      8.5451      8.9145      9.8053      11.681      15.732      24.748      41.495      67.341      101.33    
  140.05      178.42      210.86      232.51      217.66      210.86      191.42      162.16      127.42      92.271    
  61.453      38.133      23.162      15.191      11.577      9.8241      8.9828      8.6290      8.5347      8.6290    
  8.9828      9.8241      11.577      15.191      23.162      38.133      61.453      92.271      127.42      162.16    
  191.42      210.86      184.09      178.42      162.16      137.57      108.23      78.513      52.562      33.125    
  20.851      14.416      11.397      9.8390      9.0771      8.7489      8.6596      8.7489      9.0771      9.8390    
  11.397      14.416      20.851      33.125      52.562      78.513      108.23      137.57      162.16      178.42    
  144.44      140.05      127.42      108.23      85.291      62.128      42.098      27.361      18.275      13.556    
  11.147      9.8357      9.1757      8.8811      8.7988      8.8811      9.1757      9.8357      11.147      13.556    
  18.275      27.361      42.098      62.128      85.291      108.23      127.42      140.05      104.47      101.33    
  92.271      78.513      62.128      45.750      31.847      21.891      15.911      12.704      10.850      9.8067    
  9.2589      9.0025      8.9284      9.0025      9.2589      9.8067      10.850      12.704      15.911      21.891    
  31.847      45.750      62.128      78.513      92.271      101.33      69.391      67.341      61.453      52.562    
  42.098      31.847      23.396      17.541      14.026      11.879      10.540      9.7520      9.3136      9.0952    
  9.0294      9.0952      9.3136      9.7520      10.540      11.879      14.026      17.541      23.396      31.847    
  42.098      52.562      61.453      67.341      42.673      41.495      38.133      33.125      27.361      21.891    
  17.541      14.557      12.545      11.152      10.244      9.6751      9.3324      9.1485      9.0904      9.1485    
  9.3324      9.6751      10.244      11.152      12.545      14.557      17.541      21.891      27.361      33.125    
  38.133      41.495      25.309      24.748      23.162      20.851      18.275      15.911      14.026      12.545    
  11.394      10.559      9.9777      9.5787      9.3136      9.1589      9.1077      9.1589      9.3136      9.5787    
  9.9777      10.559      11.394      12.545      14.026      15.911      18.275      20.851      23.162      24.748    
  15.927      15.732      15.191      14.416      13.556      12.704      11.879      11.152      10.559      10.097    
  9.7401      9.4640      9.2589      9.1293      9.0845      9.1293      9.2589      9.4640      9.7401      10.097    
  10.559      11.152      11.879      12.704      13.556      14.416      15.191      15.732      11.716      11.681    
  11.577      11.397      11.147      10.850      10.540      10.244      9.9777      9.7401      9.5258      9.3342    
  9.1757      9.0684      9.0302      9.0684      9.1757      9.3342      9.5258      9.7401      9.9777      10.244    
  10.540      10.850      11.147      11.397      11.577      11.681      9.7970      9.8053      9.8241      9.8390    
  9.8357      9.8067      9.7520      9.6751      9.5787      9.4640      9.3342      9.1993      9.0771      8.9907    
  8.9593      8.9907      9.0771      9.1993      9.3342      9.4640      9.5787      9.6751      9.7520      9.8067    
  9.8357      9.8390      9.8241      9.8053      8.8894      8.9145      8.9828      9.0771      9.1757      9.2589    
  9.3136      9.3324      9.3136      9.2589      9.1757      9.0771      8.9828      8.9145      8.8894      8.9145    
  8.9828      9.0771      9.1757      9.2589      9.3136      9.3324      9.3136      9.2589      9.1757      9.0771    
  8.9828      8.9145      8.5149      8.5451      8.6290      8.7489      8.8811      9.0025      9.0952      9.1485    
  9.1589      9.1293      9.0684      8.9907      8.9145      8.8589      8.8385      8.8589      8.9145      8.9907    
  9.0684      9.1293      9.1589      9.1485      9.0952      9.0025      8.8811      8.7488      8.6290      8.5451    
  8.4166      8.4478      8.5347      8.6596      8.7988      8.9284      9.0294      9.0904      9.1077      9.0845    
  9.0302      8.9593      8.8894      8.8385      8.8198      8.8385      8.8894      8.9593      9.0302      9.0845    
  9.1077      9.0904      9.0294      8.9284      8.7988      8.6596      8.5347      8.4478      8.5149      8.5451    
  8.6290      8.7489      8.8811      9.0025      9.0952      9.1485      9.1589      9.1293      9.0684      8.9907    
  8.9145      8.8589      8.8385      8.8589      8.9145      8.9907      9.0684      9.1293      9.1589      9.1485    
  9.0952      9.0025      8.8811      8.7488      8.6290      8.5451      8.8894      8.9145      8.9828      9.0771    
  9.1757      9.2589      9.3136      9.3324      9.3136      9.2589      9.1757      9.0771      8.9828      8.9145    
  8.8894      8.9145      8.9828      9.0771      9.1757      9.2589      9.3136      9.3324      9.3136      9.2589    
  9.1757      9.0771      8.9828      8.9145      9.7970      9.8053      9.8241      9.8390      9.8357      9.8067    
  9.7520      9.6751      9.5787      9.4640      9.3342      9.1993      9.0771      8.9907      8.9593      8.9907    
  9.0771      9.1993      9.3342      9.4640      9.5787      9.6751      9.7520      9.8067      9.8357      9.8390    
  9.8241      9.8053      11.716      11.681      11.577      11.397      11.147      10.850      10.540      10.244    
  9.9777      9.7401      9.5258      9.3342      9.1757      9.0684      9.0302      9.0684      9.1757      9.3342    
  9.5258      9.7401      9.9777      10.244      10.540      10.850      11.147      11.397      11.577      11.681    
  15.927      15.732      15.191      14.416      13.556      12.704      11.879      11.152      10.559      10.097    
  9.7401      9.4640      9.2589      9.1293      9.0845      9.1293      9.2589      9.4640      9.7401      10.097    
  10.559      11.152      11.879      12.704      13.556      14.416      15.191      15.732      25.309      24.748    
  23.162      20.851      18.275      15.911      14.026      12.545      11.394      10.559      9.9777      9.5787    
  9.3136      9.1589      9.1077      9.1589      9.3136      9.5787      9.9777      10.559      11.394      12.545    
  14.026      15.911      18.275      20.851      23.162      24.748      42.673      41.495      38.133      33.125    
  27.361      21.891      17.541      14.557      12.545      11.152      10.244      9.6751      9.3324      9.1485    
  9.0904      9.1485      9.3324      9.6751      10.244      11.152      12.545      14.557      17.541      21.891    
  27.361      33.125      38.133      41.495      69.391      67.341      61.453      52.562      42.098      31.847    
  23.396      17.541      14.026      11.879      10.540      9.7520      9.3136      9.0952      9.0294      9.0952    
  9.3136      9.7520      10.540      11.879      14.026      17.541      23.396      31.847      42.098      52.562    
  61.453      67.341      104.47      101.33      92.271      78.513      62.128      45.750      31.847      21.891    
  15.911      12.704      10.850      9.8067      9.2589      9.0025      8.9284      9.0025      9.2589      9.8067    
  10.850      12.704      15.911      21.891      31.847      45.750      62.128      78.513      92.271      101.33    
  144.44      140.05      127.42      108.23      85.291      62.128      42.098      27.361      18.275      13.556    
  11.147      9.8357      9.1757      8.8811      8.7988      8.8811      9.1757      9.8357      11.147      13.556    
  18.275      27.361      42.098      62.128      85.291      108.23      127.42      140.05      184.09      178.42    
  162.16      137.57      108.23      78.513      52.562      33.125      20.851      14.416      11.397      9.8390    
  9.0771      8.7488      8.6596      8.7488      9.0771      9.8390      11.397      14.416      20.851      33.125    
  52.562      78.513      108.23      137.57      162.16      178.42      217.66      210.86      191.42      162.16    
  127.42      92.271      61.453      38.133      23.162      15.191      11.577      9.8241      8.9828      8.6290    
  8.5347      8.6290      8.9828      9.8241      11.577      15.191      23.162      38.133      61.453      92.271    
  127.42      162.16      191.42      210.86      240.10      232.51      210.86      178.42      140.05      101.33    
  67.341      41.495      24.748      15.732      11.681      9.8053      8.9145      8.5451      8.4478      8.5451    
  8.9145      9.8053      11.681      15.732      24.748      41.495      67.341      101.33      140.05      178.42    
  210.86      232.51      209.15      202.66      184.09      156.08      122.74      88.952      59.313      36.907    
  22.561      14.948      11.482      9.7787      8.9593      8.6135      8.5211      8.6135      8.9593      9.7787    
  11.482      14.948      22.561      36.907      59.313      88.952      122.74      156.08      184.09      202.66    
  202.66      196.38      178.42      151.30      118.99      86.255      57.564      35.922      22.111      14.807    
  11.462      9.7956      8.9907      8.6492      8.5576      8.6492      8.9907      9.7956      11.462      14.807    
  22.111      35.922      57.564      86.255      118.99      151.30      178.42      196.38      184.09      178.42    
  162.16      137.57      108.23      78.513      52.562      33.125      20.851      14.416      11.397      9.8390    
  9.0771      8.7489      8.6596      8.7489      9.0771      9.8390      11.397      14.416      20.851      33.125    
  52.562      78.513      108.23      137.57      162.16      178.42      156.08      151.30      137.57      116.75    
  91.909      66.819      45.076      29.007      19.036      13.854      11.278      9.8919      9.1993      8.8929    