W                                       
   1.00000000000000     
     3.189680    0.000000    0.000000
     0.000000    3.189680    0.000000
     0.000000    0.000000    3.189680
   W 
     2
Direct
  0.000000  0.000000  0.000000
  0.500000  0.500000  0.500000
 
   28   28   28
 0.28341279645E+03 0.27416932830E+03 0.24798890544E+03 0.20915038628E+03 0.16369698524E+03
 0.11817511659E+03 0.78311050520E+02 0.47840272705E+02 0.27832918775E+02 0.16853276562E+02
 0.11915578507E+02 0.98008544587E+01 0.88198401112E+01 0.84219018967E+01 0.83189713379E+01
 0.84219018967E+01 0.88198401112E+01 0.98008544587E+01 0.11915578507E+02 0.16853276562E+02
 0.27832918775E+02 0.47840272705E+02 0.78311050520E+02 0.11817511659E+03 0.16369698524E+03
 0.20915038628E+03 0.24798890544E+03 0.27416932830E+03 0.27416932830E+03 0.26528890397E+03
 0.24010373302E+03 0.20265870962E+03 0.15872888854E+03 0.11464791029E+03 0.76014383351E+02
 0.46504983830E+02 0.27175775626E+02 0.16609276655E+02 0.11864070275E+02 0.98009937427E+01
 0.88384944771E+01 0.84464101513E+01 0.83446223951E+01 0.84464098869E+01 0.88384939780E+01
 0.98009930344E+01 0.11864069339E+02 0.16609275436E+02 0.27175774125E+02 0.46504982252E+02
 0.76014382178E+02 0.11464791013E+03 0.15872888976E+03 0.20265871200E+03 0.24010373566E+03
 0.26528890570E+03 0.24798890544E+03 0.24010373303E+03 0.21765954907E+03 0.18408690501E+03
 0.14444392843E+03 0.10447312208E+03 0.69390783497E+02 0.42672856228E+02 0.25309418911E+02
 0.15926613371E+02 0.11715977736E+02 0.97970123121E+01 0.88894481712E+01 0.85149372927E+01
 0.84166447915E+01 0.85149368319E+01 0.88894473054E+01 0.97970111015E+01 0.11715976184E+02
 0.15926611428E+02 0.25309416609E+02 0.42672853893E+02 0.69390781850E+02 0.10447312200E+03
 0.14444393044E+03 0.18408690871E+03 0.21765955311E+03 0.24010373566E+03 0.20915038628E+03
 0.20265870963E+03 0.18408690502E+03 0.15607909468E+03 0.12273749526E+03 0.88952214119E+02
 0.59313182645E+02 0.36907360278E+02 0.22560632432E+02 0.14947651592E+02 0.11481805620E+02
 0.97787425143E+01 0.89592941958E+01 0.86135192938E+01 0.85211034848E+01 0.86135187450E+01
 0.89592931710E+01 0.97787411135E+01 0.11481803913E+02 0.14947649610E+02 0.22560630273E+02
 0.36907358271E+02 0.59313181416E+02 0.88952214379E+02 0.12273749735E+03 0.15607909818E+03
 0.18408690870E+03 0.20265871199E+03 0.16369698524E+03 0.15872888856E+03 0.14444392845E+03
 0.12273749527E+03 0.96733906452E+02 0.70344417474E+02 0.47328292826E+02 0.30183487375E+02
 0.19456374782E+02 0.13869499158E+02 0.11167395341E+02 0.97367367958E+01 0.90302276346E+01
 0.87220774747E+01 0.86375612774E+01 0.87220769452E+01 0.90302266505E+01 0.97367354863E+01
 0.11167393855E+02 0.13869497642E+02 0.19456373408E+02 0.30183486384E+02 0.47328292520E+02
 0.70344418092E+02 0.96733907981E+02 0.12273749734E+03 0.14444393042E+03 0.15872888975E+03
 0.11817511659E+03 0.11464791031E+03 0.10447312210E+03 0.88952214137E+02 0.70344417482E+02
 0.51568531175E+02 0.35431421822E+02 0.23703032772E+02 0.16578134558E+02 0.12846684016E+02
 0.10801054355E+02 0.96669559738E+01 0.90844956700E+01 0.88184554059E+01 0.87429391407E+01
 0.88184549641E+01 0.90844948489E+01 0.96669549075E+01 0.10801053244E+02 0.12846683098E+02
 0.16578134050E+02 0.23703032796E+02 0.35431422326E+02 0.51568531907E+02 0.70344418086E+02
 0.88952214363E+02 0.10447312198E+03 0.11464791012E+03 0.78311050520E+02 0.76014383363E+02
 0.69390783516E+02 0.59313182661E+02 0.47328292836E+02 0.35431421825E+02 0.25473086462E+02
 0.18478249124E+02 0.14306302071E+02 0.11897604497E+02 0.10422280953E+02 0.95706316252E+01
 0.91076751404E+01 0.88827699534E+01 0.88161077235E+01 0.88827696110E+01 0.91076744996E+01
 0.95706308039E+01 0.10422280160E+02 0.11897603995E+02 0.14306302078E+02 0.18478249664E+02
 0.25473087253E+02 0.35431422325E+02 0.47328292515E+02 0.59313181404E+02 0.69390781834E+02
 0.76014382167E+02 0.47840272705E+02 0.46504983837E+02 0.42672856239E+02 0.36907360289E+02
 0.30183487382E+02 0.23703032776E+02 0.18478249125E+02 0.14903521541E+02 0.12612504477E+02
 0.11061453011E+02 0.10063809009E+02 0.94508594782E+01 0.90904250268E+01 0.89012282016E+01
 0.88422688816E+01 0.89012279208E+01 0.90904244972E+01 0.94508587980E+01 0.10063808364E+02
 0.11061452635E+02 0.12612504545E+02 0.14903522017E+02 0.18478249666E+02 0.23703032798E+02
 0.30183486383E+02 0.36907358266E+02 0.42672853885E+02 0.46504982246E+02 0.27832918775E+02
 0.27175775629E+02 0.25309418916E+02 0.22560632438E+02 0.19456374786E+02 0.16578134561E+02
 0.14306302073E+02 0.12612504478E+02 0.11315183966E+02 0.10382543140E+02 0.97413845368E+01
 0.93099822867E+01 0.90294456350E+01 0.88687812007E+01 0.88161077237E+01 0.88687809210E+01
 0.90294451120E+01 0.93099816139E+01 0.97413838721E+01 0.10382542665E+02 0.11315183794E+02
 0.12612504546E+02 0.14306302082E+02 0.16578134054E+02 0.19456373412E+02 0.22560630275E+02
 0.25309416607E+02 0.27175774123E+02 0.16853276562E+02 0.16609276655E+02 0.15926613372E+02
 0.14947651594E+02 0.13869499160E+02 0.12846684018E+02 0.11897604498E+02 0.11061453012E+02
 0.10382543140E+02 0.98567687600E+01 0.94553980240E+01 0.91504607295E+01 0.89284200262E+01
 0.87902316027E+01 0.87429391410E+01 0.87902312766E+01 0.89284194295E+01 0.91504599725E+01
 0.94553972522E+01 0.98567681077E+01 0.10382542665E+02 0.11061452637E+02 0.11897603999E+02
 0.12846683103E+02 0.13869497648E+02 0.14947649615E+02 0.15926611430E+02 0.16609275437E+02
 0.11915578507E+02 0.11864070274E+02 0.11715977736E+02 0.11481805620E+02 0.11167395342E+02
 0.10801054356E+02 0.10422280954E+02 0.10063809010E+02 0.97413845377E+01 0.94553980244E+01
 0.92009776268E+01 0.89785845057E+01 0.87988313158E+01 0.86795821399E+01 0.86375612777E+01
 0.86795817600E+01 0.87988306353E+01 0.89785836607E+01 0.92009767653E+01 0.94553972523E+01
 0.97413838727E+01 0.10063808365E+02 0.10422280163E+02 0.10801053249E+02 0.11167393860E+02
 0.11481803917E+02 0.11715976187E+02 0.11864069340E+02 0.98008544587E+01 0.98009937421E+01
 0.97970123113E+01 0.97787425137E+01 0.97367367958E+01 0.96669559744E+01 0.95706316263E+01
 0.94508594793E+01 0.93099822875E+01 0.91504607299E+01 0.89785845059E+01 0.88079607099E+01
 0.86596337728E+01 0.85575872701E+01 0.85211034850E+01 0.85575868775E+01 0.86596330799E+01
 0.88079598664E+01 0.89785836605E+01 0.91504599723E+01 0.93099816141E+01 0.94508587991E+01
 0.95706308061E+01 0.96669549108E+01 0.97367354900E+01 0.97787411170E+01 0.97970111039E+01
 0.98009930355E+01 0.88198401112E+01 0.88384944767E+01 0.88894481707E+01 0.89592941955E+01
 0.90302276347E+01 0.90844956704E+01 0.91076751411E+01 0.90904250275E+01 0.90294456355E+01
 0.89284200264E+01 0.87988313159E+01 0.86596337728E+01 0.85346836469E+01 0.84477909380E+01
 0.84166447916E+01 0.84477906076E+01 0.85346830691E+01 0.86596330797E+01 0.87988306350E+01
 0.89284194291E+01 0.90294451118E+01 0.90904244976E+01 0.91076745007E+01 0.90844948507E+01
 0.90302266526E+01 0.89592931729E+01 0.88894473067E+01 0.88384939786E+01 0.84219018967E+01
 0.84464101512E+01 0.85149372926E+01 0.86135192937E+01 0.87220774749E+01 0.88184554063E+01
 0.88827699538E+01 0.89012282019E+01 0.88687812008E+01 0.87902316027E+01 0.86795821398E+01
 0.85575872700E+01 0.84477909379E+01 0.83717692807E+01 0.83446223951E+01 0.83717690909E+01
 0.84477906075E+01 0.85575868772E+01 0.86795817595E+01 0.87902312761E+01 0.88687809207E+01
 0.89012279208E+01 0.88827696114E+01 0.88184549648E+01 0.87220769461E+01 0.86135187458E+01
 0.85149368324E+01 0.84464098872E+01 0.83189713379E+01 0.83446223951E+01 0.84166447916E+01
 0.85211034850E+01 0.86375612777E+01 0.87429391410E+01 0.88161077237E+01 0.88422688816E+01
 0.88161077235E+01 0.87429391407E+01 0.86375612774E+01 0.85211034848E+01 0.84166447915E+01
 0.83446223951E+01 0.83189713379E+01 0.83446223951E+01 0.84166447915E+01 0.85211034848E+01
 0.86375612774E+01 0.87429391407E+01 0.88161077235E+01 0.88422688816E+01 0.88161077237E+01
 0.87429391410E+01 0.86375612777E+01 0.85211034850E+01 0.84166447916E+01 0.83446223951E+01
 0.84219018967E+01 0.84464098872E+01 0.85149368324E+01 0.86135187458E+01 0.87220769461E+01
 0.88184549648E+01 0.88827696114E+01 0.89012279208E+01 0.88687809207E+01 0.87902312761E+01
 0.86795817595E+01 0.85575868772E+01 0.84477906075E+01 0.83717690909E+01 0.83446223951E+01
 0.83717692807E+01 0.84477909379E+01 0.85575872700E+01 0.86795821398E+01 0.87902316027E+01
 0.88687812008E+01 0.89012282019E+01 0.88827699538E+01 0.88184554063E+01 0.87220774749E+01
 0.86135192937E+01 0.85149372926E+01 0.84464101512E+01 0.88198401112E+01 0.88384939786E+01
 0.88894473067E+01 0.89592931729E+01 0.90302266526E+01 0.90844948507E+01 0.91076745007E+01
 0.90904244976E+01 0.90294451118E+01 0.89284194291E+01 0.87988306350E+01 0.86596330797E+01
 0.85346830691E+01 0.84477906076E+01 0.84166447916E+01 0.84477909380E+01 0.85346836469E+01
 0.86596337728E+01 0.87988313159E+01 0.89284200264E+01 0.90294456355E+01 0.90904250275E+01
 0.91076751411E+01 0.90844956704E+01 0.90302276347E+01 0.89592941955E+01 0.88894481707E+01
 0.88384944767E+01 0.98008544587E+01 0.98009930355E+01 0.97970111039E+01 0.97787411170E+01
 0.97367354900E+01 0.96669549108E+01 0.95706308061E+01 0.94508587991E+01 0.93099816141E+01
 0.91504599723E+01 0.89785836605E+01 0.88079598664E+01 0.86596330799E+01 0.85575868775E+01
 0.85211034850E+01 0.85575872701E+01 0.86596337728E+01 0.88079607099E+01 0.89785845059E+01
 0.91504607299E+01 0.93099822875E+01 0.94508594793E+01 0.95706316263E+01 0.96669559744E+01
 0.97367367958E+01 0.97787425137E+01 0.97970123113E+01 0.98009937421E+01 0.11915578507E+02
 0.11864069340E+02 0.11715976187E+02 0.11481803917E+02 0.11167393860E+02 0.10801053249E+02
 0.10422280163E+02 0.10063808365E+02 0.97413838727E+01 0.94553972523E+01 0.92009767653E+01
 0.89785836607E+01 0.87988306353E+01 0.86795817600E+01 0.86375612777E+01 0.86795821399E+01
 0.87988313158E+01 0.89785845057E+01 0.92009776268E+01 0.94553980244E+01 0.97413845377E+01
 0.10063809010E+02 0.10422280954E+02 0.10801054356E+02 0.11167395342E+02 0.11481805620E+02
 0.11715977736E+02 0.11864070274E+02 0.16853276562E+02 0.16609275437E+02 0.15926611430E+02
 0.14947649615E+02 0.13869497648E+02 0.12846683103E+02 0.11897603999E+02 0.11061452637E+02
 0.10382542665E+02 0.98567681077E+01 0.94553972522E+01 0.91504599725E+01 0.89284194295E+01
 0.87902312766E+01 0.87429391410E+01 0.87902316027E+01 0.89284200262E+01 0.91504607295E+01
 0.94553980240E+01 0.98567687600E+01 0.10382543140E+02 0.11061453012E+02 0.11897604498E+02
 0.12846684018E+02 0.13869499160E+02 0.14947651594E+02 0.15926613372E+02 0.16609276655E+02
 0.27832918775E+02 0.27175774123E+02 0.25309416607E+02 0.22560630275E+02 0.19456373412E+02
 0.16578134054E+02 0.14306302082E+02 0.12612504546E+02 0.11315183794E+02 0.10382542665E+02
 0.97413838721E+01 0.93099816139E+01 0.90294451120E+01 0.88687809210E+01 0.88161077237E+01
 0.88687812007E+01 0.90294456350E+01 0.93099822867E+01 0.97413845368E+01 0.10382543140E+02
 0.11315183966E+02 0.12612504478E+02 0.14306302073E+02 0.16578134561E+02 0.19456374786E+02
 0.22560632438E+02 0.25309418916E+02 0.27175775629E+02 0.47840272705E+02 0.46504982246E+02
 0.42672853885E+02 0.36907358266E+02 0.30183486383E+02 0.23703032798E+02 0.18478249666E+02
 0.14903522017E+02 0.12612504545E+02 0.11061452635E+02 0.10063808364E+02 0.94508587980E+01
 0.90904244972E+01 0.89012279208E+01 0.88422688816E+01 0.89012282016E+01 0.90904250268E+01
 0.94508594782E+01 0.10063809009E+02 0.11061453011E+02 0.12612504477E+02 0.14903521541E+02
 0.18478249125E+02 0.23703032776E+02 0.30183487382E+02 0.36907360289E+02 0.42672856239E+02
 0.46504983837E+02 0.78311050520E+02 0.76014382167E+02 0.69390781834E+02 0.59313181404E+02
 0.47328292515E+02 0.35431422325E+02 0.25473087253E+02 0.18478249664E+02 0.14306302078E+02
 0.11897603995E+02 0.10422280160E+02 0.95706308039E+01 0.91076744996E+01 0.88827696110E+01
 0.88161077235E+01 0.88827699534E+01 0.91076751404E+01 0.95706316252E+01 0.10422280953E+02
 0.11897604497E+02 0.14306302071E+02 0.18478249124E+02 0.25473086462E+02 0.35431421825E+02
 0.47328292836E+02 0.59313182661E+02 0.69390783516E+02 0.76014383363E+02 0.11817511659E+03
 0.11464791012E+03 0.10447312198E+03 0.88952214363E+02 0.70344418086E+02 0.51568531907E+02
 0.35431422326E+02 0.23703032796E+02 0.16578134050E+02 0.12846683098E+02 0.10801053244E+02
 0.96669549075E+01 0.90844948489E+01 0.88184549641E+01 0.87429391407E+01 0.88184554059E+01
 0.90844956700E+01 0.96669559738E+01 0.10801054355E+02 0.12846684016E+02 0.16578134558E+02
 0.23703032772E+02 0.35431421822E+02 0.51568531175E+02 0.70344417482E+02 0.88952214137E+02
 0.10447312210E+03 0.11464791031E+03 0.16369698524E+03 0.15872888975E+03 0.14444393042E+03
 0.12273749734E+03 0.96733907981E+02 0.70344418092E+02 0.47328292520E+02 0.30183486384E+02
 0.19456373408E+02 0.13869497642E+02 0.11167393855E+02 0.97367354863E+01 0.90302266505E+01
 0.87220769452E+01 0.86375612774E+01 0.87220774747E+01 0.90302276346E+01 0.97367367958E+01
 0.11167395341E+02 0.13869499158E+02 0.19456374782E+02 0.30183487375E+02 0.47328292826E+02
 0.70344417474E+02 0.96733906452E+02 0.12273749527E+03 0.14444392845E+03 0.15872888856E+03
 0.20915038628E+03 0.20265871199E+03 0.18408690870E+03 0.15607909818E+03 0.12273749735E+03
 0.88952214379E+02 0.59313181416E+02 0.36907358271E+02 0.22560630273E+02 0.14947649610E+02
 0.11481803913E+02 0.97787411135E+01 0.89592931710E+01 0.86135187450E+01 0.85211034848E+01
 0.86135192938E+01 0.89592941958E+01 0.97787425143E+01 0.11481805620E+02 0.14947651592E+02
 0.22560632432E+02 0.36907360278E+02 0.59313182645E+02 0.88952214119E+02 0.12273749526E+03
 0.15607909468E+03 0.18408690502E+03 0.20265870963E+03 0.24798890544E+03 0.24010373566E+03
 0.21765955311E+03 0.18408690871E+03 0.14444393044E+03 0.10447312200E+03 0.69390781850E+02
 0.42672853893E+02 0.25309416609E+02 0.15926611428E+02 0.11715976184E+02 0.97970111015E+01
 0.88894473054E+01 0.85149368319E+01 0.84166447915E+01 0.85149372927E+01 0.88894481712E+01
 0.97970123121E+01 0.11715977736E+02 0.15926613371E+02 0.25309418911E+02 0.42672856228E+02
 0.69390783497E+02 0.10447312208E+03 0.14444392843E+03 0.18408690501E+03 0.21765954907E+03
 0.24010373303E+03 0.27416932830E+03 0.26528890570E+03 0.24010373566E+03 0.20265871200E+03
 0.15872888976E+03 0.11464791013E+03 0.76014382178E+02 0.46504982252E+02 0.27175774125E+02
 0.16609275436E+02 0.11864069339E+02 0.98009930344E+01 0.88384939780E+01 0.84464098869E+01
 0.83446223951E+01 0.84464101513E+01 0.88384944771E+01 0.98009937427E+01 0.11864070275E+02
 0.16609276655E+02 0.27175775626E+02 0.46504983830E+02 0.76014383351E+02 0.11464791029E+03
 0.15872888854E+03 0.20265870962E+03 0.24010373302E+03 0.26528890397E+03 0.27416932830E+03
 0.26528890397E+03 0.24010373303E+03 0.20265870963E+03 0.15872888856E+03 0.11464791031E+03
 0.76014383363E+02 0.46504983837E+02 0.27175775629E+02 0.16609276655E+02 0.11864070274E+02
 0.98009937421E+01 0.88384944767E+01 0.84464101512E+01 0.83446223951E+01 0.84464098872E+01
 0.88384939786E+01 0.98009930355E+01 0.11864069340E+02 0.16609275437E+02 0.27175774123E+02
 0.46504982246E+02 0.76014382167E+02 0.11464791012E+03 0.15872888975E+03 0.20265871199E+03
 0.24010373566E+03 0.26528890570E+03 0.26528890397E+03 0.25675049605E+03 0.23250527716E+03
 0.19638289149E+03 0.15390958096E+03 0.11121764417E+03 0.73779652090E+02 0.45209110499E+02
 0.26542784826E+02 0.16378201526E+02 0.11817285632E+02 0.98032946000E+01 0.88588658292E+01
 0.84724585386E+01 0.83717692807E+01 0.84724580455E+01 0.88588648974E+01 0.98032932804E+01
 0.11817283902E+02 0.16378199299E+02 0.26542782111E+02 0.45209107657E+02 0.73779649960E+02
 0.11121764381E+03 0.15390958301E+03 0.19638289555E+03 0.23250528170E+03 0.25675049903E+03
 0.24010373302E+03 0.23250527716E+03 0.21085526265E+03 0.17841738635E+03 0.14005104511E+03
 0.10132724806E+03 0.67341128306E+02 0.41495202190E+02 0.24747758336E+02 0.15732338010E+02
 0.11681427497E+02 0.98053034549E+01 0.89144674660E+01 0.85451133910E+01 0.84477909379E+01
 0.85451127612E+01 0.89144662776E+01 0.98053017912E+01 0.11681425380E+02 0.15732335402E+02
 0.24747755297E+02 0.41495199132E+02 0.67341126113E+02 0.10132724781E+03 0.14005104740E+03
 0.17841739072E+03 0.21085526746E+03 0.23250528030E+03 0.20265870962E+03 0.19638289149E+03
 0.17841738635E+03 0.15129892438E+03 0.11899280269E+03 0.86255372925E+02 0.57563633240E+02
 0.35921659345E+02 0.22111294824E+02 0.14807252930E+02 0.11461826506E+02 0.97955991238E+01
 0.89906731677E+01 0.86492318702E+01 0.85575872700E+01 0.86492312166E+01 0.89906719374E+01
 0.97955974349E+01 0.11461824468E+02 0.14807250630E+02 0.22111292411E+02 0.35921657174E+02
 0.57563631914E+02 0.86255373088E+02 0.11899280461E+03 0.15129892761E+03 0.17841738973E+03
 0.19638289364E+03 0.15872888854E+03 0.15390958096E+03 0.14005104512E+03 0.11899280270E+03
 0.93776569562E+02 0.68215039068E+02 0.45966384391E+02 0.29443612076E+02 0.19144086600E+02
 0.13787454330E+02 0.11163629341E+02 0.97632752729E+01 0.90684182272E+01 0.87635700844E+01
 0.86795821398E+01 0.87635695006E+01 0.90684171287E+01 0.97632738004E+01 0.11163627695E+02
 0.13787452745E+02 0.19144085320E+02 0.29443611329E+02 0.45966384335E+02 0.68215039699E+02
 0.93776570664E+02 0.11899280391E+03 0.14005104609E+03 0.15390958149E+03 0.11464791029E+03
 0.11121764417E+03 0.10132724807E+03 0.86255372935E+02 0.68215039073E+02 0.50053619929E+02
 0.34492377740E+02 0.23224533323E+02 0.16400895833E+02 0.12811090551E+02 0.10814427848E+02
 0.97031954412E+01 0.91292736258E+01 0.88654625250E+01 0.87902316027E+01 0.88654620575E+01
 0.91292727420E+01 0.97031942822E+01 0.10814426670E+02 0.12811089689E+02 0.16400895583E+02
 0.23224533781E+02 0.34492378661E+02 0.50053620747E+02 0.68215039178E+02 0.86255372098E+02
 0.10132724671E+03 0.11121764314E+03 0.76014383351E+02 0.73779652090E+02 0.67341128315E+02
 0.57563633250E+02 0.45966384398E+02 0.34492377743E+02 0.24924880430E+02 0.18228878575E+02
 0.14232617745E+02 0.11893133541E+02 0.10451977405E+02 0.96161323723E+01 0.91589119876E+01
 0.89353414923E+01 0.88687812008E+01 0.89353411318E+01 0.91589113007E+01 0.96161314847E+01
 0.10451976578E+02 0.11893133129E+02 0.14232618035E+02 0.18228879556E+02 0.24924881631E+02
 0.34492378321E+02 0.45966383585E+02 0.57563630959E+02 0.67341125432E+02 0.73779650086E+02
 0.46504983830E+02 0.45209110499E+02 0.41495202195E+02 0.35921659352E+02 0.29443612082E+02
 0.23224533327E+02 0.18228878577E+02 0.14811584866E+02 0.12594859130E+02 0.11083538987E+02
 0.10107915034E+02 0.95052335391E+01 0.91485324075E+01 0.89601543426E+01 0.89012282019E+01
 0.89601540356E+01 0.91485318237E+01 0.95052327919E+01 0.10107914359E+02 0.11083538691E+02
 0.12594859435E+02 0.14811585691E+02 0.18228879409E+02 0.23224533338E+02 0.29443610588E+02
 0.35921656393E+02 0.41495198790E+02 0.45209108210E+02 0.27175775626E+02 0.26542784826E+02
 0.24747758339E+02 0.22111294828E+02 0.19144086604E+02 0.16400895837E+02 0.14232617747E+02
 0.12594859131E+02 0.11333871089E+02 0.10425038469E+02 0.97975794923E+01 0.93730039976E+01
 0.90952323453E+01 0.89353414925E+01 0.88827699538E+01 0.89353411660E+01 0.90952317394E+01
 0.93730032354E+01 0.97975787826E+01 0.10425038048E+02 0.11333871089E+02 0.12594859429E+02
 0.14232617896E+02 0.16400895192E+02 0.19144084699E+02 0.22111291807E+02 0.24747755121E+02
 0.26542782733E+02 0.16609276655E+02 0.16378201526E+02 0.15732338011E+02 0.14807252932E+02
 0.13787454332E+02 0.12811090554E+02 0.11893133543E+02 0.11083538988E+02 0.10425038470E+02
 0.99135428514E+01 0.95213580476E+01 0.92217978134E+01 0.90025083376E+01 0.88654625253E+01
 0.88184554063E+01 0.88654621182E+01 0.90025076056E+01 0.92217969153E+01 0.95213571873E+01
 0.99135422060E+01 0.10425038093E+02 0.11083538731E+02 0.11893133049E+02 0.12811089392E+02
 0.13787452257E+02 0.14807250159E+02 0.15732335277E+02 0.16378199811E+02 0.11864070275E+02
 0.11817285632E+02 0.11681427497E+02 0.11461826507E+02 0.11163629343E+02 0.10814427850E+02
 0.10451977406E+02 0.10107915036E+02 0.97975794931E+01 0.95213580479E+01 0.92744622574E+01
 0.90574314784E+01 0.88810605512E+01 0.87635700845E+01 0.87220774749E+01 0.87635695754E+01
 0.88810596555E+01 0.90574304030E+01 0.92744612228E+01 0.95213572015E+01 0.97975788387E+01
 0.10107914410E+02 0.10451976525E+02 0.10814426438E+02 0.11163627311E+02 0.11461824096E+02
 0.11681425276E+02 0.11817284287E+02 0.98009937427E+01 0.98032946000E+01 0.98053034548E+01
 0.97955991240E+01 0.97632752735E+01 0.97031954421E+01 0.96161323734E+01 0.95052335400E+01
 0.93730039982E+01 0.92217978136E+01 0.90574314784E+01 0.88929015910E+01 0.87488506669E+01
 0.86492318702E+01 0.86135192937E+01 0.86492312909E+01 0.87488496591E+01 0.88929003974E+01
 0.90574303377E+01 0.92217968656E+01 0.93730032276E+01 0.95052327851E+01 0.96161314004E+01
 0.97031940651E+01 0.97632734782E+01 0.97955971377E+01 0.98053017079E+01 0.98032935696E+01
 0.88384944771E+01 0.88588658292E+01 0.89144674659E+01 0.89906731677E+01 0.90684182275E+01
 0.91292736264E+01 0.91589119882E+01 0.91485324080E+01 0.90952323455E+01 0.90025083376E+01
 0.88810605511E+01 0.87488506668E+01 0.86290107868E+01 0.85451133910E+01 0.85149372926E+01
 0.85451128209E+01 0.86290097988E+01 0.87488495029E+01 0.88810594446E+01 0.90025074222E+01
 0.90952316097E+01 0.91485317140E+01 0.91589111483E+01 0.91292725056E+01 0.90684168317E+01
 0.89906716761E+01 0.89144661864E+01 0.88588650859E+01 0.84464101513E+01 0.84724585386E+01
 0.85451133910E+01 0.86492318702E+01 0.87635700845E+01 0.88654625253E+01 0.89353414925E+01
 0.89601543426E+01 0.89353414923E+01 0.88654625250E+01 0.87635700844E+01 0.86492318702E+01
 0.85451133910E+01 0.84724585386E+01 0.84464101512E+01 0.84724580787E+01 0.85451125933E+01
 0.86492309286E+01 0.87635691870E+01 0.88654617835E+01 0.89353409079E+01 0.89601538229E+01
 0.89353409085E+01 0.88654617845E+01 0.87635691882E+01 0.86492309297E+01 0.85451125941E+01
 0.84724580791E+01 0.83446223951E+01 0.83717692807E+01 0.84477909380E+01 0.85575872701E+01
 0.86795821399E+01 0.87902316027E+01 0.88687812007E+01 0.89012282016E+01 0.88827699534E+01
 0.88184554059E+01 0.87220774747E+01 0.86135192938E+01 0.85149372927E+01 0.84464101513E+01
 0.84219018967E+01 0.84464098869E+01 0.85149368319E+01 0.86135187450E+01 0.87220769452E+01
 0.88184549641E+01 0.88827696110E+01 0.89012279208E+01 0.88687809210E+01 0.87902312766E+01
 0.86795817600E+01 0.85575868775E+01 0.84477906076E+01 0.83717690909E+01 0.84464098869E+01
 0.84724580455E+01 0.85451127615E+01 0.86492312171E+01 0.87635695010E+01 0.88654620577E+01
 0.89353411317E+01 0.89601540352E+01 0.89353411655E+01 0.88654621179E+01 0.87635695754E+01
 0.86492312912E+01 0.85451128214E+01 0.84724580791E+01 0.84464098872E+01 0.84724580455E+01
 0.85451127612E+01 0.86492312166E+01 0.87635695006E+01 0.88654620575E+01 0.89353411318E+01
 0.89601540356E+01 0.89353411660E+01 0.88654621182E+01 0.87635695754E+01 0.86492312909E+01
 0.85451128209E+01 0.84724580787E+01 0.88384939780E+01 0.88588648974E+01 0.89144662782E+01
 0.89906719385E+01 0.90684171299E+01 0.91292727430E+01 0.91589113012E+01 0.91485318236E+01
 0.90952317391E+01 0.90025076055E+01 0.88810596557E+01 0.87488496597E+01 0.86290097996E+01
 0.85451125941E+01 0.85149368324E+01 0.85451127615E+01 0.86290100935E+01 0.87488500155E+01
 0.88810600120E+01 0.90025079279E+01 0.90952320297E+01 0.91485321115E+01 0.91589116211E+01
 0.91292731134E+01 0.90684175394E+01 0.89906723424E+01 0.89144666087E+01 0.88588650848E+01
 0.98009930344E+01 0.98032932804E+01 0.98053017925E+01 0.97955974371E+01 0.97632738029E+01
 0.97031942844E+01 0.96161314861E+01 0.95052327924E+01 0.93730032355E+01 0.92217969154E+01
 0.90574304035E+01 0.88929003982E+01 0.87488495040E+01 0.86492309297E+01 0.86135187458E+01
 0.86492312171E+01 0.87488500156E+01 0.88929010320E+01 0.90574310571E+01 0.92217975211E+01
 0.93730037762E+01 0.95052332943E+01 0.96161319946E+01 0.97031948367E+01 0.97632744018E+01
 0.97955980341E+01 0.98053022909E+01 0.98032935678E+01 0.11864069339E+02 0.11817283902E+02
 0.11681425381E+02 0.11461824471E+02 0.11163627699E+02 0.10814426674E+02 0.10451976581E+02
 0.10107914361E+02 0.97975787831E+01 0.95213571876E+01 0.92744612235E+01 0.90574303387E+01
 0.88810594459E+01 0.87635691882E+01 0.87220769461E+01 0.87635695010E+01 0.88810600120E+01
 0.90574310569E+01 0.92744619823E+01 0.95213578988E+01 0.97975794043E+01 0.10107914901E+02
 0.10451977093E+02 0.10814427230E+02 0.11163628345E+02 0.11461825175E+02 0.11681426015E+02
 0.11817284285E+02 0.16609275436E+02 0.16378199299E+02 0.15732335403E+02 0.14807250634E+02
 0.13787452750E+02 0.12811089693E+02 0.11893133133E+02 0.11083538693E+02 0.10425038049E+02
 0.99135422064E+01 0.95213572020E+01 0.92217968664E+01 0.90025074232E+01 0.88654617845E+01
 0.88184549648E+01 0.88654620577E+01 0.90025079276E+01 0.92217975206E+01 0.95213578984E+01
 0.99135428376E+01 0.10425038541E+02 0.11083539039E+02 0.11893133409E+02 0.12811090044E+02
 0.13787453306E+02 0.14807251399E+02 0.15732336193E+02 0.16378199810E+02 0.27175774125E+02
 0.26542782111E+02 0.24747755297E+02 0.22111292414E+02 0.19144085325E+02 0.16400895589E+02
 0.14232618039E+02 0.12594859437E+02 0.11333871089E+02 0.10425038093E+02 0.97975788384E+01
 0.93730032277E+01 0.90952316101E+01 0.89353409085E+01 0.88827696114E+01 0.89353411317E+01
 0.90952320292E+01 0.93730037754E+01 0.97975794035E+01 0.10425038540E+02 0.11333871309E+02
 0.12594859405E+02 0.14232617874E+02 0.16400895535E+02 0.19144085633E+02 0.22111293141E+02
 0.24747756197E+02 0.26542782737E+02 0.46504982252E+02 0.45209107657E+02 0.41495199130E+02
 0.35921657173E+02 0.29443611332E+02 0.23224533785E+02 0.18228879560E+02 0.14811585693E+02
 0.12594859428E+02 0.11083538729E+02 0.10107914408E+02 0.95052327839E+01 0.91485317135E+01
 0.89601538229E+01 0.89012279208E+01 0.89601540352E+01 0.91485321108E+01 0.95052332933E+01
 0.10107914900E+02 0.11083539038E+02 0.12594859405E+02 0.14811585291E+02 0.18228878915E+02
 0.23224533214E+02 0.29443611183E+02 0.35921657582E+02 0.41495199862E+02 0.45209108223E+02
 0.76014382178E+02 0.73779649960E+02 0.67341126107E+02 0.57563631910E+02 0.45966384336E+02
 0.34492378665E+02 0.24924881635E+02 0.18228879409E+02 0.14232617893E+02 0.11893133046E+02
 0.10451976522E+02 0.96161313977E+01 0.91589111468E+01 0.89353409079E+01 0.88687809207E+01
 0.89353411655E+01 0.91589116204E+01 0.96161319939E+01 0.10451977093E+02 0.11893133408E+02
 0.14232617873E+02 0.18228878914E+02 0.24924880738E+02 0.34492377631E+02 0.45966383518E+02
 0.57563631543E+02 0.67341126140E+02 0.73779650108E+02 0.11464791013E+03 0.11121764381E+03
 0.10132724780E+03 0.86255373085E+02 0.68215039702E+02 0.50053620755E+02 0.34492378327E+02
 0.23224533338E+02 0.16400895189E+02 0.12811089387E+02 0.10814426432E+02 0.97031940611E+01
 0.91292725033E+01 0.88654617835E+01 0.87902312761E+01 0.88654621179E+01 0.91292731132E+01
 0.97031948367E+01 0.10814427230E+02 0.12811090044E+02 0.16400895534E+02 0.23224533211E+02
 0.34492377628E+02 0.50053619524E+02 0.68215038156E+02 0.86255371557E+02 0.10132724661E+03
 0.11121764317E+03 0.15872888976E+03 0.15390958301E+03 0.14005104740E+03 0.11899280462E+03
 0.93776570675E+02 0.68215039193E+02 0.45966383597E+02 0.29443610591E+02 0.19144084696E+02
 0.13787452251E+02 0.11163627304E+02 0.97632734736E+01 0.90684168290E+01 0.87635691870E+01
 0.86795817595E+01 0.87635695754E+01 0.90684175399E+01 0.97632744027E+01 0.11163628346E+02
 0.13787453306E+02 0.19144085630E+02 0.29443611176E+02 0.45966383508E+02 0.68215038147E+02
 0.93776568650E+02 0.11899280200E+03 0.14005104494E+03 0.15390958152E+03 0.20265871200E+03
 0.19638289555E+03 0.17841739072E+03 0.15129892762E+03 0.11899280393E+03 0.86255372123E+02
 0.57563630978E+02 0.35921656402E+02 0.22111291806E+02 0.14807250154E+02 0.11461824091E+02
 0.97955971334E+01 0.89906716736E+01 0.86492309286E+01 0.85575868772E+01 0.86492312912E+01
 0.89906723434E+01 0.97955980358E+01 0.11461825176E+02 0.14807251400E+02 0.22111293137E+02
 0.35921657570E+02 0.57563631523E+02 0.86255371535E+02 0.11899280199E+03 0.15129892468E+03
 0.17841738773E+03 0.19638289366E+03 0.24010373566E+03 0.23250528170E+03 0.21085526747E+03
 0.17841738975E+03 0.14005104612E+03 0.10132724674E+03 0.67341125456E+02 0.41495198803E+02
 0.24747755124E+02 0.15732335275E+02 0.11681425272E+02 0.98053017046E+01 0.89144661845E+01
 0.85451125933E+01 0.84477906075E+01 0.85451128214E+01 0.89144666099E+01 0.98053022929E+01
 0.11681426017E+02 0.15732336193E+02 0.24747756192E+02 0.41495199847E+02 0.67341126115E+02
 0.10132724658E+03 0.14005104491E+03 0.17841738771E+03 0.21085526531E+03 0.23250528031E+03
 0.26528890570E+03 0.25675049903E+03 0.23250528031E+03 0.19638289366E+03 0.15390958152E+03
 0.11121764317E+03 0.73779650108E+02 0.45209108223E+02 0.26542782737E+02 0.16378199810E+02
 0.11817284285E+02 0.98032935678E+01 0.88588650848E+01 0.84724580787E+01 0.83717690909E+01
 0.84724580791E+01 0.88588650859E+01 0.98032935696E+01 0.11817284287E+02 0.16378199811E+02
 0.26542782733E+02 0.45209108210E+02 0.73779650086E+02 0.11121764314E+03 0.15390958149E+03
 0.19638289364E+03 0.23250528030E+03 0.25675049903E+03 0.24798890544E+03 0.24010373302E+03
 0.21765954907E+03 0.18408690502E+03 0.14444392845E+03 0.10447312210E+03 0.69390783516E+02
 0.42672856239E+02 0.25309418916E+02 0.15926613372E+02 0.11715977736E+02 0.97970123113E+01
 0.88894481707E+01 0.85149372926E+01 0.84166447916E+01 0.85149368324E+01 0.88894473067E+01
 0.97970111039E+01 0.11715976187E+02 0.15926611430E+02 0.25309416607E+02 0.42672853885E+02
 0.69390781834E+02 0.10447312198E+03 0.14444393042E+03 0.18408690870E+03 0.21765955311E+03
 0.24010373566E+03 0.24010373303E+03 0.23250527716E+03 0.21085526265E+03 0.17841738635E+03
 0.14005104512E+03 0.10132724807E+03 0.67341128315E+02 0.41495202195E+02 0.24747758339E+02
 0.15732338011E+02 0.11681427497E+02 0.98053034548E+01 0.89144674659E+01 0.85451133910E+01
 0.84477909380E+01 0.85451127615E+01 0.89144662782E+01 0.98053017925E+01 0.11681425381E+02
 0.15732335403E+02 0.24747755297E+02 0.41495199130E+02 0.67341126107E+02 0.10132724780E+03
 0.14005104740E+03 0.17841739072E+03 0.21085526747E+03 0.23250528031E+03 0.21765954907E+03
 0.21085526265E+03 0.19141507805E+03 0.16216180675E+03 0.12741769617E+03 0.92270654196E+02