   2   2   0   0
  0.1622600E+02  0.3189680E-09  0.3189680E-09  0.3189680E-09  0.5000000E-15
  1.000000000000000E-004
  CAR 
 W                                       
     34.34450765    -67.73906002  301     11.20306046      1.00000000
    -67.739  0.0000E+00  0.0000E+00
    -67.399  0.0000E+00  0.0000E+00
    -67.059  0.0000E+00  0.0000E+00
    -66.718  0.0000E+00  0.0000E+00
    -66.378  0.0000E+00  0.0000E+00
    -66.038  0.0000E+00  0.0000E+00
    -65.697  0.0000E+00  0.0000E+00
    -65.357  0.0000E+00  0.0000E+00
    -65.017  0.0000E+00  0.0000E+00
    -64.677  0.0000E+00  0.0000E+00
    -64.336  0.0000E+00  0.0000E+00
    -63.996  0.0000E+00  0.0000E+00
    -63.656  0.0000E+00  0.0000E+00
    -63.315  0.1583E-10  0.5385E-11
    -62.975  0.6368E+01  0.2167E+01
    -62.635  0.5374E+01  0.4000E+01
    -62.295  0.0000E+00  0.4000E+01
    -61.954  0.0000E+00  0.4000E+01
    -61.614  0.0000E+00  0.4000E+01
    -61.274  0.0000E+00  0.4000E+01
    -60.933  0.0000E+00  0.4000E+01
    -60.593  0.0000E+00  0.4000E+01
    -60.253  0.0000E+00  0.4000E+01
    -59.913  0.0000E+00  0.4000E+01
    -59.572  0.0000E+00  0.4000E+01
    -59.232  0.0000E+00  0.4000E+01
    -58.892  0.0000E+00  0.4000E+01
    -58.552  0.0000E+00  0.4000E+01
    -58.211  0.0000E+00  0.4000E+01
    -57.871  0.0000E+00  0.4000E+01
    -57.531  0.0000E+00  0.4000E+01
    -57.190  0.0000E+00  0.4000E+01
    -56.850  0.0000E+00  0.4000E+01
    -56.510  0.0000E+00  0.4000E+01
    -56.170  0.0000E+00  0.4000E+01
    -55.829  0.0000E+00  0.4000E+01
    -55.489  0.0000E+00  0.4000E+01
    -55.149  0.0000E+00  0.4000E+01
    -54.808  0.0000E+00  0.4000E+01
    -54.468  0.0000E+00  0.4000E+01
    -54.128  0.0000E+00  0.4000E+01
    -53.788  0.0000E+00  0.4000E+01
    -53.447  0.0000E+00  0.4000E+01
    -53.107  0.0000E+00  0.4000E+01
    -52.767  0.0000E+00  0.4000E+01
    -52.427  0.0000E+00  0.4000E+01
    -52.086  0.0000E+00  0.4000E+01
    -51.746  0.0000E+00  0.4000E+01
    -51.406  0.0000E+00  0.4000E+01
    -51.065  0.0000E+00  0.4000E+01
    -50.725  0.0000E+00  0.4000E+01
    -50.385  0.0000E+00  0.4000E+01
    -50.045  0.0000E+00  0.4000E+01
    -49.704  0.0000E+00  0.4000E+01
    -49.364  0.0000E+00  0.4000E+01
    -49.024  0.0000E+00  0.4000E+01
    -48.683  0.0000E+00  0.4000E+01
    -48.343  0.0000E+00  0.4000E+01
    -48.003  0.0000E+00  0.4000E+01
    -47.663  0.0000E+00  0.4000E+01
    -47.322  0.0000E+00  0.4000E+01
    -46.982  0.0000E+00  0.4000E+01
    -46.642  0.0000E+00  0.4000E+01
    -46.302  0.0000E+00  0.4000E+01
    -45.961  0.0000E+00  0.4000E+01
    -45.621  0.0000E+00  0.4000E+01
    -45.281  0.0000E+00  0.4000E+01
    -44.940  0.0000E+00  0.4000E+01
    -44.600  0.0000E+00  0.4000E+01
    -44.260  0.0000E+00  0.4000E+01
    -43.920  0.0000E+00  0.4000E+01
    -43.579  0.0000E+00  0.4000E+01
    -43.239  0.0000E+00  0.4000E+01
    -42.899  0.0000E+00  0.4000E+01
    -42.558  0.0000E+00  0.4000E+01
    -42.218  0.0000E+00  0.4000E+01
    -41.878  0.0000E+00  0.4000E+01
    -41.538  0.0000E+00  0.4000E+01
    -41.197  0.0000E+00  0.4000E+01
    -40.857  0.0000E+00  0.4000E+01
    -40.517  0.0000E+00  0.4000E+01
    -40.176  0.0000E+00  0.4000E+01
    -39.836  0.0000E+00  0.4000E+01
    -39.496  0.0000E+00  0.4000E+01
    -39.156  0.0000E+00  0.4000E+01
    -38.815  0.0000E+00  0.4000E+01
    -38.475  0.0000E+00  0.4000E+01
    -38.135  0.0000E+00  0.4000E+01
    -37.795  0.0000E+00  0.4000E+01
    -37.454  0.0000E+00  0.4000E+01
    -37.114  0.0000E+00  0.4000E+01
    -36.774  0.0000E+00  0.4000E+01
    -36.433  0.0000E+00  0.4000E+01
    -36.093  0.0000E+00  0.4000E+01
    -35.753  0.0000E+00  0.4000E+01
    -35.413  0.0000E+00  0.4000E+01
    -35.072  0.0000E+00  0.4000E+01
    -34.732  0.0000E+00  0.4000E+01
    -34.392  0.0000E+00  0.4000E+01
    -34.051  0.0000E+00  0.4000E+01
    -33.711  0.0000E+00  0.4000E+01
    -33.371  0.1175E-01  0.4004E+01
    -33.031  0.9718E+01  0.7311E+01
    -32.690  0.2002E+01  0.8000E+01
    -32.350  0.0000E+00  0.8000E+01
    -32.010  0.0000E+00  0.8000E+01
    -31.670  0.0000E+00  0.8000E+01
    -31.329  0.0000E+00  0.8000E+01
    -30.989  0.0000E+00  0.8000E+01
    -30.649  0.0000E+00  0.8000E+01
    -30.308  0.0000E+00  0.8000E+01
    -29.968  0.0000E+00  0.8000E+01
    -29.628  0.0000E+00  0.8000E+01
    -29.288  0.0000E+00  0.8000E+01
    -28.947  0.0000E+00  0.8000E+01
    -28.607  0.0000E+00  0.8000E+01
    -28.267  0.0000E+00  0.8000E+01
    -27.926  0.0000E+00  0.8000E+01
    -27.586  0.0000E+00  0.8000E+01
    -27.246  0.0000E+00  0.8000E+01
    -26.906  0.0000E+00  0.8000E+01
    -26.565  0.0000E+00  0.8000E+01
    -26.225  0.0000E+00  0.8000E+01
    -25.885  0.0000E+00  0.8000E+01
    -25.545  0.0000E+00  0.8000E+01
    -25.204  0.0000E+00  0.8000E+01
    -24.864  0.1894E+01  0.8644E+01
    -24.524  0.8691E+01  0.1160E+02
    -24.183  0.5908E+01  0.1362E+02
    -23.843  0.6776E+01  0.1593E+02
    -23.503  0.1907E+00  0.1600E+02
    -23.163  0.0000E+00  0.1600E+02
    -22.822  0.0000E+00  0.1600E+02
    -22.482  0.0000E+00  0.1600E+02
    -22.142  0.0000E+00  0.1600E+02
    -21.801  0.0000E+00  0.1600E+02
    -21.461  0.0000E+00  0.1600E+02
    -21.121  0.0000E+00  0.1600E+02
    -20.781  0.0000E+00  0.1600E+02
    -20.440  0.0000E+00  0.1600E+02
    -20.100  0.0000E+00  0.1600E+02
    -19.760  0.0000E+00  0.1600E+02
    -19.420  0.0000E+00  0.1600E+02
    -19.079  0.0000E+00  0.1600E+02
    -18.739  0.0000E+00  0.1600E+02
    -18.399  0.0000E+00  0.1600E+02
    -18.058  0.0000E+00  0.1600E+02
    -17.718  0.0000E+00  0.1600E+02
    -17.378  0.0000E+00  0.1600E+02
    -17.038  0.0000E+00  0.1600E+02
    -16.697  0.0000E+00  0.1600E+02
    -16.357  0.0000E+00  0.1600E+02
    -16.017  0.0000E+00  0.1600E+02
    -15.676  0.0000E+00  0.1600E+02
    -15.336  0.0000E+00  0.1600E+02
    -14.996  0.0000E+00  0.1600E+02
    -14.656  0.0000E+00  0.1600E+02
    -14.315  0.0000E+00  0.1600E+02
    -13.975  0.0000E+00  0.1600E+02
    -13.635  0.0000E+00  0.1600E+02
    -13.294  0.0000E+00  0.1600E+02
    -12.954  0.0000E+00  0.1600E+02
    -12.614  0.0000E+00  0.1600E+02
    -12.274  0.0000E+00  0.1600E+02
    -11.933  0.0000E+00  0.1600E+02
    -11.593  0.0000E+00  0.1600E+02
    -11.253  0.0000E+00  0.1600E+02
    -10.913  0.0000E+00  0.1600E+02
    -10.572  0.0000E+00  0.1600E+02
    -10.232  0.0000E+00  0.1600E+02
     -9.892  0.0000E+00  0.1600E+02
     -9.551  0.0000E+00  0.1600E+02
     -9.211  0.0000E+00  0.1600E+02
     -8.871  0.0000E+00  0.1600E+02
     -8.531  0.0000E+00  0.1600E+02
     -8.190  0.0000E+00  0.1600E+02
     -7.850  0.0000E+00  0.1600E+02
     -7.510  0.0000E+00  0.1600E+02
     -7.169  0.0000E+00  0.1600E+02
     -6.829  0.0000E+00  0.1600E+02
     -6.489  0.0000E+00  0.1600E+02
     -6.149  0.0000E+00  0.1600E+02
     -5.808  0.0000E+00  0.1600E+02
     -5.468  0.0000E+00  0.1600E+02
     -5.128  0.0000E+00  0.1600E+02
     -4.788  0.0000E+00  0.1600E+02
     -4.447  0.0000E+00  0.1600E+02
     -4.107  0.0000E+00  0.1600E+02
     -3.767  0.0000E+00  0.1600E+02
     -3.426  0.0000E+00  0.1600E+02
     -3.086  0.0000E+00  0.1600E+02
     -2.746  0.0000E+00  0.1600E+02
     -2.406  0.0000E+00  0.1600E+02
     -2.065  0.0000E+00  0.1600E+02
     -1.725  0.0000E+00  0.1600E+02
     -1.385  0.0000E+00  0.1600E+02
     -1.044  0.0000E+00  0.1600E+02
     -0.704  0.0000E+00  0.1600E+02
     -0.364  0.0000E+00  0.1600E+02
     -0.024  0.0000E+00  0.1600E+02
      0.317  0.0000E+00  0.1600E+02
      0.657  0.0000E+00  0.1600E+02
      0.997  0.0000E+00  0.1600E+02
      1.337  0.6369E-15  0.1600E+02
      1.678  0.1132E-01  0.1600E+02
      2.018  0.6273E-01  0.1603E+02
      2.358  0.1258E+00  0.1607E+02
      2.699  0.1003E+00  0.1610E+02
      3.039  0.6583E-01  0.1612E+02
      3.379  0.2873E+00  0.1622E+02
      3.719  0.2755E+00  0.1632E+02
      4.060  0.1349E+00  0.1636E+02
      4.400  0.2745E+00  0.1646E+02
      4.740  0.3495E+00  0.1658E+02
      5.081  0.7707E+00  0.1684E+02
      5.421  0.1318E+01  0.1729E+02
      5.761  0.1102E+01  0.1766E+02
      6.101  0.2033E+01  0.1836E+02
      6.442  0.2204E+01  0.1911E+02
      6.782  0.1982E+01  0.1979E+02
      7.122  0.1047E+01  0.2014E+02
      7.463  0.8405E+00  0.2043E+02
      7.803  0.2152E+01  0.2116E+02
      8.143  0.3771E+01  0.2245E+02
      8.483  0.2948E+01  0.2345E+02
      8.824  0.1844E+01  0.2408E+02
      9.164  0.3566E+01  0.2530E+02
      9.504  0.2997E+01  0.2632E+02
      9.844  0.2032E+01  0.2701E+02
     10.185  0.3091E+00  0.2712E+02
     10.525  0.1500E+01  0.2763E+02
     10.865  0.5812E+00  0.2783E+02
     11.206  0.5308E+00  0.2801E+02
     11.546  0.1686E+01  0.2858E+02
     11.886  0.7933E+00  0.2885E+02
     12.226  0.1809E+01  0.2947E+02
     12.567  0.2485E+01  0.3031E+02
     12.907  0.1549E+01  0.3084E+02
     13.247  0.2694E+01  0.3176E+02
     13.588  0.2225E+01  0.3252E+02
     13.928  0.2461E+01  0.3335E+02
     14.268  0.4371E+01  0.3484E+02
     14.608  0.2357E+01  0.3565E+02
     14.949  0.2361E+01  0.3645E+02
     15.289  0.1283E+01  0.3689E+02
     15.629  0.5769E+00  0.3709E+02
     15.969  0.3726E+00  0.3721E+02
     16.310  0.9565E+00  0.3754E+02
     16.650  0.1453E+01  0.3803E+02
     16.990  0.4003E+00  0.3817E+02
     17.331  0.3525E+00  0.3829E+02
     17.671  0.5733E+00  0.3849E+02
     18.011  0.7656E+00  0.3875E+02
     18.351  0.9631E+00  0.3908E+02
     18.692  0.4951E+00  0.3925E+02
     19.032  0.4177E+00  0.3939E+02
     19.372  0.6386E+00  0.3961E+02
     19.713  0.7519E+00  0.3987E+02
     20.053  0.5565E+00  0.4005E+02
     20.393  0.8994E+00  0.4036E+02
     20.733  0.7658E+00  0.4063E+02
     21.074  0.7793E+00  0.4089E+02
     21.414  0.3143E+00  0.4100E+02
     21.754  0.1853E+01  0.4163E+02
     22.094  0.3876E+00  0.4177E+02
     22.435  0.1327E+01  0.4222E+02
     22.775  0.6888E-01  0.4224E+02
     23.115  0.7117E+00  0.4248E+02
     23.456  0.1042E+01  0.4284E+02
     23.796  0.1456E+01  0.4334E+02
     24.136  0.1654E+01  0.4390E+02
     24.476  0.1839E+01  0.4452E+02
     24.817  0.1649E+01  0.4509E+02
     25.157  0.3368E-01  0.4510E+02
     25.497  0.8589E+00  0.4539E+02
     25.838  0.7469E+00  0.4565E+02
     26.178  0.1534E+01  0.4617E+02
     26.518  0.1814E+01  0.4679E+02
     26.858  0.5054E+00  0.4696E+02
     27.199  0.6338E+00  0.4718E+02
     27.539  0.8106E+00  0.4745E+02
     27.879  0.1205E+00  0.4750E+02
     28.219  0.8715E+00  0.4779E+02
     28.560  0.2669E+00  0.4788E+02
     28.900  0.2755E+00  0.4798E+02
     29.240  0.0000E+00  0.4798E+02
     29.581  0.1606E-04  0.4798E+02
     29.921  0.6886E-01  0.4800E+02
     30.261  0.0000E+00  0.4800E+02
     30.601  0.0000E+00  0.4800E+02
     30.942  0.0000E+00  0.4800E+02
     31.282  0.0000E+00  0.4800E+02
     31.622  0.0000E+00  0.4800E+02
     31.963  0.0000E+00  0.4800E+02
     32.303  0.0000E+00  0.4800E+02
     32.643  0.0000E+00  0.4800E+02
     32.983  0.0000E+00  0.4800E+02
     33.324  0.0000E+00  0.4800E+02
     33.664  0.0000E+00  0.4800E+02
     34.004  0.0000E+00  0.4800E+02
     34.345  0.0000E+00  0.4800E+02
