W                                       
           1
     3.189680    0.000000    0.000000
     0.000000    3.189680    0.000000
     0.000000    0.000000    3.189680
   W 
     2
Direct configuration=     1
   0.00000000  0.00000000  0.00000000
   0.50000000  0.50000000  0.50000000
