Se                                      
   1.00000000000000     
     4.524640    0.000000    0.000000
    -2.262320    3.918453    0.000000
     0.000000    0.000000    5.049780
   Se
     3
Direct
  0.219030  0.000000  0.333333
  0.000000  0.219030  0.666667
  0.780970  0.780970  0.000000
 
   36   36   40
  41.038      34.836      28.863      23.577      19.081      15.360      12.339      9.9254      8.0224      6.5315    
  5.3601      4.4316      3.6948      3.1255      2.7193      2.4830      2.4307      2.5888      3.0056      3.7620    
  4.9785      6.8132      9.4481      13.066      17.819      23.783      30.865      38.702      46.391      52.578    
  56.452      57.903      57.276      55.027      51.460      46.731      34.837      30.056      25.443      21.244    
  17.575      14.461      11.872      9.7573      8.0511      6.6818      5.5771      4.6742      3.9299      3.3239    
  2.8537      2.5262      2.3526      2.3507      2.5492      2.9948      3.7606      4.9510      6.6947      9.1251    
  12.354      16.443      21.367      26.954      32.832      38.415      42.932      45.718      46.554      45.568    
  43.048      39.337      28.864      25.443      21.994      18.745      15.825      13.286      11.132      9.3382    
  7.8636      6.6548      5.6551      4.8144      4.0977      3.4886      2.9867      2.6001      2.3397      2.2194    
  2.2584      2.4847      2.9404      3.6884      4.8135      6.4128      8.5742      11.352      14.744      18.664    
  22.910      27.150      30.936      33.801      35.378      35.508      34.270      31.933      23.577      21.243    
  18.745      16.287      14.006      11.973      10.216      8.7319      7.4949      6.4642      5.5933      4.8410    
  4.1799      3.5979      3.0957      2.6812      2.3661      2.1634      2.0880      2.1586      2.4008      2.8505    
  3.5575      4.5856      6.0040      7.8673      10.190      12.927      15.960      19.095      22.063      24.551    
  26.262      26.995      26.700      25.486      19.081      17.574      15.824      14.005      12.249      10.641    
  9.2255      8.0161      6.9993      6.1431      5.4079      4.7587      4.1727      3.6410      3.1648      2.7514    
  2.4116      2.1582      2.0048      1.9660      2.0593      2.3067      2.7366      3.3852      4.2984      5.5234    
  7.0894      8.9844      11.142      13.442      15.719      17.768      19.375      20.357      20.614      20.152    
  15.360      14.460      13.286      11.973      10.641      9.3797      8.2469      7.2686      6.4407      5.7389    
  5.1308      4.5866      4.0858      3.6197      3.1892      2.8006      2.4628      2.1870      1.9860      1.8736    
  1.8631      1.9701      2.2135      2.6145      3.1974      3.9905      5.0221      6.3057      7.8206      9.4999    
  11.233      12.878      14.283      15.307      15.844      15.852      12.338      11.872      11.132      10.217    
  9.2265      8.2474      7.3444      6.5529      5.8779      5.3029      4.8031      4.3548      3.9396      3.5470    
  3.1753      2.8288      2.5143      2.2404      2.0187      1.8618      1.7817      1.7903      1.9023      2.1338    
  2.4992      3.0119      3.6874      4.5425      5.5822      6.7818      8.0782      9.3753      10.561      11.525    
  12.175      12.451      9.9247      9.7577      9.3387      8.7322      8.0166      7.2688      6.5525      5.9091    
  5.3529      4.8768      4.4640      4.0972      3.7612      3.4438      3.1386      2.8459      2.5706      2.3189    
  2.0993      1.9227      1.8001      1.7423      1.7600      1.8663      2.0748      2.3975      2.8431      3.4180    
  4.1253      4.9600      5.8991      6.8927      7.8644      8.7250      9.3919      9.8030      8.0228      8.0527    
  7.8647      7.4946      6.9988      6.4405      5.8772      5.3519      4.8873      4.4869      4.1433      3.8451    
  3.5804      3.3357      3.1005      2.8704      2.6469      2.4337      2.2357      2.0602      1.9175      1.8177    
  1.7699      1.7838      1.8719      2.0482      2.3245      2.7054      3.1885      3.7684      4.4373      5.1763    
  5.9438      6.6767      7.3046      7.7672      6.5326      6.6838      6.6561      6.4636      6.1418      5.7386    
  5.3029      4.8761      4.4861      4.1468      3.8608      3.6233      3.4241      3.2494      3.0861      2.9262    
  2.7668      2.6073      2.4483      2.2931      2.1491      2.0257      1.9328      1.8803      1.8781      1.9364    
  2.0675      2.2840      2.5932      2.9925      3.4714      4.0150      4.6019      5.1970      5.7513      6.2117    
  5.3604      5.5778      5.6555      5.5924      5.4063      5.1305      4.8042      4.4649      4.1431      3.8604    
  3.6285      3.4487      3.3129      3.2080      3.1207      3.0405      2.9599      2.8725      2.7727      2.6583    
  2.5320      2.4008      2.2755      2.1690      2.0929      2.0552      2.0645      2.1349      2.2842      2.5222    
  2.8435      3.2320      3.6697      4.1360      4.6008      5.0232      4.4313      4.6733      4.8135      4.8400    
  4.7576      4.5865      4.3560      4.0988      3.8458      3.6233      3.4487      3.3283      3.2580      3.2279    
  3.2261      3.2412      3.2612      3.2725      3.2607      3.2150      3.1311      3.0116      2.8650      2.7053    
  2.5503      2.4170      2.3177      2.2626      2.2649      2.3396      2.4960      2.7314      3.0330      3.3811    
  3.7513      4.1129      3.6949      3.9289      4.0964      4.1793      4.1729      4.0864      3.9403      3.7617    
  3.5802      3.4238      3.3130      3.2584      3.2614      3.3177      3.4199      3.5566      3.7113      3.8616    
  3.9818      4.0482      4.0449      3.9665      3.8159      3.6054      3.3576      3.1028      2.8696      2.6759    
  2.5310      2.4447      2.4307      2.5004      2.6526      2.8729      3.1380      3.4214      3.1258      3.3237    
  3.4883      3.5983      3.6422      3.6210      3.5475      3.4431      3.3343      3.2481      3.2077      3.2283    
  3.3182      3.4809      3.7155      4.0132      4.3531      4.7024      5.0209      5.2676      5.4082      5.4200    
  5.2964      5.0470      4.6973      4.2864      3.8607      3.4620      3.1192      2.8474      2.6549      2.5486    
  2.5316      2.5992      2.7365      2.9209      2.7191      2.8537      2.9870      3.0965      3.1660      3.1901    
  3.1754      3.1377      3.0992      3.0851      3.1204      3.2264      3.4203      3.7157      4.1206      4.6312    
  5.2241      5.8562      6.4703      7.0020      7.3881      7.5763      7.5381      7.2755      6.8180      6.2153    
  5.5309      4.8352      4.1922      3.6453      3.2116      2.8907      2.6774      2.5668      2.5498      2.6088    
  2.4825      2.5258      2.6001      2.6816      2.7517      2.8003      2.8278      2.8451      2.8703      2.9269    
  3.0413      3.2418      3.5567      4.0130      4.6311      5.4151      6.3442      7.3689      8.4138      9.3838    
  10.174      10.684      10.843      10.626      10.063      9.2225      8.2013      7.1038      6.0303      5.0617    
  4.2480      3.6057      3.1276      2.7964      2.5929      2.4962      2.4308      2.3525      2.3395      2.3661    
  2.4114      2.4619      2.5128      2.5696      2.6473      2.7684      2.9616      3.2620      3.7110      4.3525    
  5.2237      6.3441      7.7036      9.2545      10.906      12.527      13.954      15.018      15.573      15.536    
  14.913      13.792      12.321      10.667      8.9866      7.4067      6.0213      4.8830      4.0014      3.3529    
  2.8995      2.6031      2.5892      2.3511      2.2196      2.1634      2.1581      2.1866      2.2399      2.3186    
  2.4341      2.6082      2.8732      3.2724      3.8609      4.7016      5.8559      7.3690      9.2547      11.480    
  13.949      16.495      18.884      20.843      22.117      22.518      21.984      20.592      18.544      16.107    
  13.546      11.083      8.8708      7.0014      5.5076      4.3728      3.5481      2.9725      3.0054      2.5493    
  2.2587      2.0881      2.0048      1.9862      2.0192      2.1003      2.2365      2.4485      2.7719      3.2593    
  3.9806      5.0204      6.4706      8.4144      10.907      13.949      17.462      21.253      25.012      28.339    
  30.813      32.082      31.948      30.423      27.730      24.256      20.444      16.686      13.260      10.320    
  7.9238      6.0615      4.6774      3.6885      3.7616      2.9944      2.4845      2.1586      1.9658      1.8734    
  1.8621      1.9236      2.0613      2.2933      2.6572      3.2135      4.0472      5.2679      7.0030      9.3847    
  12.527      16.495      21.253      26.611      32.196      37.443      41.652      44.303      45.097      43.899    
  40.781      36.129      30.662      25.069      19.859      15.336      11.616      8.6917      6.4861      4.8853    
  4.9787      3.7605      2.9401      2.4006      2.0591      1.8628      1.7813      1.8000      1.9176      2.1489    
  2.5315      3.1307      4.0453      5.4092      7.3892      10.174      13.954      18.883      25.011      32.196    
  39.942      47.181      53.039      57.077      59.116      59.021      56.628      51.885      45.122      37.251    
  29.550      22.739      17.088      12.624      9.2322      6.7447      6.8137      4.9514      3.6885      2.8505    
  2.3069      1.9703      1.7902      1.7418      1.8169      2.0249      2.4004      3.0120      3.9678      5.4214    
  7.5769      10.683      15.017      20.843      28.338      37.443      47.181      55.970      62.837      67.559    
  70.372      71.491      70.763      67.686      61.821      53.318      43.228      33.346      24.976      18.315    
  13.236      9.4915      9.4478      6.6949      4.8137      3.5576      2.7368      2.2139      1.9027      1.7602    
  1.7697      1.9323      2.2751      2.8653      3.8169      5.2973      7.5378      10.841      15.571      22.116    
  30.813      41.652      53.039      62.838      69.804      73.916      76.091      77.413      78.281      78.049    
  75.402      69.255      59.576      47.694      35.944      26.279      18.863      13.382      13.065      9.1249    
  6.4127      4.5854      3.3850      2.6145      2.1340      1.8666      1.7843      1.8809      2.1693      2.7054    
  3.6055      5.0469      7.2746      10.625      15.536      22.519      32.083      44.304      57.077      67.559    
  73.916      76.025      75.491      74.765      75.654      78.125      80.253      79.395      73.748      63.343    
  50.080      36.973      26.476      18.676      17.819      12.354      8.5744      6.0038      4.2979      3.1971    
  2.4990      2.0744      1.8717      1.8786      2.0937      2.5507      3.3572      4.6966      6.8173      10.062    
  14.913      21.985      31.950      45.097      59.115      70.371      76.091      75.491      70.393      64.694    
  62.461      65.528      72.291      78.664      80.462      75.535      64.502      50.175      36.318      25.582    
  23.783      16.444      11.353      7.8676      5.5231      3.9904      3.0121      2.3972      2.0473      1.9359    
  2.0556      2.4174      3.1025      4.2858      6.2152      9.2229      13.792      20.593      30.424      43.899    
  59.020      71.490      77.413      74.765      64.694      51.853      42.754      42.372      51.104      64.465    
  75.802      79.895      75.079      63.160      48.059      34.152      30.866      21.367      14.744      10.191    
  7.0893      5.0218      3.6880      2.8439      2.3243      2.0666      2.0641      2.3179      2.8693      3.8601    
  5.5312      8.2024      12.322      18.544      27.730      40.781      56.627      70.762      78.282      75.655    
  62.461      42.753      24.508      16.176      21.903      38.890      59.114      74.009      78.577      72.619    
  59.482      44.048      38.702      26.953      18.662      12.927      8.9844      6.3051      4.5424      3.4190    
  2.7063      2.2839      2.1345      2.2628      2.6759      3.4614      4.8351      7.1048      10.668      16.106    
  24.255      36.128      51.885      67.685      78.049      78.126      65.528      42.371      16.175     -2.3892    
 -4.8781      9.8130      34.693      58.976      73.960      76.375      68.062      53.721      46.391      32.831    
  22.908      15.960      11.142      7.8204      5.5813      4.1251      3.1891      2.5936      2.2841      2.2653    
  2.5316      3.1190      4.1917      6.0305      8.9871      13.546      20.442      30.662      45.123      61.822    
  75.403      80.254      72.292      51.103      21.902     -4.8783     -17.915     -11.362      11.448      40.106    
  63.301      74.278      72.380      61.283      52.578      38.414      27.149      19.095      13.443      9.5008    
  6.7814      4.9592      3.7682      2.9925      2.5218      2.3396      2.4454      2.8478      3.6449      5.0614    
  7.4069      11.083      16.685      25.069      37.253      53.320      69.255      79.394      78.663      64.465    
  38.890      9.8133     -11.362     -15.394     -.76958      25.326      51.496      68.439      72.583      65.727    
  56.451      42.932      30.937      22.064      15.720      11.234      8.0785      5.8987      4.4372      3.4713    
  2.8429      2.4953      2.4309      2.6555      3.2115      4.2476      6.0213      8.8710      13.259      19.859    
  29.551      43.229      59.576      73.746      80.461      75.801      59.114      34.694      11.449     -.76859    
  3.3444      21.233      44.138      62.389      70.207      67.125      57.901      45.718      33.802      24.552    
  17.768      12.878      9.3748      6.8923      5.1766      4.0157      3.2321      2.7308      2.5000      2.5488    
  2.8907      3.6053      4.8828      7.0018      10.320      15.336      22.739      33.346      47.693      63.341    
  75.534      79.896      74.009      58.976      40.106      25.326      21.233      29.169      44.413      59.228    
  67.287      66.318      57.277      46.555      35.379      26.263      19.374      14.282      10.559      7.8634    
  5.9438      4.6028      3.6705      3.0330      2.6525      2.5317      2.6775      3.1273      4.0012      5.5079    
  7.9241      11.616      17.088      24.976      35.944      50.079      64.502      75.080      78.579      73.960    
  63.300      51.495      44.138      44.413      51.180      59.821      65.174      64.281      55.027      45.570    
  35.509      26.994      20.356      15.306      11.524      8.7246      6.6765      5.1973      4.1365      3.3812    
  2.8729      2.5995      2.5671      2.7962      3.3527      4.3730      6.0618      8.6915      12.623      18.315    
  26.279      36.973      50.175      63.162      72.620      76.375      74.277      68.438      62.389      59.227    
  59.821      62.385      63.786      61.530      51.459      43.049      34.270      26.699      20.612      15.844    
  12.176      9.3933      7.3051      5.7513      4.6006      3.7508      3.1375      2.7366      2.5503      2.5928    
  2.8991      3.5481      4.6777      6.4860      9.2317      13.235      18.863      26.476      36.318      48.059    
  59.482      68.061      72.379      72.583      70.207      67.288      65.174      63.786      61.854      57.940    
  46.730      39.337      31.932      25.486      20.151      15.852      12.453      9.8050      7.7680      6.2117    
  5.0229      4.1124      3.4206      2.9205      2.6092      2.4964      2.6027      2.9722      3.6889      4.8854    
  6.7442      9.4913      13.383      18.677      25.582      34.151      44.047      53.720      61.282      65.727    
  67.127      66.319      64.281      61.530      57.941      53.073      40.965      35.377      29.998      25.198    
  21.059      17.568      14.660      12.256      10.275      8.6362      7.2650      6.1025      5.1164      4.3005    
  3.6655      3.2282      3.0075      3.0289      3.3360      4.0021      5.1394      6.8977      9.4500      12.969    
  17.598      23.395      30.262      37.829      45.259      51.242      54.976      56.361      55.764      53.663    
  50.391      46.103      34.306      30.151      26.140      22.468      19.223      16.421      14.032      12.010    
  10.301      8.8463      7.5873      6.4787      5.4965      4.6411      3.9287      3.3805      3.0163      2.8560    
  2.9259      3.2665      3.9425      5.0494      6.7070      9.0390      12.147      16.083      20.810      26.151    
  31.738      37.009      41.261      43.871      44.657      43.773      41.524      38.246      27.958      25.096    
  22.220      19.508      17.055      14.892      13.014      11.395      9.9976      8.7751      7.6814      6.6805    
  5.7554      4.9108      4.1673      3.5510      3.0852      2.7897      2.6839      2.7916      3.1477      3.8064    
  4.8437      6.3471      8.3946      11.031      14.245      17.945      21.930      25.880      29.380      32.006    
  33.446      33.587      32.532      30.545      22.374      20.506      18.521      16.579      14.777      13.160    
  11.736      10.495      9.4087      8.4373      7.5398      6.6850      5.8602      5.0728      4.3449      3.7047    
  3.1795      2.7919      2.5602      2.5013      2.6353      2.9907      3.6092      4.5454      5.8587      7.5939    
  9.7574      12.298      15.098      17.970      20.668      22.911      24.445      25.112      24.897      23.916    
  17.671      16.527      15.214      13.863      12.570      11.388      10.338      9.4205      8.6132      7.8813    
  7.1857      6.4964      5.8011      5.1069      4.4352      3.8135      3.2705      2.8315      2.5166      2.3414    
  2.3203      2.4695      2.8100      3.3706      4.1879      5.2998      6.7262      8.4487      10.399      12.463    
  14.488      16.295      17.703      18.567      18.819      18.485      13.830      13.196      12.371      11.463    
  10.555      9.7050      8.9460      8.2851      7.7070      7.1805      6.6696      6.1450      5.5922      5.0142    
  4.4287      3.8609      3.3378      2.8852      2.5251      2.2748      2.1472      2.1537      2.3075      2.6233    
  3.1181      3.8119      4.7243      5.8606      7.1959      8.6651      10.167      11.579      12.776      13.646    
  14.117      14.166      10.769      10.479      10.003      9.4189      8.7980      8.1973      7.6550      7.1865    
  6.7826      6.4173      6.0591      5.6813      5.2675      4.8148      4.3341      3.8455      3.3728      2.9396    
  2.5686      2.2783      2.0823      1.9908      2.0142      2.1634      2.4470      2.8714      3.4449      4.1762    
  5.0641      6.0824      7.1728      8.2523      9.2291      10.019      10.558      10.808      8.3824      8.3134    
  8.0792      7.7301      7.3222      6.9067      6.5230      6.1917      5.9114      5.6631      5.4214      5.1636    
  4.8737      4.5436      4.1753      3.7814      3.3806      2.9937      2.6411      2.3410      2.1081      1.9531    
  1.8851      1.9130      2.0456      2.2891      2.6461      3.1162      3.6967      4.3788      5.1402      5.9380    
  6.7103      7.3893      7.9166      8.2531      6.5568      6.6214      6.5484      6.3662      6.1152      5.8376    
  5.5694      5.3336      5.1363      4.9677      4.8102      4.6464      4.4613      4.2433      3.9865      3.6949    
  3.3808      3.0603      2.7498      2.4651      2.2212      2.0302      1.9009      1.8409      1.8591      1.9650    
  2.1648      2.4572      2.8342      3.2865      3.8049      4.3730      4.9584      5.5134      5.9880      6.3435    
  5.1786      5.3158      5.3445      5.2778      5.1411      4.9662      4.7837      4.6162      4.4751      4.3601    
  4.2633      4.1732      4.0762      3.9578      3.8072      3.6211      3.4042      3.1658      2.9168      2.6690    
  2.4355      2.2290      2.0605      1.9392      1.8730      1.8689      1.9351      2.0784      2.3003      2.5937    
  2.9461      3.3437      3.7698      4.1994      4.5992      4.9347      4.1427      4.3111      4.3989      4.4085    
  4.3533      4.2553      4.1387      4.0243      3.9263      3.8524      3.8036      3.7745      3.7533      3.7250    
  3.6760      3.5980      3.4885      3.3482      3.1801      2.9900      2.7869      2.5820      2.3883      2.2191    
  2.0851      1.9925      1.9467      1.9576      2.0373      2.1903      2.4082      2.6746      2.9741      3.2925    
  3.6107      3.9028      3.3638      3.5351      3.6512      3.7073      3.7084      3.6679      3.6040      3.5351    
  3.4770      3.4424      3.4385      3.4650      3.5136      3.5715      3.6251      3.6630      3.6759      3.6554    
  3.5940      3.4878      3.3388      3.1548      2.9476      2.7326      2.5271      2.3466      2.2012      2.0979    
  2.0460      2.0556      2.1318      2.2696      2.4565      2.6772      2.9150      3.1508      2.7821      2.9352    
  3.0566      3.1365      3.1739      3.1759      3.1551      3.1275      3.1098      3.1172      3.1606      3.2438    
  3.3635      3.5118      3.6780      3.8499      4.0119      4.1454      4.2295      4.2467      4.1876      4.0522    
  3.8479      3.5894      3.2994      3.0070      2.7382      2.5081      2.3231      2.1891      2.1163      2.1122    
  2.1747      2.2908      2.4427      2.6122      2.3629      2.4798      2.5868      2.6719      2.7292      2.7605    
  2.7748      2.7853      2.8082      2.8598      2.9541      3.0994      3.2986      3.5505      3.8509      4.1887    
  4.5432      4.8834      5.1729      5.3760      5.4646      5.4231      5.2501      4.9585      4.5747      4.1372    
  3.6896      3.2700      2.9033      2.6013      2.3693      2.2114      2.1291      2.1174      2.1640      2.2519    
  2.0932      2.1543      2.2281      2.3006      2.3623      2.4107      2.4515      2.4958      2.5579      2.6547    
  2.8029      3.0172      3.3086      3.6856      4.1523      4.7019      5.3100      5.9338      6.5181      7.0036    
  7.3339      7.4652      7.3764      7.0740      6.5895      5.9719      5.2819      4.5849      3.9395      3.3841    
  2.9325      2.5825      2.3275      2.1622      2.0783      2.0616      1.9749      1.9575      1.9775      2.0185    
  2.0683      2.1211      2.1785      2.2493      2.3467      2.4879      2.6928      2.9829      3.3806      3.9075    
  4.5793      5.3966      6.3359      7.3460      8.3520      9.2630      9.9820      10.421      10.518      10.257    
  9.6703      8.8272      7.8192      6.7446      5.6962      4.7483      3.9456      3.3013      2.8070      2.4456    
  2.1990      2.0487      2.0202      1.8967      1.8394      1.8283      1.8484      1.8907      1.9529      2.0405    
  2.1661      2.3480      2.6096      2.9806      3.4965      4.1957      5.1105      6.2554      7.6157      9.1393    
  10.734      12.272      13.599      14.560      15.026      14.927      14.276      13.161      11.726      10.127    
  8.5084      6.9883      5.6524      4.5478      3.6819      3.0313      2.5599      2.2327      2.2544      1.9880    
  1.8245      1.7375      1.7076      1.7220      1.7747      1.8677      2.0118      2.2264      2.5402      2.9921    
  3.6320      4.5176      5.7047      7.2321      9.1064      11.287      13.674      16.101      18.344      20.149    
  21.282      21.580      20.994      19.610      17.621      15.280      12.834      10.485      8.3753      6.5881    
  5.1523      4.0513      3.2385      2.6570      2.7265      2.2603      1.9512      1.7589      1.6549      1.6209    
  1.6469      1.7314      1.8821      2.1186      2.4746      2.9992      3.7580      4.8311      6.3042      8.2528    
  10.721      13.701      17.101      20.728      24.280      27.377      29.627      30.714      30.472      28.931    
  26.315      22.988      19.361      15.798      12.552      9.7634      7.4843      5.7041      4.3704      3.4056    
  3.5193      2.7628      2.2493      1.9117      1.7042      1.5978      1.5767      1.6352      1.7778      2.0227    
  2.4066      2.9875      3.8475      5.0918      6.8420      9.2211      12.331      16.219      20.836      25.985    
  31.292      36.220      40.114      42.483      43.060      41.754      38.668      34.197      29.009      23.725    
  18.811      14.544      11.027      8.2521      6.1487      4.6107      4.7541      3.5718      2.7649      2.2248    
  1.8751      1.6677      1.5759      1.5878      1.7041      1.9403      2.3334      2.9478      3.8799      5.2603    
  7.2503      10.029      13.772      18.612      24.581      31.518      38.947      45.852      51.365      55.055    
  56.767      56.409      53.878      49.180      42.666      35.213      27.974      21.573      16.254      12.039    
  8.8231      6.4509      6.5871      4.7931      3.5641      2.7379      2.1932      1.8491      1.6590      1.6015    
  1.6709      1.8780      2.2574      2.8770      3.8437      5.3090      7.4719      10.572      14.870      20.610    
  27.941      36.788      46.250      54.760      61.335      65.736      68.183      68.908      67.820      64.521    
  58.672      50.459      40.886      31.614      23.765      17.499      12.701      9.1462      9.1989      6.5569    
  4.7353      3.5053      2.6906      2.1633      1.8427      1.6892      1.6892      1.8461      2.1878      2.7805    
  3.7380      5.2264      7.4737      10.774      15.476      21.946      30.491      41.109      52.304      61.942    
  68.766      72.709      74.622      75.534      75.864      75.087      72.067      65.866      56.497      45.210    
  34.178      25.117      18.135      12.947      12.775      9.0010      6.3808      4.5969      3.4099      2.6366    
  2.1458      1.8650      1.7691      1.8551      2.1375      2.6717      3.5733      5.0195      7.2538      10.605    
  15.498      22.425      31.865      43.921      56.608      67.086      73.520      75.739      75.224      74.266    
  74.590      76.243      77.539      76.108      70.327      60.249      47.645      35.324      25.470      18.107    
  17.472      12.245      8.5970      6.0903      4.4053      3.3012      2.5891      2.1468      1.9251      1.9149    
  2.1181      2.5686      3.3725      4.7129      6.8387      10.089      14.933      21.970      31.845      44.881    
  58.912      70.322      76.358      76.218      71.575      66.056      63.474      65.623      71.139      76.332    
  77.373      72.275      61.608      47.991      34.944      24.835      23.371      16.360      11.449      8.0500    
  5.7339      4.1952      3.1952      2.5543      2.1774      2.0400      2.1391      2.4881      3.1659      4.3457    
  6.2769      9.2915      13.864      20.649      30.424      43.824      59.026      71.773      78.211      76.357    
  67.244      55.182      46.242      45.133      52.387      63.994      73.852      77.105      72.158      60.672    
  46.312      33.189      30.399      21.332      14.945      10.501      7.4346      5.3563      3.9888      3.1047    
  2.5456      2.2500      2.2148      2.4454      2.9826      3.9643      5.6318      8.3076      12.435      18.657    
  27.816      40.811      56.759      71.233      79.385      77.774      65.961      47.681      30.326      21.811    
  26.168      41.028      59.083      72.379      76.180      70.213      57.583      42.887      38.216      27.007    
  19.010      13.409      9.5047      6.8073      4.9953      3.8118      3.0407      2.5644      2.3665      2.4563    
  2.8436      3.6123      4.9755      7.2433      10.814      16.259      24.402      36.242      52.062      68.195    
  79.205      80.359      69.351      48.105      23.554      5.6139      2.2820      14.864      37.117      59.099    
  72.624      74.494      66.335      52.549      46.011      33.025      23.454      16.663      11.885      8.5346    
  6.2277      4.6870      3.6671      2.9954      2.6175      2.5402      2.7632      3.3217      4.3746      6.2020    
  9.1584      13.725      20.626      30.833      45.299      62.250      76.402      82.238      75.815      56.690    
  29.638      4.2922     -8.7554     -3.8155      16.349      42.271      63.408      73.296      71.149      60.348    
  52.473      38.813      27.942      20.068      14.457      10.472      7.6652      5.7322      4.4272      3.5464    
  2.9818      2.7171      2.7567      3.1117      3.8757      5.2689      7.6024      11.279      16.886      25.267    
  37.435      53.613      69.970      80.900      81.454      69.120      45.769      18.629     -1.7227     -6.5323    
  5.9384      29.319      53.116      68.548      72.074      65.243      56.735      43.612      32.012      23.339    
  17.039      12.501      9.2389      6.9237      5.3174      4.2131      3.4594      3.0010      2.8430      2.9955    
  3.4992      4.4969      6.2443      9.0810      13.466      20.063      29.742      43.415      59.981      74.693    
  82.347      79.125      64.335      41.880      19.969      7.8196      10.607      26.284      46.921      63.502    
  70.464      67.193      58.577      46.709      35.160      26.131      19.404      14.460      10.838      8.2006    
  6.3131      4.9808      4.0374      3.3929      3.0375      2.9843      3.2485      3.9053      5.1398      7.2291    
  10.530      15.534      22.921      33.500      47.864      63.782      76.557      81.873      77.345      63.909    
  46.423      32.250      27.660      34.169      47.638      60.957      68.133      66.878      58.221      47.792    