Se                                      
   1.00000000000000     
     4.524640    0.000000    0.000000
    -2.262320    3.918453    0.000000
     0.000000    0.000000    5.049780
   Se
     3
Direct
  0.219030  0.000000  0.333333
  0.000000  0.219030  0.666667
  0.780970  0.780970  0.000000
 
   36   36   40
 0.41037872022E+02 0.34836006641E+02 0.28863345542E+02 0.23576991752E+02 0.19081225769E+02
 0.15359882623E+02 0.12338832919E+02 0.99254485052E+01 0.80224299320E+01 0.65315398895E+01
 0.53600925115E+01 0.44315848546E+01 0.36948242083E+01 0.31254898593E+01 0.27193005194E+01
 0.24829580514E+01 0.24306710672E+01 0.25887868153E+01 0.30055896448E+01 0.37619838977E+01
 0.49784986894E+01 0.68132438547E+01 0.94480652801E+01 0.13065682702E+02 0.17819174147E+02
 0.23782544912E+02 0.30865325907E+02 0.38701964587E+02 0.46390767866E+02 0.52577824852E+02
 0.56452481821E+02 0.57902566505E+02 0.57276407018E+02 0.55026501022E+02 0.51459642752E+02
 0.46730913834E+02 0.34836741319E+02 0.30056426036E+02 0.25443433442E+02 0.21243908990E+02
 0.17575053148E+02 0.14460723299E+02 0.11872342778E+02 0.97573186691E+01 0.80510533715E+01
 0.66817640416E+01 0.55770579354E+01 0.46741854539E+01 0.39298998039E+01 0.33239020352E+01
 0.28537335948E+01 0.25261797993E+01 0.23526448641E+01 0.23507128428E+01 0.25491547230E+01
 0.29947660217E+01 0.37606383262E+01 0.49510309319E+01 0.66947390731E+01 0.91251154584E+01
 0.12353864236E+02 0.16443009253E+02 0.21366754733E+02 0.26954334055E+02 0.32831842761E+02
 0.38414657177E+02 0.42931908760E+02 0.45717501869E+02 0.46554263630E+02 0.45568220610E+02
 0.43048159645E+02 0.39337263209E+02 0.28863801669E+02 0.25443495808E+02 0.21994497166E+02
 0.18745245644E+02 0.15825173816E+02 0.13286176245E+02 0.11131847321E+02 0.93382249132E+01
 0.78636190589E+01 0.66548003177E+01 0.56551224409E+01 0.48144330631E+01 0.40976794995E+01
 0.34886190441E+01 0.29867395935E+01 0.26000500637E+01 0.23396694640E+01 0.22194024951E+01
 0.22583955464E+01 0.24846824400E+01 0.29404329076E+01 0.36883945111E+01 0.48134929734E+01
 0.64127625441E+01 0.85742221986E+01 0.11352244994E+02 0.14744044869E+02 0.18663526105E+02
 0.22910303743E+02 0.27149705186E+02 0.30936320659E+02 0.33801085016E+02 0.35377849877E+02
 0.35507881256E+02 0.34270081650E+02 0.31932533297E+02 0.23577020174E+02 0.21243366761E+02
 0.18744752464E+02 0.16286921876E+02 0.14005554971E+02 0.11973010694E+02 0.10216218917E+02
 0.87319276211E+01 0.74948819364E+01 0.64642436309E+01 0.55933281487E+01 0.48410383466E+01
 0.41798920807E+01 0.35979243931E+01 0.30956570398E+01 0.26811820255E+01 0.23660571813E+01
 0.21633613238E+01 0.20879876968E+01 0.21586218429E+01 0.24007804106E+01 0.28504539276E+01
 0.35574753449E+01 0.45855972036E+01 0.60039700060E+01 0.78673109394E+01 0.10190370599E+02
 0.12927263060E+02 0.15960251332E+02 0.19094771436E+02 0.22063005397E+02 0.24551300337E+02
 0.26262318177E+02 0.26994647215E+02 0.26699687133E+02 0.25486266376E+02 0.19081299807E+02
 0.17574268572E+02 0.15824415724E+02 0.14005414002E+02 0.12249061117E+02 0.10640723725E+02
 0.92255022096E+01 0.80161333675E+01 0.69992979078E+01 0.61430673356E+01 0.54078897668E+01
 0.47586509889E+01 0.41726727335E+01 0.36409757051E+01 0.31647856838E+01 0.27513981444E+01
 0.24116196251E+01 0.21582200619E+01 0.20047995753E+01 0.19659886907E+01 0.20592507980E+01
 0.23067248450E+01 0.27365803423E+01 0.33852281051E+01 0.42983623578E+01 0.55233702301E+01
 0.70894424695E+01 0.89843730545E+01 0.11141864527E+02 0.13442198969E+02 0.15718598906E+02
 0.17767740037E+02 0.19374632778E+02 0.20356955726E+02 0.20613676715E+02 0.20152321485E+02
 0.15359687071E+02 0.14460166871E+02 0.13285742117E+02 0.11973294194E+02 0.10641302508E+02
 0.93797244172E+01 0.82469083334E+01 0.72685624532E+01 0.64406978232E+01 0.57388897106E+01
 0.51307543199E+01 0.45865537054E+01 0.40858078153E+01 0.36197048262E+01 0.31891874800E+01
 0.28006106454E+01 0.24628341310E+01 0.21869574503E+01 0.19860412402E+01 0.18735690307E+01
 0.18630937559E+01 0.19701312464E+01 0.22134640997E+01 0.26144888366E+01 0.31973988310E+01
 0.39904897029E+01 0.50220523525E+01 0.63056582597E+01 0.78205811860E+01 0.94998533395E+01
 0.11232643435E+02 0.12877808081E+02 0.14282899382E+02 0.15306646561E+02 0.15844480133E+02
 0.15852466683E+02 0.12337923170E+02 0.11872065572E+02 0.11131860524E+02 0.10216801967E+02
 0.92264750263E+01 0.82474150361E+01 0.73443747990E+01 0.65528784602E+01 0.58779194571E+01
 0.53028962092E+01 0.48030542087E+01 0.43547582532E+01 0.39396017641E+01 0.35470311649E+01
 0.31753058120E+01 0.28287911260E+01 0.25142806203E+01 0.22404222251E+01 0.20186538149E+01
 0.18617668122E+01 0.17816544160E+01 0.17902994631E+01 0.19022763310E+01 0.21337650485E+01
 0.24992386655E+01 0.30118719894E+01 0.36873991437E+01 0.45425314124E+01 0.55821585502E+01
 0.67817870866E+01 0.80781955069E+01 0.93752507163E+01 0.10560685890E+02 0.11524588599E+02
 0.12174787046E+02 0.12450923605E+02 0.99246654605E+01 0.97577325959E+01 0.93386592008E+01
 0.87322187025E+01 0.80166488620E+01 0.72688030274E+01 0.65524984402E+01 0.59090677155E+01
 0.53529046470E+01 0.48768060204E+01 0.44640026795E+01 0.40972339167E+01 0.37612390302E+01
 0.34438108131E+01 0.31385602078E+01 0.28459352859E+01 0.25705807883E+01 0.23188906803E+01
 0.20993210296E+01 0.19226515256E+01 0.18001418329E+01 0.17422534333E+01 0.17599876448E+01
 0.18662936226E+01 0.20748335885E+01 0.23974544535E+01 0.28430652663E+01 0.34179949486E+01
 0.41253058201E+01 0.49599516852E+01 0.58990648420E+01 0.68926977909E+01 0.78643991110E+01
 0.87250447426E+01 0.93919348353E+01 0.98029723263E+01 0.80228405849E+01 0.80526859828E+01
 0.78646623554E+01 0.74946415802E+01 0.69988491914E+01 0.64404681281E+01 0.58771674291E+01
 0.53518776190E+01 0.48872771197E+01 0.44869456358E+01 0.41432548658E+01 0.38451404560E+01
 0.35803542960E+01 0.33357111880E+01 0.31004783063E+01 0.28703612747E+01 0.26468648167E+01
 0.24336889080E+01 0.22356518241E+01 0.20602443654E+01 0.19175286068E+01 0.18176951616E+01
 0.17698706000E+01 0.17838025752E+01 0.18718682425E+01 0.20482067484E+01 0.23244761571E+01
 0.27053697107E+01 0.31884773273E+01 0.37683791607E+01 0.44372950873E+01 0.51762526836E+01
 0.59438421109E+01 0.66767362392E+01 0.73046316779E+01 0.77671831819E+01 0.65325666036E+01
 0.66838116508E+01 0.66560975823E+01 0.64636068496E+01 0.61417987257E+01 0.57385627554E+01
 0.53029349069E+01 0.48760772450E+01 0.44860523751E+01 0.41467634715E+01 0.38607937539E+01
 0.36232984320E+01 0.34240886632E+01 0.32494017425E+01 0.30861127926E+01 0.29261680182E+01
 0.27667621500E+01 0.26072925819E+01 0.24482668777E+01 0.22931254745E+01 0.21491167591E+01
 0.20256923686E+01 0.19328002792E+01 0.18803446388E+01 0.18780964914E+01 0.19364051566E+01
 0.20675056810E+01 0.22840280398E+01 0.25932413745E+01 0.29925435083E+01 0.34713913458E+01
 0.40150319289E+01 0.46019106318E+01 0.51969713879E+01 0.57513255425E+01 0.62117372858E+01
 0.53604312558E+01 0.55777956769E+01 0.56555269912E+01 0.55923658741E+01 0.54063332325E+01
 0.51304885467E+01 0.48042308875E+01 0.44649054739E+01 0.41430581428E+01 0.38603947271E+01
 0.36285498478E+01 0.34486750238E+01 0.33128896141E+01 0.32080429917E+01 0.31206848533E+01
 0.30404580588E+01 0.29598965135E+01 0.28724758705E+01 0.27726672858E+01 0.26582793567E+01
 0.25319712978E+01 0.24008222677E+01 0.22755395708E+01 0.21690101635E+01 0.20928570980E+01
 0.20552219114E+01 0.20644692854E+01 0.21348965756E+01 0.22842232308E+01 0.25222448673E+01
 0.28434656320E+01 0.32319676819E+01 0.36697156247E+01 0.41360304751E+01 0.46007542636E+01
 0.50231890845E+01 0.44313252915E+01 0.46733091706E+01 0.48134676222E+01 0.48399564841E+01
 0.47576125535E+01 0.45864834681E+01 0.43560481641E+01 0.40987919654E+01 0.38457995459E+01
 0.36232843152E+01 0.34487177229E+01 0.33282831383E+01 0.32579984287E+01 0.32278686278E+01
 0.32261344856E+01 0.32412445847E+01 0.32612313127E+01 0.32724657280E+01 0.32607238549E+01
 0.32150363738E+01 0.31310913908E+01 0.30115619346E+01 0.28649794784E+01 0.27053044160E+01
 0.25503182322E+01 0.24169631365E+01 0.23176546474E+01 0.22626206121E+01 0.22649294285E+01
 0.23396230802E+01 0.24959734387E+01 0.27314418338E+01 0.30329540629E+01 0.33811007737E+01
 0.37512745108E+01 0.41128945290E+01 0.36949129413E+01 0.39288987763E+01 0.40964401302E+01
 0.41793259914E+01 0.41728668426E+01 0.40864342303E+01 0.39403449143E+01 0.37616736929E+01
 0.35802117900E+01 0.34237699347E+01 0.33130009154E+01 0.32583888827E+01 0.32613614817E+01
 0.33177269974E+01 0.34199016722E+01 0.35565873900E+01 0.37112515015E+01 0.38615744495E+01
 0.39817745809E+01 0.40481541994E+01 0.40449429934E+01 0.39664509088E+01 0.38159120871E+01
 0.36054342578E+01 0.33576008186E+01 0.31027984871E+01 0.28695561072E+01 0.26758742327E+01
 0.25310199425E+01 0.24446744646E+01 0.24307317305E+01 0.25003552435E+01 0.26526492323E+01
 0.28729070674E+01 0.31379833065E+01 0.34214337820E+01 0.31257985439E+01 0.33237072372E+01
 0.34882816162E+01 0.35982916449E+01 0.36422180343E+01 0.36210369919E+01 0.35475125817E+01
 0.34431066722E+01 0.33342592071E+01 0.32481298709E+01 0.32076987458E+01 0.32283394600E+01
 0.33182114431E+01 0.34808666476E+01 0.37154898276E+01 0.40131933285E+01 0.43530817930E+01
 0.47023622203E+01 0.50208511969E+01 0.52676472484E+01 0.54081520875E+01 0.54200088048E+01
 0.52964475946E+01 0.50470401223E+01 0.46972749432E+01 0.42864091359E+01 0.38606657823E+01
 0.34620193267E+01 0.31191792253E+01 0.28473555111E+01 0.26549345458E+01 0.25485586663E+01
 0.25315739700E+01 0.25991940452E+01 0.27364992750E+01 0.29208634794E+01 0.27190654699E+01
 0.28536912209E+01 0.29870122756E+01 0.30964548578E+01 0.31659656035E+01 0.31901209863E+01
 0.31753858771E+01 0.31377333458E+01 0.30992401932E+01 0.30851256215E+01 0.31203735711E+01
 0.32264302295E+01 0.34203295808E+01 0.37156580760E+01 0.41206497784E+01 0.46312465575E+01
 0.52241419269E+01 0.58562274538E+01 0.64702576417E+01 0.70020459956E+01 0.73880924578E+01
 0.75762772579E+01 0.75381330453E+01 0.72755439547E+01 0.68180163088E+01 0.62152757868E+01
 0.55309209530E+01 0.48352018024E+01 0.41922143906E+01 0.36452690233E+01 0.32115682973E+01
 0.28906708786E+01 0.26774055055E+01 0.25668087979E+01 0.25498342295E+01 0.26088252597E+01
 0.24824999988E+01 0.25258008360E+01 0.26000793249E+01 0.26816075514E+01 0.27517177289E+01
 0.28002713939E+01 0.28278467703E+01 0.28450991948E+01 0.28703009729E+01 0.29268642858E+01
 0.30413361506E+01 0.32417814374E+01 0.35566635362E+01 0.40130007999E+01 0.46310617690E+01
 0.54150724133E+01 0.63441764363E+01 0.73688942384E+01 0.84138194667E+01 0.93838270660E+01
 0.10173607092E+02 0.10683730002E+02 0.10842738244E+02 0.10626324771E+02 0.10062726482E+02
 0.92225176728E+01 0.82012993655E+01 0.71038325279E+01 0.60302592860E+01 0.50616806864E+01
 0.42480055800E+01 0.36057045464E+01 0.31275559111E+01 0.27963636927E+01 0.25928543452E+01
 0.24961753451E+01 0.24308334656E+01 0.23525393897E+01 0.23395451856E+01 0.23660596712E+01
 0.24114043054E+01 0.24619119897E+01 0.25128286136E+01 0.25696046353E+01 0.26472776274E+01
 0.27683846140E+01 0.29615905018E+01 0.32619983748E+01 0.37110214867E+01 0.43524704405E+01
 0.52237161054E+01 0.63440647516E+01 0.77035959814E+01 0.92545281719E+01 0.10906374216E+02
 0.12527190488E+02 0.13954407234E+02 0.15017719390E+02 0.15572567099E+02 0.15536285834E+02
 0.14912712497E+02 0.13791513775E+02 0.12320674322E+02 0.10667279225E+02 0.89865850087E+01
 0.74067017510E+01 0.60212911769E+01 0.48829717291E+01 0.40013675093E+01 0.33529488527E+01
 0.28994846066E+01 0.26031038568E+01 0.25892322744E+01 0.23511257578E+01 0.22196183070E+01
 0.21634086034E+01 0.21581129389E+01 0.21866048799E+01 0.22399003722E+01 0.23186329014E+01
 0.24341164436E+01 0.26082375023E+01 0.28732057665E+01 0.32724035235E+01 0.38608687523E+01
 0.47016480198E+01 0.58559473556E+01 0.73689858112E+01 0.92546738189E+01 0.11479964859E+02
 0.13949397265E+02 0.16495252671E+02 0.18883563887E+02 0.20843378018E+02 0.22116885733E+02
 0.22518323708E+02 0.21983721338E+02 0.20591921104E+02 0.18543977794E+02 0.16106684040E+02
 0.13546484356E+02 0.11082834830E+02 0.88707568034E+01 0.70014147747E+01 0.55076012017E+01
 0.43728423518E+01 0.35480552909E+01 0.29724563438E+01 0.30054352718E+01 0.25493006486E+01
 0.22586625710E+01 0.20881288580E+01 0.20047963962E+01 0.19861672709E+01 0.20192113166E+01
 0.21002816205E+01 0.22365408600E+01 0.24484516259E+01 0.27718686948E+01 0.32593173026E+01
 0.39805517945E+01 0.50204039407E+01 0.64705556644E+01 0.84143700584E+01 0.10906729943E+02
 0.13949474005E+02 0.17461873998E+02 0.21252668374E+02 0.25011566675E+02 0.28338550881E+02
 0.30812674166E+02 0.32082005746E+02 0.31948332918E+02 0.30422517970E+02 0.27730142420E+02
 0.24256421663E+02 0.20443955486E+02 0.16685705508E+02 0.13259545254E+02 0.10319811945E+02
 0.79237559913E+01 0.60615068324E+01 0.46773712859E+01 0.36884864561E+01 0.37615540196E+01
 0.29943526290E+01 0.24845009383E+01 0.21585647540E+01 0.19658290238E+01 0.18734246533E+01
 0.18620979204E+01 0.19236252688E+01 0.20612613217E+01 0.22932502819E+01 0.26572039437E+01
 0.32134815326E+01 0.40472301920E+01 0.52678626583E+01 0.70029773616E+01 0.93846663647E+01
 0.12527488011E+02 0.16495136956E+02 0.21252509500E+02 0.26611369109E+02 0.32196462429E+02
 0.37443275788E+02 0.41651639668E+02 0.44303094475E+02 0.45096849302E+02 0.43899413083E+02
 0.40781228430E+02 0.36129267381E+02 0.30662388569E+02 0.25068608334E+02 0.19859216182E+02
 0.15336205209E+02 0.11616073997E+02 0.86917150044E+01 0.64860896683E+01 0.48852544566E+01
 0.49786827964E+01 0.37604651636E+01 0.29401403749E+01 0.24006180620E+01 0.20591287135E+01
 0.18628048104E+01 0.17812979304E+01 0.17999966165E+01 0.19175515585E+01 0.21489283093E+01
 0.25314505595E+01 0.31307099947E+01 0.40452878650E+01 0.54092195702E+01 0.73892297537E+01
 0.10174134373E+02 0.13954196788E+02 0.18883028976E+02 0.25011193465E+02 0.32196391725E+02
 0.39942253756E+02 0.47181000268E+02 0.53038792348E+02 0.57076971102E+02 0.59115959855E+02
 0.59020867951E+02 0.56627867991E+02 0.51884922161E+02 0.45122020769E+02 0.37251457771E+02
 0.29549822669E+02 0.22738508186E+02 0.17088331252E+02 0.12623760451E+02 0.92321916602E+01
 0.67446791223E+01 0.68136920383E+01 0.49514183568E+01 0.36885092828E+01 0.28504934944E+01
 0.23069013506E+01 0.19703034330E+01 0.17901839959E+01 0.17417586380E+01 0.18169200990E+01
 0.20248695968E+01 0.24004020399E+01 0.30120290481E+01 0.39677715822E+01 0.54214284404E+01
 0.75769244475E+01 0.10683371494E+02 0.15016821749E+02 0.20842580862E+02 0.28338215436E+02
 0.37443373503E+02 0.47181216328E+02 0.55970408841E+02 0.62837309236E+02 0.67559066969E+02
 0.70371908560E+02 0.71491438572E+02 0.70762527617E+02 0.67685569522E+02 0.61820893519E+02
 0.53318063204E+02 0.43227791550E+02 0.33345607174E+02 0.24976100698E+02 0.18315135062E+02
 0.13235565377E+02 0.94914547566E+01 0.94477991623E+01 0.66949379202E+01 0.48137167452E+01
 0.35575621178E+01 0.27367669615E+01 0.22138770454E+01 0.19027190534E+01 0.17601929634E+01
 0.17696856589E+01 0.19322761673E+01 0.22751092948E+01 0.28652617635E+01 0.38169255715E+01
 0.52972708731E+01 0.75378346374E+01 0.10841487925E+02 0.15571381252E+02 0.22116445584E+02
 0.30812863067E+02 0.41652065730E+02 0.53039204583E+02 0.62837539938E+02 0.69804220123E+02
 0.73915984573E+02 0.76090912257E+02 0.77412552174E+02 0.78281375303E+02 0.78048616400E+02
 0.75402036559E+02 0.69255129213E+02 0.59576325800E+02 0.47694215724E+02 0.35944337768E+02
 0.26278869580E+02 0.18862926882E+02 0.13381801967E+02 0.13064981673E+02 0.91248867066E+01
 0.64127165154E+01 0.45854092508E+01 0.33850312808E+01 0.26145085259E+01 0.21339507256E+01
 0.18665862549E+01 0.17842749482E+01 0.18808628164E+01 0.21692755462E+01 0.27053609130E+01
 0.36055221767E+01 0.50468825682E+01 0.72745871478E+01 0.10624873880E+02 0.15535517871E+02
 0.22518814427E+02 0.32083028358E+02 0.44303735278E+02 0.57077162313E+02 0.67559143608E+02
 0.73916015560E+02 0.76025302102E+02 0.75491475722E+02 0.74764883174E+02 0.75654257385E+02
 0.78124750968E+02 0.80252933129E+02 0.79395047134E+02 0.73747613434E+02 0.63342682178E+02
 0.50079615110E+02 0.36973076522E+02 0.26475619043E+02 0.18675789166E+02 0.17819137439E+02
 0.12354012028E+02 0.85743770049E+01 0.60037690734E+01 0.42979479320E+01 0.31971499363E+01
 0.24990279756E+01 0.20744157946E+01 0.18716703794E+01 0.18786489764E+01 0.20937459306E+01
 0.25506600337E+01 0.33572417812E+01 0.46966392510E+01 0.68172529279E+01 0.10061997566E+02
 0.14912762889E+02 0.21984973001E+02 0.31949836876E+02 0.45097309825E+02 0.59115435360E+02
 0.70371410975E+02 0.76090796588E+02 0.75491403591E+02 0.70393158803E+02 0.64694441976E+02
 0.62461145726E+02 0.65527649213E+02 0.72290952720E+02 0.78663690490E+02 0.80462201794E+02
 0.75534967681E+02 0.64501667841E+02 0.50174654944E+02 0.36317628559E+02 0.25581801338E+02
 0.23783256635E+02 0.16443679604E+02 0.11352932788E+02 0.78675640496E+01 0.55231093917E+01
 0.39903945692E+01 0.30120955505E+01 0.23971937757E+01 0.20472752459E+01 0.19358653116E+01
 0.20556481378E+01 0.24174350639E+01 0.31024764937E+01 0.42858192490E+01 0.62152129211E+01
 0.92229303131E+01 0.13792202436E+02 0.20593015953E+02 0.30423549882E+02 0.43899302547E+02
 0.59019600653E+02 0.71490399585E+02 0.77412502837E+02 0.74765030365E+02 0.64694180641E+02
 0.51852697265E+02 0.42754121401E+02 0.42372128690E+02 0.51103540781E+02 0.64465096711E+02
 0.75801609251E+02 0.79895350929E+02 0.75078617125E+02 0.63160418768E+02 0.48058853314E+02
 0.34151847728E+02 0.30866028449E+02 0.21366828089E+02 0.14744337232E+02 0.10190807919E+02
 0.70893339735E+01 0.50218323806E+01 0.36879819838E+01 0.28439020356E+01 0.23242976440E+01
 0.20665826449E+01 0.20641076005E+01 0.23178674992E+01 0.28693122442E+01 0.38600943616E+01
 0.55311742305E+01 0.82024237219E+01 0.12321541375E+02 0.18544122341E+02 0.27729918261E+02
 0.40780539420E+02 0.56626555283E+02 0.70761555591E+02 0.78281747574E+02 0.75655179425E+02
 0.62461117051E+02 0.42753380158E+02 0.24507806340E+02 0.16176296698E+02 0.21902797201E+02
 0.38890142071E+02 0.59114247138E+02 0.74008599764E+02 0.78577165252E+02 0.72618771859E+02
 0.59481977890E+02 0.44047997325E+02 0.38702469611E+02 0.26953251636E+02 0.18662433237E+02
 0.12927203001E+02 0.89843865083E+01 0.63050535847E+01 0.45423711336E+01 0.34189657223E+01
 0.27062863553E+01 0.22839012789E+01 0.21345350983E+01 0.22628050035E+01 0.26758989972E+01
 0.34614461375E+01 0.48351043623E+01 0.71048019800E+01 0.10668004618E+02 0.16105992791E+02
 0.24255074672E+02 0.36128426999E+02 0.51884529315E+02 0.67685443590E+02 0.78049347444E+02
 0.78126200776E+02 0.65528323280E+02 0.42371346847E+02 0.16175350278E+02 -.23892437871E+01
 -.48780660104E+01 0.98129805565E+01 0.34693199970E+02 0.58976052363E+02 0.73959766923E+02
 0.76375417045E+02 0.68062328116E+02 0.53721423058E+02 0.46391169491E+02 0.32830543158E+02
 0.22908499871E+02 0.15959786513E+02 0.11142371529E+02 0.78203711231E+01 0.55812529575E+01
 0.41251315652E+01 0.31891293646E+01 0.25935517873E+01 0.22841156175E+01 0.22652807755E+01
 0.25315823321E+01 0.31190023449E+01 0.41917183392E+01 0.60305356903E+01 0.89870737328E+01
 0.13545750722E+02 0.20442416526E+02 0.30661875018E+02 0.45122899353E+02 0.61821900385E+02
 0.75402655817E+02 0.80253674348E+02 0.72291570467E+02 0.51103238468E+02 0.21901980201E+02
 -.48783388737E+01 -.17914865422E+02 -.11362311884E+02 0.11447937646E+02 0.40106189140E+02
 0.63301013326E+02 0.74277992675E+02 0.72379891178E+02 0.61282706238E+02 0.52577547502E+02
 0.38414035739E+02 0.27148778732E+02 0.19094749660E+02 0.13443393165E+02 0.95007588649E+01
 0.67813921746E+01 0.49591868183E+01 0.37682018092E+01 0.29924540754E+01 0.25218186271E+01
 0.23396113927E+01 0.24453875264E+01 0.28477662834E+01 0.36448611168E+01 0.50613804082E+01
 0.74069392395E+01 0.11082637889E+02 0.16684835869E+02 0.25068551214E+02 0.37252968270E+02
 0.53319633955E+02 0.69255255736E+02 0.79394268343E+02 0.78663137293E+02 0.64464775457E+02
 0.38889873185E+02 0.98132684977E+01 -.11361576995E+02 -.15394199906E+02 -.76957611937E+00
 0.25325881019E+02 0.51496035855E+02 0.68439189662E+02 0.72583294025E+02 0.65726809074E+02
 0.56451235932E+02 0.42931809195E+02 0.30936771551E+02 0.22063770409E+02 0.15719852227E+02
 0.11233807052E+02 0.80784537819E+01 0.58987430772E+01 0.44372146152E+01 0.34713444730E+01
 0.28428509085E+01 0.24953086605E+01 0.24308874517E+01 0.26554732819E+01 0.32114970096E+01
 0.42475514224E+01 0.60212940394E+01 0.88710157320E+01 0.13259479624E+02 0.19859392767E+02
 0.29550956017E+02 0.43228913301E+02 0.59575891855E+02 0.73745911320E+02 0.80460841331E+02
 0.75801174360E+02 0.59114226253E+02 0.34693590335E+02 0.11449003458E+02 -.76858873326E+00
 0.33444134034E+01 0.21232867251E+02 0.44138417022E+02 0.62389487302E+02 0.70206643960E+02
 0.67124840140E+02 0.57901496180E+02 0.45717786622E+02 0.33802191425E+02 0.24552206117E+02
 0.17768157536E+02 0.12877804244E+02 0.93748456054E+01 0.68923419534E+01 0.51765775984E+01
 0.40157353091E+01 0.32320622566E+01 0.27308498610E+01 0.25000222717E+01 0.25487950441E+01
 0.28907485863E+01 0.36053473873E+01 0.48828319597E+01 0.70017623955E+01 0.10320126330E+02
 0.15336330664E+02 0.22738806687E+02 0.33345753779E+02 0.47693379174E+02 0.63341196295E+02
 0.75534255683E+02 0.79895821021E+02 0.74009155409E+02 0.58976047665E+02 0.40106261931E+02
 0.25326412932E+02 0.21233254513E+02 0.29168685844E+02 0.44413031058E+02 0.59227911523E+02
 0.67287368341E+02 0.66317667258E+02 0.57276618462E+02 0.46555290434E+02 0.35378990834E+02
 0.26262601147E+02 0.19373984853E+02 0.14281786758E+02 0.10559414877E+02 0.78634161362E+01
 0.59438223165E+01 0.46028047095E+01 0.36705063672E+01 0.30330041159E+01 0.26524682637E+01
 0.25316998504E+01 0.26775062666E+01 0.31272970278E+01 0.40011844018E+01 0.55078712117E+01
 0.79240776190E+01 0.11616020933E+02 0.17088054909E+02 0.24975667099E+02 0.35943507365E+02
 0.50078837421E+02 0.64502095407E+02 0.75080364096E+02 0.78578676437E+02 0.73959762577E+02
 0.63300037814E+02 0.51495282151E+02 0.44138098795E+02 0.44412814637E+02 0.51179918548E+02
 0.59821431637E+02 0.65174471167E+02 0.64281189924E+02 0.55027208717E+02 0.45569607947E+02
 0.35508835577E+02 0.26994185182E+02 0.20355645219E+02 0.15305659334E+02 0.11524095067E+02
 0.87246059528E+01 0.66764982937E+01 0.51972816515E+01 0.41365013907E+01 0.33811858597E+01
 0.28728586512E+01 0.25994542671E+01 0.25670640538E+01 0.27961807622E+01 0.33527057673E+01
 0.43730451077E+01 0.60618077822E+01 0.86915459291E+01 0.12623304150E+02 0.18314813061E+02
 0.26278610182E+02 0.36972952109E+02 0.50175363915E+02 0.63162106289E+02 0.72620194463E+02
 0.76375379966E+02 0.74276920071E+02 0.68438267446E+02 0.62389005414E+02 0.59227486671E+02
 0.59821102286E+02 0.62385249148E+02 0.63786108539E+02 0.61530494168E+02 0.51459460226E+02
 0.43048651869E+02 0.34270492375E+02 0.26698863570E+02 0.20612215555E+02 0.15844158128E+02
 0.12175969899E+02 0.93932534646E+01 0.73051469731E+01 0.57513495574E+01 0.46005810240E+01
 0.37507638998E+01 0.31374710198E+01 0.27366014728E+01 0.25502759523E+01 0.25928352591E+01
 0.28991210043E+01 0.35481116749E+01 0.46777471396E+01 0.64860004409E+01 0.92316947689E+01
 0.13235488807E+02 0.18863417515E+02 0.26476095227E+02 0.36317948104E+02 0.48059199498E+02
 0.59481916837E+02 0.68061407030E+02 0.72378859154E+02 0.72583275062E+02 0.70207389124E+02
 0.67287737727E+02 0.65174272158E+02 0.63785996224E+02 0.61853599917E+02 0.57940458583E+02
 0.46730172046E+02 0.39336553596E+02 0.31932232771E+02 0.25485618603E+02 0.20151280098E+02
 0.15852447880E+02 0.12452601308E+02 0.98049644650E+01 0.77680286053E+01 0.62116593654E+01
 0.50229223639E+01 0.41123580833E+01 0.34206255437E+01 0.29205478601E+01 0.26092425560E+01
 0.24964239601E+01 0.26027228144E+01 0.29722313933E+01 0.36888595253E+01 0.48854354394E+01
 0.67442289250E+01 0.94912580931E+01 0.13382510328E+02 0.18676651259E+02 0.25581897150E+02
 0.34151208217E+02 0.44046868913E+02 0.53719864808E+02 0.61281509428E+02 0.65727210783E+02
 0.67126613005E+02 0.66319044698E+02 0.64281322735E+02 0.61530356736E+02 0.57940750362E+02
 0.53072985900E+02 0.40965285590E+02 0.35377409104E+02 0.29998485962E+02 0.25197581113E+02
 0.21059330799E+02 0.17568153917E+02 0.14659759797E+02 0.12255609889E+02 0.10274739633E+02
 0.86362361439E+01 0.72649876783E+01 0.61025428856E+01 0.51164404207E+01 0.43004917228E+01
 0.36654948588E+01 0.32282410327E+01 0.30074773511E+01 0.30289156169E+01 0.33359861013E+01
 0.40021123157E+01 0.51394445655E+01 0.68976956260E+01 0.94500478235E+01 0.12969486953E+02
 0.17597580279E+02 0.23395436386E+02 0.30261568674E+02 0.37828805636E+02 0.45258803840E+02
 0.51241788739E+02 0.54976023107E+02 0.56360931859E+02 0.55763601597E+02 0.53663367979E+02
 0.50390933038E+02 0.46102956364E+02 0.34306116484E+02 0.30150953817E+02 0.26139929800E+02
 0.22467518642E+02 0.19223231308E+02 0.16420728574E+02 0.14031860747E+02 0.12010315857E+02
 0.10301482913E+02 0.88463012483E+01 0.75872631898E+01 0.64786596021E+01 0.54965496290E+01
 0.46410950208E+01 0.39287062087E+01 0.33805150287E+01 0.30162785504E+01 0.28560264253E+01
 0.29259313024E+01 0.32664951837E+01 0.39425387868E+01 0.50494460323E+01 0.67069539240E+01
 0.90389873050E+01 0.12147223230E+02 0.16082970090E+02 0.20809979024E+02 0.26151202713E+02
 0.31737791318E+02 0.37009409997E+02 0.41260653080E+02 0.43871487692E+02 0.44657340677E+02
 0.43773189350E+02 0.41524069221E+02 0.38246167684E+02 0.27958407310E+02 0.25095797161E+02
 0.22219797381E+02 0.19508005022E+02 0.17054741903E+02 0.14891814233E+02 0.13013832936E+02
 0.11395210078E+02 0.99976342382E+01 0.87750518404E+01 0.76813567225E+01 0.66805101178E+01
 0.57554256438E+01 0.49107998464E+01 0.41673244076E+01 0.35509756526E+01 0.30851628534E+01
 0.27896741341E+01 0.26839077383E+01 0.27915957630E+01 0.31476942492E+01 0.38064352046E+01
 0.48437167975E+01 0.63470656752E+01 0.83946462506E+01 0.11031179181E+02 0.14245183975E+02
 0.17944558174E+02 0.21929743174E+02 0.25879702928E+02 0.29379620467E+02 0.32006321132E+02
 0.33446294915E+02 0.33586866463E+02 0.32532108090E+02 0.30545036448E+02 0.22374177756E+02
 0.20505690959E+02 0.18521206948E+02 0.16579328035E+02 0.14777144215E+02 0.13159500387E+02
 0.11736217433E+02 0.10495273688E+02 0.94086953225E+01 0.84372879187E+01 0.75398292243E+01
 0.66850191971E+01 0.58601936822E+01 0.50727697076E+01 0.43448545081E+01 0.37047225558E+01
 0.31795472450E+01 0.27919327808E+01 0.25602080491E+01 0.25012980830E+01 0.26352644163E+01
 0.29906892216E+01 0.36091568641E+01 0.45454060112E+01 0.58587209935E+01 0.75939227962E+01
 0.97573956672E+01 0.12297991191E+02 0.15097759242E+02 0.17970222893E+02 0.20667771761E+02
 0.22910525307E+02 0.24444642449E+02 0.25112428294E+02 0.24896819560E+02 0.23915596311E+02
 0.17670527265E+02 0.16527391513E+02 0.15213742577E+02 0.13863303453E+02 0.12569960521E+02
 0.11387584357E+02 0.10338328047E+02 0.94205257884E+01 0.86131884934E+01 0.78812551876E+01
 0.71856997447E+01 0.64963543697E+01 0.58010598242E+01 0.51069470048E+01 0.44351562814E+01
 0.38135095653E+01 0.32705279891E+01 0.28315026768E+01 0.25165714741E+01 0.23414080381E+01
 0.23202710684E+01 0.24694592199E+01 0.28100470189E+01 0.33705846568E+01 0.41879147270E+01
 0.52997682690E+01 0.67262492744E+01 0.84487481862E+01 0.10399319904E+02 0.12463376486E+02
 0.14488239715E+02 0.16295146550E+02 0.17702956599E+02 0.18567119699E+02 0.18819294022E+02
 0.18485069524E+02 0.13830084831E+02 0.13195519929E+02 0.12371216775E+02 0.11462809690E+02
 0.10554726613E+02 0.97049928847E+01 0.89459502023E+01 0.82850689036E+01 0.77070146282E+01
 0.71805365502E+01 0.66696414521E+01 0.61450199028E+01 0.55921764123E+01 0.50142148896E+01
 0.44286933388E+01 0.38608890761E+01 0.33378434588E+01 0.28851790486E+01 0.25251112706E+01
 0.22748383794E+01 0.21471665108E+01 0.21537019009E+01 0.23074715825E+01 0.26232695973E+01
 0.31180563298E+01 0.38119313961E+01 0.47242671765E+01 0.58606436257E+01 0.71959456010E+01
 0.86650501139E+01 0.10167015819E+02 0.11579282381E+02 0.12775782699E+02 0.13646384524E+02
 0.14116875646E+02 0.14165707555E+02 0.10769283196E+02 0.10478548332E+02 0.10002740421E+02
 0.94188638005E+01 0.87980490781E+01 0.81972824300E+01 0.76550012345E+01 0.71864613289E+01
 0.67826413978E+01 0.64173322755E+01 0.60591328583E+01 0.56813167713E+01 0.52675054934E+01
 0.48148492413E+01 0.43341387498E+01 0.38455402702E+01 0.33727562338E+01 0.29396234808E+01
 0.25685679335E+01 0.22783153463E+01 0.20823049107E+01 0.19907623837E+01 0.20142016299E+01
 0.21634475563E+01 0.24470131815E+01 0.28714392969E+01 0.34448723879E+01 0.41761623007E+01
 0.50640777784E+01 0.60823836785E+01 0.71728293797E+01 0.82522695404E+01 0.92290863459E+01
 0.10019341642E+02 0.10558102427E+02 0.10808364961E+02 0.83824231686E+01 0.83134009343E+01
 0.80791732561E+01 0.77301084758E+01 0.73221769181E+01 0.69067060404E+01 0.65229839673E+01
 0.61916837922E+01 0.59113657576E+01 0.56630703327E+01 0.54213537137E+01 0.51636099980E+01
 0.48737149090E+01 0.45435842816E+01 0.41753340018E+01 0.37813656058E+01 0.33805634142E+01
 0.29937145673E+01 0.26410786251E+01 0.23409701234E+01 0.21080703118E+01 0.19531269413E+01
 0.18850541500E+01 0.19129607203E+01 0.20455796744E+01 0.22890974953E+01 0.26460790534E+01
 0.31162123875E+01 0.36966772539E+01 0.43787964611E+01 0.51402338513E+01 0.59379735615E+01
 0.67102516406E+01 0.73892581189E+01 0.79166204194E+01 0.82530942492E+01 0.65568395592E+01
 0.66214214657E+01 0.65483501104E+01 0.63662109503E+01 0.61151768311E+01 0.58375637403E+01
 0.55693580551E+01 0.53336257850E+01 0.51362912341E+01 0.49676562724E+01 0.48101873579E+01
 0.46463566829E+01 0.44613123936E+01 0.42432797188E+01 0.39865280855E+01 0.36948994884E+01
 0.33807928316E+01 0.30603187922E+01 0.27497950662E+01 0.24651258917E+01 0.22212019636E+01
 0.20301693164E+01 0.19008806245E+01 0.18409308195E+01 0.18591265970E+01 0.19650215360E+01
 0.21647985533E+01 0.24571583873E+01 0.28341710837E+01 0.32864662854E+01 0.38048551623E+01
 0.43730422090E+01 0.49584278824E+01 0.55133548651E+01 0.59880107784E+01 0.63435019635E+01
 0.51786482173E+01 0.53157743141E+01 0.53445224410E+01 0.52778232009E+01 0.51410969307E+01
 0.49662014849E+01 0.47836654364E+01 0.46162076208E+01 0.44750525378E+01 0.43600517390E+01