   3   3   0   0
  0.2984351E+02  0.4524640E-09  0.4524640E-09  0.5049780E-09  0.5000000E-15
  1.000000000000000E-004
  CAR 
 Se                                      
     33.98732608    -15.80472623  301      2.14115929      1.00000000
    -15.805  0.0000E+00  0.0000E+00
    -15.639  0.0000E+00  0.0000E+00
    -15.473  0.0000E+00  0.0000E+00
    -15.307  0.0000E+00  0.0000E+00
    -15.141  0.0000E+00  0.0000E+00
    -14.975  0.0000E+00  0.0000E+00
    -14.809  0.0000E+00  0.0000E+00
    -14.643  0.0000E+00  0.0000E+00
    -14.477  0.0000E+00  0.0000E+00
    -14.311  0.0000E+00  0.0000E+00
    -14.145  0.0000E+00  0.0000E+00
    -13.979  0.0000E+00  0.0000E+00
    -13.813  0.1842E-15  0.3057E-16
    -13.647  0.3434E-04  0.5699E-05
    -13.481  0.1543E+00  0.2561E-01
    -13.315  0.1024E+01  0.1955E+00
    -13.149  0.2544E+01  0.6176E+00
    -12.983  0.2393E+01  0.1015E+01
    -12.817  0.1903E+01  0.1331E+01
    -12.651  0.1309E+01  0.1548E+01
    -12.485  0.1244E+01  0.1754E+01
    -12.319  0.8495E+00  0.1895E+01
    -12.153  0.1772E+01  0.2189E+01
    -11.987  0.3649E+00  0.2250E+01
    -11.821  0.4649E+00  0.2327E+01
    -11.655  0.2244E+01  0.2700E+01
    -11.489  0.3038E+00  0.2750E+01
    -11.323  0.2678E-03  0.2750E+01
    -11.157  0.1120E+01  0.2936E+01
    -10.991  0.1892E+01  0.3250E+01
    -10.826  0.3131E-03  0.3250E+01
    -10.660  0.1962E-03  0.3250E+01
    -10.494  0.2153E+01  0.3607E+01
    -10.328  0.8592E+00  0.3750E+01
    -10.162  0.8524E-02  0.3751E+01
     -9.996  0.7556E+00  0.3877E+01
     -9.830  0.7793E+00  0.4006E+01
     -9.664  0.1450E+01  0.4247E+01
     -9.498  0.2304E-01  0.4251E+01
     -9.332  0.1166E+01  0.4444E+01
     -9.166  0.1198E+01  0.4643E+01
     -9.000  0.7315E+00  0.4764E+01
     -8.834  0.1397E+01  0.4996E+01
     -8.668  0.1037E+01  0.5168E+01
     -8.502  0.2168E+01  0.5528E+01
     -8.336  0.1336E+01  0.5750E+01
     -8.170  0.7006E+00  0.5866E+01
     -8.004  0.5034E+00  0.5950E+01
     -7.838  0.2489E+00  0.5991E+01
     -7.672  0.5348E-01  0.6000E+01
     -7.506  0.2782E-03  0.6000E+01
     -7.340  0.0000E+00  0.6000E+01
     -7.174  0.0000E+00  0.6000E+01
     -7.008  0.0000E+00  0.6000E+01
     -6.842  0.0000E+00  0.6000E+01
     -6.676  0.0000E+00  0.6000E+01
     -6.510  0.0000E+00  0.6000E+01
     -6.344  0.0000E+00  0.6000E+01
     -6.178  0.0000E+00  0.6000E+01
     -6.012  0.0000E+00  0.6000E+01
     -5.846  0.0000E+00  0.6000E+01
     -5.680  0.0000E+00  0.6000E+01
     -5.514  0.0000E+00  0.6000E+01
     -5.348  0.0000E+00  0.6000E+01
     -5.182  0.0000E+00  0.6000E+01
     -5.016  0.0000E+00  0.6000E+01
     -4.850  0.0000E+00  0.6000E+01
     -4.685  0.0000E+00  0.6000E+01
     -4.519  0.0000E+00  0.6000E+01
     -4.353  0.0000E+00  0.6000E+01
     -4.187  0.0000E+00  0.6000E+01
     -4.021  0.0000E+00  0.6000E+01
     -3.855  0.1499E-12  0.6000E+01
     -3.689  0.9130E-03  0.6000E+01
     -3.523  0.4226E+00  0.6070E+01
     -3.357  0.1722E+01  0.6356E+01
     -3.191  0.1082E+01  0.6536E+01
     -3.025  0.2111E+01  0.6886E+01
     -2.859  0.3358E+01  0.7443E+01
     -2.693  0.5019E+01  0.8276E+01
     -2.527  0.3995E+01  0.8939E+01
     -2.361  0.2465E+01  0.9349E+01
     -2.195  0.2225E+01  0.9718E+01
     -2.029  0.1758E+01  0.1001E+02
     -1.863  0.1483E+01  0.1026E+02
     -1.697  0.1612E+01  0.1052E+02
     -1.531  0.1532E+01  0.1078E+02
     -1.365  0.3632E+01  0.1138E+02
     -1.199  0.2726E+01  0.1183E+02
     -1.033  0.8581E+00  0.1198E+02
     -0.867  0.1216E+00  0.1200E+02
     -0.701  0.5212E+00  0.1208E+02
     -0.535  0.1042E+01  0.1225E+02
     -0.369  0.1117E+01  0.1244E+02
     -0.203  0.1990E+01  0.1277E+02
     -0.037  0.2141E+01  0.1313E+02
      0.129  0.2427E+01  0.1353E+02
      0.295  0.4093E+01  0.1421E+02
      0.461  0.3912E+01  0.1486E+02
      0.627  0.3373E+01  0.1542E+02
      0.793  0.2208E+01  0.1578E+02
      0.959  0.2405E+01  0.1618E+02
      1.125  0.3253E+01  0.1672E+02
      1.291  0.3123E+01  0.1724E+02
      1.457  0.2381E+01  0.1764E+02
      1.622  0.1011E+01  0.1780E+02
      1.788  0.1111E+01  0.1799E+02
      1.954  0.7079E-01  0.1800E+02
      2.120  0.4890E-05  0.1800E+02
      2.286  0.0000E+00  0.1800E+02
      2.452  0.0000E+00  0.1800E+02
      2.618  0.0000E+00  0.1800E+02
      2.784  0.1788E-05  0.1800E+02
      2.950  0.9677E-01  0.1802E+02
      3.116  0.7042E-01  0.1803E+02
      3.282  0.1162E+01  0.1822E+02
      3.448  0.3108E+01  0.1874E+02
      3.614  0.2649E+01  0.1918E+02
      3.780  0.4197E+01  0.1987E+02
      3.946  0.3443E+01  0.2044E+02
      4.112  0.1648E+01  0.2072E+02
      4.278  0.4041E+01  0.2139E+02
      4.444  0.3497E+01  0.2197E+02
      4.610  0.3453E+01  0.2254E+02
      4.776  0.2762E+01  0.2300E+02
      4.942  0.2219E+01  0.2337E+02
      5.108  0.1220E+01  0.2357E+02
      5.274  0.1328E+01  0.2379E+02
      5.440  0.7767E+00  0.2392E+02
      5.606  0.4213E+00  0.2399E+02
      5.772  0.5824E-01  0.2400E+02
      5.938  0.5699E-05  0.2400E+02
      6.104  0.0000E+00  0.2400E+02
      6.270  0.0000E+00  0.2400E+02
      6.436  0.0000E+00  0.2400E+02
      6.602  0.0000E+00  0.2400E+02
      6.768  0.0000E+00  0.2400E+02
      6.934  0.0000E+00  0.2400E+02
      7.100  0.0000E+00  0.2400E+02
      7.266  0.1286E-09  0.2400E+02
      7.432  0.8054E-02  0.2400E+02
      7.598  0.1363E+00  0.2402E+02
      7.764  0.7414E+00  0.2415E+02
      7.929  0.2050E+01  0.2449E+02
      8.095  0.2391E+01  0.2488E+02
      8.261  0.3854E+01  0.2552E+02
      8.427  0.3167E+01  0.2605E+02
      8.593  0.1676E+01  0.2633E+02
      8.759  0.8217E+00  0.2646E+02
      8.925  0.2201E+01  0.2683E+02
      9.091  0.2592E+01  0.2726E+02
      9.257  0.2157E+01  0.2762E+02
      9.423  0.2121E+01  0.2797E+02
      9.589  0.1722E+01  0.2826E+02
      9.755  0.3134E+01  0.2878E+02
      9.921  0.2651E+01  0.2922E+02
     10.087  0.2539E+01  0.2964E+02
     10.253  0.1991E+01  0.2997E+02
     10.419  0.3424E+01  0.3054E+02
     10.585  0.2282E+01  0.3091E+02
     10.751  0.1832E+01  0.3122E+02
     10.917  0.3463E+01  0.3179E+02
     11.083  0.2081E+01  0.3214E+02
     11.249  0.1423E+01  0.3237E+02
     11.415  0.2436E+01  0.3278E+02
     11.581  0.2230E+01  0.3315E+02
     11.747  0.3482E+01  0.3373E+02
     11.913  0.1554E+01  0.3398E+02
     12.079  0.2309E+01  0.3437E+02
     12.245  0.3293E+01  0.3491E+02
     12.411  0.3699E+01  0.3553E+02
     12.577  0.3002E+01  0.3603E+02
     12.743  0.2896E+01  0.3651E+02
     12.909  0.3011E+01  0.3701E+02
     13.075  0.2730E+01  0.3746E+02
     13.241  0.1851E+01  0.3777E+02
     13.407  0.2126E+01  0.3812E+02
     13.573  0.2173E+01  0.3848E+02
     13.739  0.2980E+01  0.3898E+02
     13.905  0.3006E+01  0.3947E+02
     14.071  0.2486E+01  0.3989E+02
     14.236  0.1793E+01  0.4018E+02
     14.402  0.3705E+01  0.4080E+02
     14.568  0.3673E+01  0.4141E+02
     14.734  0.3157E+01  0.4193E+02
     14.900  0.2406E+01  0.4233E+02
     15.066  0.1430E+01  0.4257E+02
     15.232  0.2799E+01  0.4303E+02
     15.398  0.2138E+01  0.4339E+02
     15.564  0.3703E+01  0.4400E+02
     15.730  0.2935E+01  0.4449E+02
     15.896  0.2827E+01  0.4496E+02
     16.062  0.3542E+01  0.4555E+02
     16.228  0.3403E+01  0.4611E+02
     16.394  0.2658E+01  0.4655E+02
     16.560  0.3239E+01  0.4709E+02
     16.726  0.2988E+01  0.4759E+02
     16.892  0.3478E+01  0.4816E+02
     17.058  0.2877E+01  0.4864E+02
     17.224  0.2723E+01  0.4909E+02
     17.390  0.3515E+01  0.4968E+02
     17.556  0.2546E+01  0.5010E+02
     17.722  0.3494E+01  0.5068E+02
     17.888  0.2902E+01  0.5116E+02
     18.054  0.2749E+01  0.5162E+02
     18.220  0.1611E+01  0.5189E+02
     18.386  0.3064E+01  0.5239E+02
     18.552  0.2843E+01  0.5287E+02
     18.718  0.3382E+01  0.5343E+02
     18.884  0.3120E+01  0.5395E+02
     19.050  0.3146E+01  0.5447E+02
     19.216  0.3329E+01  0.5502E+02
     19.382  0.2914E+01  0.5550E+02
     19.548  0.3066E+01  0.5601E+02
     19.714  0.3104E+01  0.5653E+02
     19.880  0.3285E+01  0.5707E+02
     20.046  0.2620E+01  0.5751E+02
     20.212  0.3671E+01  0.5812E+02
     20.377  0.3335E+01  0.5867E+02
     20.543  0.3061E+01  0.5918E+02
     20.709  0.2822E+01  0.5965E+02
     20.875  0.4084E+01  0.6032E+02
     21.041  0.3464E+01  0.6090E+02
     21.207  0.2989E+01  0.6140E+02
     21.373  0.2787E+01  0.6186E+02
     21.539  0.3569E+01  0.6245E+02
     21.705  0.2506E+01  0.6287E+02
     21.871  0.3231E+01  0.6340E+02
     22.037  0.3141E+01  0.6392E+02
     22.203  0.2567E+01  0.6435E+02
     22.369  0.3239E+01  0.6489E+02
     22.535  0.3930E+01  0.6554E+02
     22.701  0.3773E+01  0.6617E+02
     22.867  0.2890E+01  0.6665E+02
     23.033  0.2086E+01  0.6699E+02
     23.199  0.3855E+01  0.6763E+02
     23.365  0.4618E+01  0.6840E+02
     23.531  0.3272E+01  0.6894E+02
     23.697  0.2828E+01  0.6941E+02
     23.863  0.3867E+01  0.7005E+02
     24.029  0.2880E+01  0.7053E+02
     24.195  0.3270E+01  0.7107E+02
     24.361  0.3135E+01  0.7159E+02
     24.527  0.3049E+01  0.7210E+02
     24.693  0.5284E+01  0.7298E+02
     24.859  0.2358E+01  0.7337E+02
     25.025  0.3374E+01  0.7393E+02
     25.191  0.3541E+01  0.7452E+02
     25.357  0.4052E+01  0.7519E+02
     25.523  0.4034E+01  0.7586E+02
     25.689  0.3560E+01  0.7645E+02
     25.855  0.3597E+01  0.7705E+02
     26.021  0.2688E+01  0.7749E+02
     26.187  0.3418E+01  0.7806E+02
     26.353  0.4078E+01  0.7874E+02
     26.519  0.2564E+01  0.7916E+02
     26.684  0.3227E+01  0.7970E+02
     26.850  0.5024E+01  0.8053E+02
     27.016  0.2756E+01  0.8099E+02
     27.182  0.4056E+01  0.8166E+02
     27.348  0.3557E+01  0.8225E+02
     27.514  0.3553E+01  0.8284E+02
     27.680  0.3473E+01  0.8342E+02
     27.846  0.3615E+01  0.8402E+02
     28.012  0.3792E+01  0.8465E+02
     28.178  0.3665E+01  0.8526E+02
     28.344  0.2665E+01  0.8570E+02
     28.510  0.4318E+01  0.8641E+02
     28.676  0.4116E+01  0.8710E+02
     28.842  0.3211E+01  0.8763E+02
     29.008  0.2954E+01  0.8812E+02
     29.174  0.2990E+01  0.8862E+02
     29.340  0.4525E+01  0.8937E+02
     29.506  0.4060E+01  0.9004E+02
     29.672  0.3095E+01  0.9056E+02
     29.838  0.3763E+01  0.9118E+02
     30.004  0.3702E+01  0.9180E+02
     30.170  0.5069E+01  0.9264E+02
     30.336  0.2737E+01  0.9309E+02
     30.502  0.3039E+01  0.9360E+02
     30.668  0.3246E+01  0.9413E+02
     30.834  0.3352E+01  0.9469E+02
     31.000  0.2112E+01  0.9504E+02
     31.166  0.2412E+01  0.9544E+02
     31.332  0.1851E+01  0.9575E+02
     31.498  0.1024E+01  0.9592E+02
     31.664  0.2674E+00  0.9596E+02
     31.830  0.2251E+00  0.9600E+02
     31.996  0.1492E-03  0.9600E+02
     32.162  0.0000E+00  0.9600E+02
     32.328  0.0000E+00  0.9600E+02
     32.494  0.0000E+00  0.9600E+02
     32.660  0.0000E+00  0.9600E+02
     32.826  0.0000E+00  0.9600E+02
     32.991  0.0000E+00  0.9600E+02
     33.157  0.0000E+00  0.9600E+02
     33.323  0.0000E+00  0.9600E+02
     33.489  0.0000E+00  0.9600E+02
     33.655  0.0000E+00  0.9600E+02
     33.821  0.0000E+00  0.9600E+02
     33.987  0.0000E+00  0.9600E+02
