    3    3    1    1
  0.2984351E+02  0.4524640E-09  0.4524640E-09  0.5049780E-09  0.5000000E-15
  1.000000000000000E-004
  CAR 
 Se                                      
     18     65     48
 
  0.0000000E+00  0.0000000E+00  0.0000000E+00  0.1953125E-02
      1        -13.541451   1.000000
      2         -9.739680   1.000000
      3         -9.739674   1.000000
      4         -1.902679   1.000000
      5         -1.902672   1.000000
      6         -1.599397   1.000000
      7         -0.016241   1.000000
      8         -0.016238   1.000000
      9          1.514327   1.000000
     10          3.725515   0.000000
     11          3.725516   0.000000
     12          4.096060   0.000000
     13          7.699548   0.000000
     14          8.472357   0.000000
     15          8.472369   0.000000
     16         10.257800   0.000000
     17         10.558385   0.000000
     18         10.679825   0.000000
     19         10.679839   0.000000
     20         13.120083   0.000000
     21         13.120093   0.000000
     22         15.457045   0.000000
     23         15.457063   0.000000
     24         19.981574   0.000000
     25         19.981613   0.000000
     26         20.261216   0.000000
     27         20.478843   0.000000
     28         21.260747   0.000000
     29         21.892830   0.000000
     30         21.892875   0.000000
     31         22.739088   0.000000
     32         22.739099   0.000000
     33         24.095260   0.000000
     34         24.095264   0.000000
     35         24.625936   0.000000
     36         24.741383   0.000000
     37         25.083709   0.000000
     38         25.083739   0.000000
     39         25.438240   0.000000
     40         27.012274   0.000000
     41         27.012293   0.000000
     42         27.158647   0.000000
     43         28.015612   0.000000
     44         28.015652   0.000000
     45         28.532468   0.000000
     46         28.532509   0.000000
     47         29.305726   0.000000
     48         29.305793   0.000000
 
  0.1250000E+00 -0.8913769E-17  0.0000000E+00  0.1171875E-01
      1        -13.495037   1.000000
      2         -9.784593   1.000000
      3         -9.737467   1.000000
      4         -2.219817   1.000000
      5         -2.046374   1.000000
      6         -1.497846   1.000000
      7         -0.022245   1.000000
      8          0.175539   1.000000
      9          1.413687   1.000000
     10          3.671937   0.000000
     11          3.729790   0.000000
     12          4.238191   0.000000
     13          7.806804   0.000000
     14          8.407942   0.000000
     15          8.816517   0.000000
     16         10.217724   0.000000
     17         10.565581   0.000000
     18         10.805480   0.000000
     19         11.192843   0.000000
     20         13.738337   0.000000
     21         13.782563   0.000000
     22         15.440846   0.000000
     23         15.544134   0.000000
     24         18.300839   0.000000
     25         18.830537   0.000000
     26         19.465391   0.000000
     27         19.799007   0.000000
     28         21.147249   0.000000
     29         21.493455   0.000000
     30         22.199961   0.000000
     31         22.720669   0.000000
     32         23.342848   0.000000
     33         23.855401   0.000000
     34         24.138647   0.000000
     35         24.205332   0.000000
     36         24.377791   0.000000
     37         24.740001   0.000000
     38         25.250123   0.000000
     39         25.986340   0.000000
     40         26.830488   0.000000
     41         26.905187   0.000000
     42         27.319475   0.000000
     43         28.034186   0.000000
     44         28.091850   0.000000
     45         28.574885   0.000000
     46         29.122514   0.000000
     47         29.477428   0.000000
     48         29.898736   0.000000
 
  0.2500000E+00 -0.1782754E-16  0.0000000E+00  0.1171875E-01
      1        -13.375676   1.000000
      2         -9.906337   1.000000
      3         -9.731864   1.000000
      4         -2.628530   1.000000
      5         -2.295463   1.000000
      6         -1.455404   1.000000
      7         -0.088090   1.000000
      8          0.247369   1.000000
      9          1.174327   1.000000
     10          3.759484   0.000000
     11          3.857400   0.000000
     12          4.633179   0.000000
     13          8.043969   0.000000
     14          8.086049   0.000000
     15          9.690217   0.000000
     16         10.590239   0.000000
     17         10.814736   0.000000
     18         11.683716   0.000000
     19         12.330459   0.000000
     20         14.441236   0.000000
     21         14.836891   0.000000
     22         15.163410   0.000000
     23         15.701785   0.000000
     24         16.808046   0.000000
     25         17.122672   0.000000
     26         18.328817   0.000000
     27         18.987050   0.000000
     28         19.572707   0.000000
     29         20.671211   0.000000
     30         21.702331   0.000000
     31         22.334303   0.000000
     32         22.756538   0.000000
     33         22.957779   0.000000
     34         23.349863   0.000000
     35         23.778294   0.000000
     36         24.003173   0.000000
     37         25.332878   0.000000
     38         25.383539   0.000000
     39         25.927414   0.000000
     40         26.704827   0.000000
     41         27.518238   0.000000
     42         27.580370   0.000000
     43         28.051353   0.000000
     44         28.600628   0.000000
     45         29.197150   0.000000
     46         29.351514   0.000000
     47         29.961129   0.000000
     48         30.408041   0.000000
 
  0.3750000E+00 -0.1798220E-16  0.0000000E+00  0.1171875E-01
      1        -13.243750   1.000000
      2        -10.049025   1.000000
      3         -9.725929   1.000000
      4         -2.852913   1.000000
      5         -2.490414   1.000000
      6         -1.384767   1.000000
      7         -0.447967   1.000000
      8          0.155204   1.000000
      9          1.014122   1.000000
     10          3.799049   0.000000
     11          4.127371   0.000000
     12          5.269650   0.000000
     13          7.636998   0.000000
     14          8.729663   0.000000
     15         10.617937   0.000000
     16         11.401365   0.000000
     17         11.530200   0.000000
     18         12.595260   0.000000
     19         13.016763   0.000000
     20         13.675308   0.000000
     21         14.287557   0.000000
     22         15.122650   0.000000
     23         15.610121   0.000000
     24         16.382929   0.000000
     25         17.677402   0.000000
     26         17.952140   0.000000
     27         18.343039   0.000000
     28         18.875693   0.000000
     29         19.158108   0.000000
     30         20.889397   0.000000
     31         21.434465   0.000000
     32         22.144482   0.000000
     33         22.521537   0.000000
     34         23.049231   0.000000
     35         23.520673   0.000000
     36         23.883487   0.000000
     37         24.274621   0.000000
     38         24.984306   0.000000
     39         25.729268   0.000000
     40         26.154752   0.000000
     41         26.736633   0.000000
     42         26.942258   0.000000
     43         27.660361   0.000000
     44         28.866200   0.000000
     45         29.034391   0.000000
     46         29.942240   0.000000
     47         30.408342   0.000000
     48         30.957896   0.000000
 
  0.5000000E+00 -0.3565508E-16  0.0000000E+00  0.5859375E-02
      1        -13.184507   1.000000
      2        -10.115088   1.000000
      3         -9.723372   1.000000
      4         -2.910398   1.000000
      5         -2.565551   1.000000
      6         -1.259807   1.000000
      7         -0.765957   1.000000
      8          0.132545   1.000000
      9          0.961277   1.000000
     10          3.804674   0.000000
     11          4.223168   0.000000
     12          5.638442   0.000000
     13          7.474174   0.000000
     14          9.325284   0.000000
     15         11.289303   0.000000
     16         11.379415   0.000000
     17         11.929915   0.000000
     18         12.240984   0.000000
     19         13.005033   0.000000
     20         13.939536   0.000000
     21         14.374553   0.000000
     22         14.646866   0.000000
     23         15.852612   0.000000
     24         16.084218   0.000000
     25         17.194976   0.000000
     26         17.787820   0.000000
     27         17.925538   0.000000
     28         19.194825   0.000000
     29         20.141020   0.000000
     30         20.469960   0.000000
     31         21.148496   0.000000
     32         21.721528   0.000000
     33         21.953628   0.000000
     34         22.922460   0.000000
     35         22.995134   0.000000
     36         23.502037   0.000000
     37         23.767219   0.000000
     38         25.261096   0.000000
     39         25.583862   0.000000
     40         25.804120   0.000000
     41         25.886618   0.000000
     42         26.530714   0.000000
     43         27.586863   0.000000
     44         29.006196   0.000000
     45         29.336928   0.000000
     46         30.049387   0.000000
     47         30.871109   0.000000
     48         31.250078   0.000000
 
  0.1250000E+00  0.1250000E+00  0.0000000E+00  0.1171875E-01
      1        -13.411876   1.000000
      2         -9.859622   1.000000
      3         -9.742758   1.000000
      4         -2.498424   1.000000
      5         -2.294167   1.000000
      6         -1.412943   1.000000
      7         -0.088064   1.000000
      8          0.284170   1.000000
      9          1.210646   1.000000
     10          3.781934   0.000000
     11          3.804754   0.000000
     12          4.474598   0.000000
     13          7.815170   0.000000
     14          8.429831   0.000000
     15          9.311188   0.000000
     16         10.255139   0.000000
     17         10.911881   0.000000
     18         11.349111   0.000000
     19         11.992494   0.000000
     20         14.490064   0.000000
     21         14.630508   0.000000
     22         15.115525   0.000000
     23         15.668565   0.000000
     24         16.927315   0.000000
     25         17.903439   0.000000
     26         18.542631   0.000000
     27         19.308564   0.000000
     28         19.827243   0.000000
     29         21.080930   0.000000
     30         21.510527   0.000000
     31         22.528551   0.000000
     32         22.653346   0.000000
     33         22.824321   0.000000
     34         23.643009   0.000000
     35         24.223954   0.000000
     36         24.650150   0.000000
     37         25.256524   0.000000
     38         25.355715   0.000000
     39         26.046858   0.000000
     40         26.573627   0.000000
     41         27.439704   0.000000
     42         27.621140   0.000000
     43         28.246805   0.000000
     44         28.258970   0.000000
     45         29.340762   0.000000
     46         29.359447   0.000000
     47         29.974645   0.000000
     48         30.209917   0.000000
 
  0.2500000E+00  0.1250000E+00  0.0000000E+00  0.2343750E-01
      1        -13.284398   1.000000
      2         -9.976738   1.000000
      3         -9.756981   1.000000
      4         -2.752761   1.000000
      5         -2.515521   1.000000
      6         -1.336256   1.000000
      7         -0.272860   1.000000
      8          0.117782   1.000000
      9          0.949285   1.000000
     10          3.930693   0.000000
     11          4.186010   0.000000
     12          4.913186   0.000000
     13          7.809041   0.000000
     14          8.467721   0.000000
     15         10.095618   0.000000
     16         10.880923   0.000000
     17         11.591935   0.000000
     18         12.113724   0.000000
     19         13.126292   0.000000
     20         13.682093   0.000000
     21         14.777444   0.000000
     22         15.260599   0.000000
     23         15.815020   0.000000
     24         16.770930   0.000000
     25         17.190399   0.000000
     26         18.042381   0.000000
     27         18.549290   0.000000
     28         19.209725   0.000000
     29         19.842729   0.000000
     30         20.898767   0.000000
     31         21.437804   0.000000
     32         21.792539   0.000000
     33         22.038969   0.000000
     34         22.698694   0.000000
     35         23.433211   0.000000
     36         24.586473   0.000000
     37         25.104492   0.000000
     38         25.611341   0.000000
     39         26.048524   0.000000
     40         26.663227   0.000000
     41         27.067017   0.000000
     42         27.188416   0.000000
     43         28.028029   0.000000
     44         28.511128   0.000000
     45         28.775209   0.000000
     46         29.339992   0.000000
     47         29.882620   0.000000
     48         30.460752   0.000000
 
  0.3750000E+00  0.1250000E+00  0.0000000E+00  0.2343750E-01
      1        -13.185680   1.000000
      2        -10.073402   1.000000
      3         -9.767333   1.000000
      4         -2.871394   1.000000
      5         -2.615708   1.000000
      6         -1.204640   1.000000
      7         -0.657837   1.000000
      8         -0.015557   1.000000
      9          0.819400   1.000000
     10          3.995113   0.000000
     11          4.442845   0.000000
     12          5.446913   0.000000
     13          7.691293   0.000000
     14          8.992877   0.000000
     15         10.820918   0.000000
     16         11.301855   0.000000
     17         11.662514   0.000000
     18         12.389128   0.000000
     19         13.439652   0.000000
     20         14.171879   0.000000
     21         14.242191   0.000000
     22         14.809868   0.000000
     23         15.703953   0.000000
     24         16.543832   0.000000
     25         17.547957   0.000000
     26         17.838644   0.000000
     27         18.355035   0.000000
     28         19.074694   0.000000
     29         19.512897   0.000000
     30         20.458271   0.000000
     31         21.093765   0.000000
     32         21.358956   0.000000
     33         21.769525   0.000000
     34         22.338551   0.000000
     35         22.937055   0.000000
     36         23.492266   0.000000
     37         24.318735   0.000000
     38         24.670801   0.000000
     39         25.560905   0.000000
     40         26.168592   0.000000
     41         26.442870   0.000000
     42         27.199740   0.000000
     43         27.591451   0.000000
     44         28.595883   0.000000
     45         29.087881   0.000000
     46         29.332295   0.000000
     47         30.058204   0.000000
     48         31.162200   0.000000
 
  0.2500000E+00  0.2500000E+00  0.0000000E+00  0.1171875E-01
      1        -13.186861   1.000000
      2        -10.013794   1.000000
      3         -9.829214   1.000000
      4         -2.802007   1.000000
      5         -2.697430   1.000000
      6         -1.128684   1.000000
      7         -0.499388   1.000000
      8         -0.224791   1.000000
      9          0.678183   1.000000
     10          4.270022   0.000000
     11          4.664226   0.000000
     12          5.176347   0.000000
     13          7.845922   0.000000
     14          8.849999   0.000000
     15         10.393338   0.000000
     16         11.025644   0.000000
     17         11.922747   0.000000
     18         11.960965   0.000000
     19         13.845526   0.000000
     20         14.296467   0.000000
     21         14.492220   0.000000
     22         14.673735   0.000000
     23         16.332476   0.000000
     24         16.952198   0.000000
     25         17.233661   0.000000
     26         17.773964   0.000000
     27         18.665880   0.000000
     28         18.910785   0.000000
     29         19.849343   0.000000
     30         19.963758   0.000000
     31         20.899476   0.000000
     32         21.115643   0.000000
     33         21.377637   0.000000
     34         22.119058   0.000000
     35         22.616143   0.000000
     36         23.480117   0.000000
     37         24.887956   0.000000
     38         24.987455   0.000000
     39         25.830473   0.000000
     40         26.048100   0.000000
     41         26.536250   0.000000
     42         26.907418   0.000000
     43         27.752555   0.000000
     44         27.955758   0.000000
     45         28.887340   0.000000
     46         29.245339   0.000000
     47         30.607068   0.000000
     48         30.694981   0.000000
 
  0.3750000E+00  0.2500000E+00  0.0000000E+00  0.1171875E-01
      1        -13.144373   1.000000
      2        -10.015217   1.000000
      3         -9.877449   1.000000
      4         -2.824469   1.000000
      5         -2.735607   1.000000
      6         -0.896774   1.000000
      7         -0.746327   1.000000
      8         -0.411129   1.000000
      9          0.577722   1.000000
     10          4.459578   0.000000
     11          4.799960   0.000000
     12          5.383448   0.000000
     13          7.886327   0.000000
     14          9.236945   0.000000
     15         10.005289   0.000000
     16         11.225864   0.000000
     17         11.470773   0.000000
     18         12.431907   0.000000
     19         13.750023   0.000000
     20         14.345010   0.000000
     21         14.805140   0.000000
     22         15.331341   0.000000
     23         16.145507   0.000000
     24         16.475131   0.000000
     25         17.668964   0.000000
     26         17.717325   0.000000
     27         18.496454   0.000000
     28         18.927991   0.000000
     29         19.350243   0.000000
     30         20.160010   0.000000
     31         20.678650   0.000000
     32         21.041548   0.000000
     33         21.078591   0.000000
     34         21.707269   0.000000
     35         23.570401   0.000000
     36         23.767357   0.000000
     37         24.198713   0.000000
     38         24.256412   0.000000
     39         24.670778   0.000000
     40         24.753152   0.000000
     41         26.191550   0.000000
     42         26.533438   0.000000
     43         27.918015   0.000000
     44         28.146639   0.000000
     45         29.542613   0.000000
     46         29.619684   0.000000
     47         30.117546   0.000000
     48         30.793443   0.000000
 
 -0.3286206E-32  0.1336025E-32  0.1250000E+00  0.3906250E-02
      1        -13.472048   1.000000
      2        -10.494878   1.000000
      3         -9.009130   1.000000
      4         -2.160349   1.000000
      5         -1.722103   1.000000
      6         -1.568952   1.000000
      7          0.004960   1.000000
      8          0.133233   1.000000
      9          1.399980   1.000000
     10          3.602272   0.000000
     11          3.633308   0.000000
     12          3.957023   0.000000
     13          8.050133   0.000000
     14          8.502956   0.000000
     15          8.894577   0.000000
     16          9.627702   0.000000
     17         10.034405   0.000000
     18         11.140640   0.000000
     19         11.454671   0.000000
     20         12.669295   0.000000
     21         13.444383   0.000000
     22         14.482965   0.000000
     23         16.946038   0.000000
     24         18.904335   0.000000
     25         19.342827   0.000000
     26         19.794179   0.000000
     27         21.161294   0.000000
     28         21.368923   0.000000
     29         21.538022   0.000000
     30         21.719056   0.000000
     31         22.499802   0.000000
     32         22.983650   0.000000
     33         23.384237   0.000000
     34         24.022156   0.000000
     35         24.120515   0.000000
     36         24.406000   0.000000
     37         25.419482   0.000000
     38         26.064310   0.000000
     39         26.565612   0.000000
     40         26.752347   0.000000
     41         26.766037   0.000000
     42         26.779312   0.000000
     43         27.569853   0.000000
     44         27.720117   0.000000
     45         28.539921   0.000000
     46         28.608929   0.000000
     47         29.810953   0.000000
     48         30.029328   0.000000
 
  0.1250000E+00 -0.2230438E-16  0.1250000E+00  0.1171875E-01
      1        -13.426259   1.000000
      2        -10.493286   1.000000
      3         -9.059968   1.000000
      4         -2.333204   1.000000
      5         -1.986926   1.000000
      6         -1.456264   1.000000
      7          0.062810   1.000000
      8          0.176750   1.000000
      9          1.275984   1.000000
     10          3.609015   0.000000
     11          3.769934   0.000000
     12          4.130913   0.000000
     13          7.986495   0.000000
     14          8.458027   0.000000
     15          9.117287   0.000000
     16          9.685931   0.000000
     17         10.329922   0.000000
     18         11.294370   0.000000
     19         11.792691   0.000000
     20         12.960757   0.000000
     21         13.799393   0.000000
     22         15.135467   0.000000
     23         16.500211   0.000000
     24         18.212444   0.000000
     25         18.821346   0.000000
     26         19.006253   0.000000
     27         20.265734   0.000000
     28         20.445056   0.000000
     29         21.260011   0.000000
     30         22.065156   0.000000
     31         22.325235   0.000000
     32         22.685770   0.000000
     33         23.385297   0.000000
     34         23.693943   0.000000
     35         24.007533   0.000000
     36         25.053773   0.000000
     37         25.375920   0.000000
     38         25.973238   0.000000
     39         26.134931   0.000000
     40         26.528407   0.000000
     41         26.807352   0.000000
     42         27.312158   0.000000
     43         27.806399   0.000000
     44         28.444383   0.000000
     45         28.680775   0.000000
     46         29.285523   0.000000
     47         30.066478   0.000000
     48         30.301658   0.000000
 
 -0.3286206E-32  0.1250000E+00  0.1250000E+00  0.1171875E-01
      1        -13.426106   1.000000
      2        -10.496097   1.000000
      3         -9.054993   1.000000
      4         -2.282800   1.000000
      5         -2.120832   1.000000
      6         -1.408275   1.000000
      7         -0.009393   1.000000
      8          0.328829   1.000000
      9          1.322047   1.000000
     10          3.569170   0.000000
     11          3.645123   0.000000
     12          4.138900   0.000000
     13          8.105923   0.000000
     14          8.378225   0.000000
     15          8.916345   0.000000
     16         10.158167   0.000000
     17         10.182852   0.000000
     18         11.431540   0.000000
     19         11.663221   0.000000
     20         12.904055   0.000000
     21         13.762224   0.000000
     22         15.125352   0.000000
     23         16.589703   0.000000
     24         18.135991   0.000000
     25         18.531213   0.000000
     26         19.137957   0.000000
     27         19.808731   0.000000
     28         20.987485   0.000000
     29         21.281628   0.000000
     30         21.900798   0.000000
     31         22.335219   0.000000
     32         22.742837   0.000000
     33         23.203897   0.000000
     34         24.109526   0.000000
     35         24.432977   0.000000
     36         25.047085   0.000000
     37         25.261733   0.000000
     38         25.886357   0.000000
     39         26.060209   0.000000
     40         26.358566   0.000000
     41         26.805672   0.000000
     42         27.260219   0.000000
     43         27.826118   0.000000
     44         28.317219   0.000000
     45         28.460882   0.000000
     46         29.706617   0.000000
     47         29.922929   0.000000
     48         30.269716   0.000000
 
  0.2500000E+00 -0.1040147E-16  0.1250000E+00  0.1171875E-01
      1        -13.308800   1.000000
      2        -10.493874   1.000000
      3         -9.191010   1.000000
      4         -2.648715   1.000000
      5         -2.284025   1.000000
      6         -1.373758   1.000000
      7         -0.182862   1.000000
      8          0.172757   1.000000
      9          1.148414   1.000000
     10          3.710589   0.000000
     11          4.101089   0.000000
     12          4.626482   0.000000
     13          8.056291   0.000000
     14          8.337774   0.000000
     15          9.837995   0.000000
     16          9.939175   0.000000
     17         10.515731   0.000000
     18         12.294276   0.000000
     19         12.682900   0.000000
     20         13.365879   0.000000
     21         14.628218   0.000000
     22         15.499521   0.000000
     23         16.159965   0.000000
     24         16.909563   0.000000
     25         17.575428   0.000000
     26         18.028267   0.000000
     27         19.370868   0.000000
     28         20.127338   0.000000
     29         20.231298   0.000000
     30         20.860998   0.000000
     31         21.541596   0.000000
     32         22.285922   0.000000
     33         22.811061   0.000000
     34         23.450982   0.000000
     35         23.807282   0.000000
     36         24.494808   0.000000
     37         24.928133   0.000000
     38         25.480244   0.000000
     39         26.513697   0.000000
     40         26.768841   0.000000
     41         26.949156   0.000000
     42         27.590425   0.000000
     43         27.850355   0.000000
     44         27.888793   0.000000
     45         29.488314   0.000000
     46         29.986794   0.000000
     47         30.222423   0.000000
     48         30.612736   0.000000
 
 -0.3286206E-32  0.2500000E+00  0.1250000E+00  0.1171875E-01
      1        -13.307908   1.000000
      2        -10.509389   1.000000
      3         -9.165164   1.000000
      4         -2.609215   1.000000
      5         -2.501215   1.000000
      6         -1.398906   1.000000
      7         -0.058170   1.000000
      8          0.477792   1.000000
      9          1.213777   1.000000
     10          3.587221   0.000000
     11          3.788574   0.000000
     12          4.504229   0.000000
     13          7.831189   0.000000
     14          8.506241   0.000000
     15          9.581183   0.000000
     16         10.748257   0.000000
     17         11.297318   0.000000
     18         11.676200   0.000000
     19         12.442924   0.000000
     20         13.783468   0.000000
     21         14.450649   0.000000
     22         15.358656   0.000000
     23         15.915303   0.000000
     24         16.702534   0.000000
     25         17.396250   0.000000
     26         18.060022   0.000000
     27         18.788902   0.000000
     28         19.896505   0.000000
     29         20.070914   0.000000
     30         21.378129   0.000000
     31         21.848195   0.000000
     32         22.378692   0.000000
     33         23.184110   0.000000
     34         23.601027   0.000000
     35         24.321743   0.000000
     36         24.495178   0.000000
     37         24.797266   0.000000
     38         25.837139   0.000000
     39         26.316183   0.000000
     40         26.688127   0.000000
     41         27.159524   0.000000
     42         27.795806   0.000000
     43         28.477534   0.000000
     44         28.965404   0.000000
     45         29.147203   0.000000
     46         29.178809   0.000000
     47         29.924175   0.000000
     48         30.347497   0.000000
 
  0.3750000E+00 -0.1055614E-16  0.1250000E+00  0.1171875E-01
      1        -13.178951   1.000000
      2        -10.512814   1.000000
      3         -9.318282   1.000000
      4         -2.835771   1.000000
      5         -2.564461   1.000000
      6         -1.264630   1.000000
      7         -0.606735   1.000000
      8          0.164497   1.000000
      9          1.071184   1.000000
     10          3.797897   0.000000
     11          4.239627   0.000000
     12          5.323680   0.000000
     13          7.945088   0.000000
     14          8.758188   0.000000
     15         10.454238   0.000000
     16         10.925579   0.000000
     17         10.993124   0.000000
     18         12.565358   0.000000
     19         13.298678   0.000000
     20         13.819773   0.000000
     21         14.324283   0.000000
     22         14.992577   0.000000
     23         16.165435   0.000000
     24         16.540728   0.000000
     25         17.214574   0.000000
     26         17.727727   0.000000
     27         18.996670   0.000000
     28         19.078389   0.000000
     29         19.619269   0.000000
     30         20.398043   0.000000
     31         20.758083   0.000000
     32         22.203934   0.000000
     33         22.560451   0.000000
     34         22.770700   0.000000
     35         23.113117   0.000000
     36         23.769518   0.000000
     37         24.594893   0.000000
     38         24.696329   0.000000
     39         25.212281   0.000000
     40         26.305233   0.000000
     41         27.078176   0.000000
     42         27.323419   0.000000
     43         27.950244   0.000000
     44         28.732363   0.000000
     45         29.137438   0.000000
     46         29.477428   0.000000
     47         31.022387   0.000000
     48         31.429286   0.000000
 
 -0.3286206E-32  0.3750000E+00  0.1250000E+00  0.1171875E-01
      1        -13.177636   1.000000
      2        -10.534226   1.000000
      3         -9.284707   1.000000
      4         -2.852756   1.000000
      5         -2.701187   1.000000
      6         -1.432514   1.000000
      7         -0.194013   1.000000
      8          0.315382   1.000000