 vasp.6.4.3 19Mar24 (build Jun 26 2024 13:02:28) complex                        
  
 executed on             LinuxIFC date 2025.08.08  18:41:47
 running   48 mpi-ranks, on    4 nodes
 distrk:  each k-point on   48 cores,    1 groups
 distr:  one band on NCORE=   1 cores,   48 groups


--------------------------------------------------------------------------------------------------------


 INCAR:
   ENCUT = 275.0215
   IBRION = -1
   ISMEAR = 0
   ISYM = 2
   LCHARG = True
   LWAVE = True
   SIGMA = 0.05
   SYSTEM = Se

 POTCAR:  PAW_PBE Se 06Sep2000                    
 -----------------------------------------------------------------------------
|                                                                             |
|           W    W    AA    RRRRR   N    N  II  N    N   GGGG   !!!           |
|           W    W   A  A   R    R  NN   N  II  NN   N  G    G  !!!           |
|           W    W  A    A  R    R  N N  N  II  N N  N  G       !!!           |
|           W WW W  AAAAAA  RRRRR   N  N N  II  N  N N  G  GGG   !            |
|           WW  WW  A    A  R   R   N   NN  II  N   NN  G    G                |
|           W    W  A    A  R    R  N    N  II  N    N   GGGG   !!!           |
|                                                                             |
|     For optimal performance we recommend to set                             |
|       NCORE = 2 up to number-of-cores-per-socket                            |
|     NCORE specifies how many cores store one orbital (NPAR=cpu/NCORE).      |
|     This setting can greatly improve the performance of VASP for DFT.       |
|     The default, NCORE=1 might be grossly inefficient on modern             |
|     multi-core architectures or massively parallel machines. Do your        |
|     own testing! More info at https://www.vasp.at/wiki/index.php/NCORE      |
|     Unfortunately you need to use the default for GW and RPA                |
|     calculations (for HF NCORE is supported but not extensively tested      |
|     yet).                                                                   |
|                                                                             |
 -----------------------------------------------------------------------------

 POTCAR:  PAW_PBE Se 06Sep2000                    
   VRHFIN =Se: s2p4                                                                                 
   LEXCH  = PE                                                                                      
   EATOM  =   257.1286 eV,   18.8984 Ry                                                             
                                                                                                    
   TITEL  = PAW_PBE Se 06Sep2000                                                                    
   LULTRA =        F    use ultrasoft PP ?                                                          
   IUNSCR =        1    unscreen: 0-lin 1-nonlin 2-no                                               
   RPACOR =    1.900    partial core radius                                                         
   POMASS =   78.960; ZVAL   =    6.000    mass and valenz                                          
   RCORE  =    2.100    outmost cutoff radius                                                       
   RWIGS  =    2.200; RWIGS  =    1.164    wigner-seitz radius (au A)                               
   ENMAX  =  211.555; ENMIN  =  158.666 eV                                                          
   ICORE  =        3    local potential                                                             
   LCOR   =        T    correct aug charges                                                         
   LPAW   =        T    paw PP                                                                      
   EAUG   =  446.842                                                                                
   DEXC   =    0.000                                                                                
   RMAX   =    2.147    core radius for proj-oper                                                   
   RAUG   =    1.300    factor for augmentation sphere                                              
   RDEP   =    2.177    radius for radial grids                                                     
   RDEPT  =    1.928    core radius for aug-charge                                                  
                                                                                                    
   Atomic configuration                                                                             
   10 entries                                                                                       
     n  l   j            E        occ.                                                              
     1  0  0.50    -12503.4787   2.0000                                                             
     2  0  0.50     -1606.9547   2.0000                                                             
     2  1  1.50     -1413.3140   6.0000                                                             
     3  0  0.50      -213.4885   2.0000                                                             
     3  1  1.50      -152.9538   6.0000                                                             
     3  2  2.50       -53.1221  10.0000                                                             
     4  0  0.50       -17.2865   2.0000                                                             
     4  1  0.50        -6.5110   4.0000                                                             
     4  2  2.50        -6.8029   0.0000                                                             
     4  3  2.50        -6.8029   0.0000                                                             
   Description                                                                                      
     l       E           TYP  RCUT    TYP  RCUT                                                     
     0    -17.2865377     23  2.100                                                                 
     0    -15.3094411     23  2.100                                                                 
     1     -6.5110275     23  2.100                                                                 
     1     -0.0695192     23  2.100                                                                 
     2     -6.8029130     23  2.100                                                                 
     3     -1.3605826      7  2.100                                                                 
  local pseudopotential read in
  partial core-charges read in
  partial kinetic energy density read in
  atomic valenz-charges read in
  non local Contribution for L=           0  read in
    real space projection operators read in
  non local Contribution for L=           0  read in
    real space projection operators read in
  non local Contribution for L=           1  read in
    real space projection operators read in
  non local Contribution for L=           1  read in
    real space projection operators read in
  non local Contribution for L=           2  read in
    real space projection operators read in
    PAW grid and wavefunctions read in
 
   number of l-projection  operators is LMAX  =           5
   number of lm-projection operators is LMMAX =          13
 
PAW_PBE Se 06Sep2000                    :
 energy of atom  1       EATOM= -257.1286
 kinetic energy error for atom=    0.0043 (will be added to EATOM!!)
 
 
 POSCAR: Se3
  positions in direct lattice
  No initial velocities read in


 exchange-correlation table for PE
   RHO(1)=    0.500       N(1)  =     2000
   RHO(2)=  100.500       N(2)  =     4000
 


--------------------------------------------------------------------------------------------------------


 ion  position               nearest neighbor table
   1  0.219  0.000  0.333-   2 2.40   3 2.40
   2  0.000  0.219  0.667-   1 2.40   3 2.40
   3  0.781  0.781  0.000-   2 2.40   1 2.40
 
  LATTYP: Found a hexagonal cell.
 ALAT       =     4.5246400000
 C/A-ratio  =     1.1160622724
  
  Lattice vectors:
  
 A1 = (   4.5246400000,   0.0000000000,   0.0000000000)
 A2 = (  -2.2623200000,   3.9184531830,   0.0000000000)
 A3 = (   0.0000000000,   0.0000000000,   5.0497800000)


Analysis of symmetry for initial positions (statically):
=====================================================================
 Subroutine PRICEL returns:
 Original cell was already a primitive cell.
 

 Routine SETGRP: Setting up the symmetry group for a 
 hexagonal supercell.


 Subroutine GETGRP returns: Found  6 space group operations
 (whereof  2 operations were pure point group operations)
 out of a pool of 24 trial point group operations.


The static configuration has the point symmetry C_2 .
 The point group associated with its full space group is D_3 .


Analysis of symmetry for dynamics (positions and initial velocities):
=====================================================================
 Subroutine PRICEL returns:
 Original cell was already a primitive cell.
 

 Routine SETGRP: Setting up the symmetry group for a 
 hexagonal supercell.


 Subroutine GETGRP returns: Found  6 space group operations
 (whereof  2 operations were pure point group operations)
 out of a pool of 24 trial point group operations.


The dynamic configuration has the point symmetry C_2 .
 The point group associated with its full space group is D_3 .


 Subroutine INISYM returns: Found  6 space group operations
 (whereof  2 operations are pure point group operations),
 and found     1 'primitive' translations


----------------------------------------------------------------------------------------

                                     Primitive cell                                     

  volume of cell :      89.5305

  direct lattice vectors                    reciprocal lattice vectors
     4.524640000  0.000000000  0.000000000     0.221012058  0.127601371  0.000000000
    -2.262320000  3.918453183  0.000000000     0.000000000  0.255202743  0.000000000
     0.000000000  0.000000000  5.049780000    -0.000000000 -0.000000000  0.198028429

  length of vectors
     4.524640000  4.524640000  5.049780000     0.255202743  0.255202743  0.198028429

  position of ions in fractional coordinates (direct lattice)
     0.219030000  0.000000000  0.333333333
     0.000000000  0.219030000  0.666666667
     0.780970000  0.780970000  1.000000000

  ion indices of the primitive-cell ions
   primitive index   ion index
                 1           1
                 2           2
                 3           3

----------------------------------------------------------------------------------------

 
 
 KPOINTS: Automatic kpoint scheme                 

Automatic generation of k-mesh.
 Grid dimensions read from file:
 generate k-points for:    8    8    8

 Generating k-lattice:

  Cartesian coordinates                     Fractional coordinates (reciprocal lattice)
     0.027626507  0.015950171  0.000000000     0.125000000  0.000000000  0.000000000
     0.000000000  0.031900343  0.000000000     0.000000000  0.125000000  0.000000000
    -0.000000000 -0.000000000  0.024753554    -0.000000000 -0.000000000  0.125000000

  Length of vectors
     0.031900343  0.031900343  0.024753554

  Shift w.r.t. Gamma in fractional coordinates (k-lattice)
     0.000000000  0.000000000  0.000000000

 
 Subroutine IBZKPT returns following result:
 ===========================================
 
 Found     65 irreducible k-points:
 
 Following reciprocal coordinates:
            Coordinates               Weight
  0.000000  0.000000  0.000000      1.000000
  0.125000 -0.000000  0.000000      6.000000
  0.250000 -0.000000  0.000000      6.000000
  0.375000 -0.000000  0.000000      6.000000
  0.500000 -0.000000  0.000000      3.000000
  0.125000  0.125000  0.000000      6.000000
  0.250000  0.125000  0.000000     12.000000
  0.375000  0.125000  0.000000     12.000000
  0.250000  0.250000  0.000000      6.000000
  0.375000  0.250000  0.000000      6.000000
 -0.000000  0.000000  0.125000      2.000000
  0.125000 -0.000000  0.125000      6.000000
 -0.000000  0.125000  0.125000      6.000000
  0.250000 -0.000000  0.125000      6.000000
 -0.000000  0.250000  0.125000      6.000000
  0.375000 -0.000000  0.125000      6.000000
 -0.000000  0.375000  0.125000      6.000000
  0.500000 -0.000000  0.125000      6.000000
  0.125000  0.125000  0.125000     12.000000
  0.250000  0.125000  0.125000     12.000000
 -0.125000  0.375000  0.125000     12.000000
  0.375000  0.125000  0.125000     12.000000
 -0.125000  0.500000  0.125000     12.000000
  0.250000  0.250000  0.125000     12.000000
  0.375000  0.250000  0.125000     12.000000
 -0.000000  0.000000  0.250000      2.000000
  0.125000 -0.000000  0.250000      6.000000
 -0.000000  0.125000  0.250000      6.000000
  0.250000 -0.000000  0.250000      6.000000
 -0.000000  0.250000  0.250000      6.000000
  0.375000 -0.000000  0.250000      6.000000
 -0.000000  0.375000  0.250000      6.000000
  0.500000 -0.000000  0.250000      6.000000
  0.125000  0.125000  0.250000     12.000000
  0.250000  0.125000  0.250000     12.000000
 -0.125000  0.375000  0.250000     12.000000
  0.375000  0.125000  0.250000     12.000000
 -0.125000  0.500000  0.250000     12.000000
  0.250000  0.250000  0.250000     12.000000
  0.375000  0.250000  0.250000     12.000000
 -0.000000  0.000000  0.375000      2.000000
  0.125000  0.000000  0.375000      6.000000
 -0.000000  0.125000  0.375000      6.000000
  0.250000  0.000000  0.375000      6.000000
 -0.000000  0.250000  0.375000      6.000000
  0.375000 -0.000000  0.375000      6.000000
 -0.000000  0.375000  0.375000      6.000000
  0.500000 -0.000000  0.375000      6.000000
  0.125000  0.125000  0.375000     12.000000
  0.250000  0.125000  0.375000     12.000000
 -0.125000  0.375000  0.375000     12.000000
  0.375000  0.125000  0.375000     12.000000
 -0.125000  0.500000  0.375000     12.000000
  0.250000  0.250000  0.375000     12.000000
  0.375000  0.250000  0.375000     12.000000
 -0.000000  0.000000  0.500000      1.000000
  0.125000  0.000000  0.500000      6.000000
  0.250000 -0.000000  0.500000      6.000000
  0.375000 -0.000000  0.500000      6.000000
  0.500000 -0.000000  0.500000      3.000000
  0.125000  0.125000  0.500000      6.000000
  0.250000  0.125000  0.500000     12.000000
  0.375000  0.125000  0.500000     12.000000
  0.250000  0.250000  0.500000      6.000000
  0.375000  0.250000  0.500000      6.000000
 
 Following cartesian coordinates:
            Coordinates               Weight
  0.000000  0.000000  0.000000      1.000000
  0.027627  0.015950  0.000000      6.000000
  0.055253  0.031900  0.000000      6.000000
  0.082880  0.047851  0.000000      6.000000
  0.110506  0.063801  0.000000      3.000000
  0.027627  0.047851  0.000000      6.000000
  0.055253  0.063801  0.000000     12.000000
  0.082880  0.079751  0.000000     12.000000
  0.055253  0.095701  0.000000      6.000000
  0.082880  0.111651  0.000000      6.000000
 -0.000000 -0.000000  0.024754      2.000000
  0.027627  0.015950  0.024754      6.000000
 -0.000000  0.031900  0.024754      6.000000
  0.055253  0.031900  0.024754      6.000000
 -0.000000  0.063801  0.024754      6.000000
  0.082880  0.047851  0.024754      6.000000
 -0.000000  0.095701  0.024754      6.000000
  0.110506  0.063801  0.024754      6.000000
  0.027627  0.047851  0.024754     12.000000
  0.055253  0.063801  0.024754     12.000000
 -0.027627  0.079751  0.024754     12.000000
  0.082880  0.079751  0.024754     12.000000
 -0.027627  0.111651  0.024754     12.000000
  0.055253  0.095701  0.024754     12.000000
  0.082880  0.111651  0.024754     12.000000
 -0.000000 -0.000000  0.049507      2.000000
  0.027627  0.015950  0.049507      6.000000
 -0.000000  0.031900  0.049507      6.000000
  0.055253  0.031900  0.049507      6.000000
 -0.000000  0.063801  0.049507      6.000000
  0.082880  0.047851  0.049507      6.000000
 -0.000000  0.095701  0.049507      6.000000
  0.110506  0.063801  0.049507      6.000000
  0.027627  0.047851  0.049507     12.000000
  0.055253  0.063801  0.049507     12.000000
 -0.027627  0.079751  0.049507     12.000000
  0.082880  0.079751  0.049507     12.000000
 -0.027627  0.111651  0.049507     12.000000
  0.055253  0.095701  0.049507     12.000000
  0.082880  0.111651  0.049507     12.000000
 -0.000000 -0.000000  0.074261      2.000000
  0.027627  0.015950  0.074261      6.000000
 -0.000000  0.031900  0.074261      6.000000
  0.055253  0.031900  0.074261      6.000000
 -0.000000  0.063801  0.074261      6.000000
  0.082880  0.047851  0.074261      6.000000
 -0.000000  0.095701  0.074261      6.000000
  0.110506  0.063801  0.074261      6.000000
  0.027627  0.047851  0.074261     12.000000
  0.055253  0.063801  0.074261     12.000000
 -0.027627  0.079751  0.074261     12.000000
  0.082880  0.079751  0.074261     12.000000
 -0.027627  0.111651  0.074261     12.000000
  0.055253  0.095701  0.074261     12.000000
  0.082880  0.111651  0.074261     12.000000
 -0.000000 -0.000000  0.099014      1.000000
  0.027627  0.015950  0.099014      6.000000
  0.055253  0.031900  0.099014      6.000000
  0.082880  0.047851  0.099014      6.000000
  0.110506  0.063801  0.099014      3.000000
  0.027627  0.047851  0.099014      6.000000
  0.055253  0.063801  0.099014     12.000000
  0.082880  0.079751  0.099014     12.000000
  0.055253  0.095701  0.099014      6.000000
  0.082880  0.111651  0.099014      6.000000
 
 
 Subroutine IBZKPT_HF returns following result:
 ==============================================
 
 Found    512 k-points in 1st BZ
 the following    512 k-points will be used (e.g. in the exchange kernel)
 Following reciprocal coordinates:   # in IRBZ
  0.000000  0.000000  0.000000    0.00195312   1 t-inv F
  0.125000 -0.000000  0.000000    0.00195312   2 t-inv F
  0.250000 -0.000000  0.000000    0.00195312   3 t-inv F
  0.375000 -0.000000  0.000000    0.00195312   4 t-inv F
  0.500000 -0.000000  0.000000    0.00195312   5 t-inv F
  0.125000  0.125000  0.000000    0.00195312   6 t-inv F
  0.250000  0.125000  0.000000    0.00195312   7 t-inv F
  0.375000  0.125000  0.000000    0.00195312   8 t-inv F
  0.250000  0.250000  0.000000    0.00195312   9 t-inv F
  0.375000  0.250000  0.000000    0.00195312  10 t-inv F
 -0.000000  0.000000  0.125000    0.00195312  11 t-inv F
  0.125000 -0.000000  0.125000    0.00195312  12 t-inv F
 -0.000000  0.125000  0.125000    0.00195312  13 t-inv F
  0.250000 -0.000000  0.125000    0.00195312  14 t-inv F
 -0.000000  0.250000  0.125000    0.00195312  15 t-inv F
  0.375000 -0.000000  0.125000    0.00195312  16 t-inv F
 -0.000000  0.375000  0.125000    0.00195312  17 t-inv F
  0.500000 -0.000000  0.125000    0.00195312  18 t-inv F
  0.125000  0.125000  0.125000    0.00195312  19 t-inv F
  0.250000  0.125000  0.125000    0.00195312  20 t-inv F
 -0.125000  0.375000  0.125000    0.00195312  21 t-inv F
  0.375000  0.125000  0.125000    0.00195312  22 t-inv F
 -0.125000  0.500000  0.125000    0.00195312  23 t-inv F
  0.250000  0.250000  0.125000    0.00195312  24 t-inv F
  0.375000  0.250000  0.125000    0.00195312  25 t-inv F
 -0.000000  0.000000  0.250000    0.00195312  26 t-inv F
  0.125000 -0.000000  0.250000    0.00195312  27 t-inv F
 -0.000000  0.125000  0.250000    0.00195312  28 t-inv F
  0.250000 -0.000000  0.250000    0.00195312  29 t-inv F
 -0.000000  0.250000  0.250000    0.00195312  30 t-inv F
  0.375000 -0.000000  0.250000    0.00195312  31 t-inv F
 -0.000000  0.375000  0.250000    0.00195312  32 t-inv F
  0.500000 -0.000000  0.250000    0.00195312  33 t-inv F
  0.125000  0.125000  0.250000    0.00195312  34 t-inv F
  0.250000  0.125000  0.250000    0.00195312  35 t-inv F
 -0.125000  0.375000  0.250000    0.00195312  36 t-inv F
  0.375000  0.125000  0.250000    0.00195312  37 t-inv F
 -0.125000  0.500000  0.250000    0.00195312  38 t-inv F
  0.250000  0.250000  0.250000    0.00195312  39 t-inv F
  0.375000  0.250000  0.250000    0.00195312  40 t-inv F
 -0.000000  0.000000  0.375000    0.00195312  41 t-inv F
  0.125000  0.000000  0.375000    0.00195312  42 t-inv F
 -0.000000  0.125000  0.375000    0.00195312  43 t-inv F
  0.250000  0.000000  0.375000    0.00195312  44 t-inv F
 -0.000000  0.250000  0.375000    0.00195312  45 t-inv F
  0.375000 -0.000000  0.375000    0.00195312  46 t-inv F
 -0.000000  0.375000  0.375000    0.00195312  47 t-inv F
  0.500000 -0.000000  0.375000    0.00195312  48 t-inv F
  0.125000  0.125000  0.375000    0.00195312  49 t-inv F
  0.250000  0.125000  0.375000    0.00195312  50 t-inv F
 -0.125000  0.375000  0.375000    0.00195312  51 t-inv F
  0.375000  0.125000  0.375000    0.00195312  52 t-inv F
 -0.125000  0.500000  0.375000    0.00195312  53 t-inv F
  0.250000  0.250000  0.375000    0.00195312  54 t-inv F
  0.375000  0.250000  0.375000    0.00195312  55 t-inv F
 -0.000000  0.000000  0.500000    0.00195312  56 t-inv F
  0.125000  0.000000  0.500000    0.00195312  57 t-inv F
  0.250000 -0.000000  0.500000    0.00195312  58 t-inv F
  0.375000 -0.000000  0.500000    0.00195312  59 t-inv F
  0.500000 -0.000000  0.500000    0.00195312  60 t-inv F
  0.125000  0.125000  0.500000    0.00195312  61 t-inv F
  0.250000  0.125000  0.500000    0.00195312  62 t-inv F
  0.375000  0.125000  0.500000    0.00195312  63 t-inv F
  0.250000  0.250000  0.500000    0.00195312  64 t-inv F
  0.375000  0.250000  0.500000    0.00195312  65 t-inv F
 -0.000000  0.125000  0.000000    0.00195312   2 t-inv F
 -0.125000  0.125000  0.000000    0.00195312   2 t-inv F
 -0.000000 -0.125000  0.000000    0.00195312   2 t-inv F
  0.125000 -0.125000  0.000000    0.00195312   2 t-inv F
 -0.125000 -0.000000  0.000000    0.00195312   2 t-inv F
 -0.000000  0.250000  0.000000    0.00195312   3 t-inv F
 -0.250000  0.250000  0.000000    0.00195312   3 t-inv F
 -0.000000 -0.250000  0.000000    0.00195312   3 t-inv F
  0.250000 -0.250000  0.000000    0.00195312   3 t-inv F
 -0.250000 -0.000000  0.000000    0.00195312   3 t-inv F
 -0.000000  0.375000  0.000000    0.00195312   4 t-inv F
 -0.375000  0.375000  0.000000    0.00195312   4 t-inv F
 -0.000000 -0.375000  0.000000    0.00195312   4 t-inv F
  0.375000 -0.375000  0.000000    0.00195312   4 t-inv F
 -0.375000 -0.000000  0.000000    0.00195312   4 t-inv F
 -0.000000  0.500000  0.000000    0.00195312   5 t-inv F
 -0.500000  0.500000  0.000000    0.00195312   5 t-inv F
 -0.250000  0.125000  0.000000    0.00195312   6 t-inv F
  0.125000 -0.250000  0.000000    0.00195312   6 t-inv F
  0.125000  0.250000  0.000000    0.00195312   7 t-inv F
 -0.375000  0.250000  0.000000    0.00195312   7 t-inv F
  0.125000 -0.375000  0.000000    0.00195312   7 t-inv F
  0.250000 -0.375000  0.000000    0.00195312   7 t-inv F
 -0.375000  0.125000  0.000000    0.00195312   7 t-inv F
  0.125000  0.375000  0.000000    0.00195312   8 t-inv F
 -0.500000  0.375000  0.000000    0.00195312   8 t-inv F
  0.125000 -0.500000  0.000000    0.00195312   8 t-inv F
  0.375000 -0.500000  0.000000    0.00195312   8 t-inv F
 -0.500000  0.125000  0.000000    0.00195312   8 t-inv F
 -0.500000  0.250000  0.000000    0.00195312   9 t-inv F
  0.250000 -0.500000  0.000000    0.00195312   9 t-inv F
  0.250000  0.375000  0.000000    0.00195312  10 t-inv F
 -0.625000  0.375000  0.000000    0.00195312  10 t-inv F
  0.000000 -0.000000 -0.125000    0.00195312  11 t-inv F
 -0.000000  0.125000 -0.125000    0.00195312  12 t-inv F
 -0.125000  0.125000  0.125000    0.00195312  12 t-inv F
 -0.000000 -0.125000  0.125000    0.00195312  12 t-inv F
  0.125000 -0.125000 -0.125000    0.00195312  12 t-inv F
 -0.125000 -0.000000 -0.125000    0.00195312  12 t-inv F
  0.125000 -0.000000 -0.125000    0.00195312  13 t-inv F
 -0.125000 -0.000000  0.125000    0.00195312  13 t-inv F
  0.125000 -0.125000  0.125000    0.00195312  13 t-inv F
 -0.000000 -0.125000 -0.125000    0.00195312  13 t-inv F
 -0.125000  0.125000 -0.125000    0.00195312  13 t-inv F
 -0.000000  0.250000 -0.125000    0.00195312  14 t-inv F
 -0.250000  0.250000  0.125000    0.00195312  14 t-inv F
 -0.000000 -0.250000  0.125000    0.00195312  14 t-inv F
  0.250000 -0.250000 -0.125000    0.00195312  14 t-inv F
 -0.250000 -0.000000 -0.125000    0.00195312  14 t-inv F
  0.250000 -0.000000 -0.125000    0.00195312  15 t-inv F
 -0.250000 -0.000000  0.125000    0.00195312  15 t-inv F
  0.250000 -0.250000  0.125000    0.00195312  15 t-inv F
 -0.000000 -0.250000 -0.125000    0.00195312  15 t-inv F
 -0.250000  0.250000 -0.125000    0.00195312  15 t-inv F
 -0.000000  0.375000 -0.125000    0.00195312  16 t-inv F
 -0.375000  0.375000  0.125000    0.00195312  16 t-inv F
 -0.000000 -0.375000  0.125000    0.00195312  16 t-inv F
  0.375000 -0.375000 -0.125000    0.00195312  16 t-inv F
 -0.375000 -0.000000 -0.125000    0.00195312  16 t-inv F
  0.375000 -0.000000 -0.125000    0.00195312  17 t-inv F
 -0.375000 -0.000000  0.125000    0.00195312  17 t-inv F
  0.375000 -0.375000  0.125000    0.00195312  17 t-inv F
 -0.000000 -0.375000 -0.125000    0.00195312  17 t-inv F
 -0.375000  0.375000 -0.125000    0.00195312  17 t-inv F
 -0.000000  0.500000 -0.125000    0.00195312  18 t-inv F
 -0.500000  0.500000  0.125000    0.00195312  18 t-inv F
 -0.000000 -0.500000  0.125000    0.00195312  18 t-inv F
  0.500000 -0.500000 -0.125000    0.00195312  18 t-inv F
 -0.500000 -0.000000 -0.125000    0.00195312  18 t-inv F
  0.125000  0.125000 -0.125000    0.00195312  19 t-inv F
 -0.250000  0.125000  0.125000    0.00195312  19 t-inv F
  0.125000 -0.250000  0.125000    0.00195312  19 t-inv F
  0.125000 -0.250000 -0.125000    0.00195312  19 t-inv F
 -0.250000  0.125000 -0.125000    0.00195312  19 t-inv F
  0.125000  0.250000 -0.125000    0.00195312  20 t-inv F
 -0.375000  0.250000  0.125000    0.00195312  20 t-inv F
  0.125000 -0.375000  0.125000    0.00195312  20 t-inv F
  0.250000 -0.375000 -0.125000    0.00195312  20 t-inv F
 -0.375000  0.125000 -0.125000    0.00195312  20 t-inv F
  0.375000 -0.125000 -0.125000    0.00195312  21 t-inv F
 -0.250000 -0.125000  0.125000    0.00195312  21 t-inv F
  0.375000 -0.250000  0.125000    0.00195312  21 t-inv F
 -0.125000 -0.250000 -0.125000    0.00195312  21 t-inv F
 -0.250000  0.375000 -0.125000    0.00195312  21 t-inv F
  0.125000  0.375000 -0.125000    0.00195312  22 t-inv F
 -0.500000  0.375000  0.125000    0.00195312  22 t-inv F
  0.125000 -0.500000  0.125000    0.00195312  22 t-inv F
  0.375000 -0.500000 -0.125000    0.00195312  22 t-inv F
 -0.500000  0.125000 -0.125000    0.00195312  22 t-inv F
  0.500000 -0.125000 -0.125000    0.00195312  23 t-inv F
 -0.375000 -0.125000  0.125000    0.00195312  23 t-inv F
  0.500000 -0.375000  0.125000    0.00195312  23 t-inv F
 -0.125000 -0.375000 -0.125000    0.00195312  23 t-inv F
 -0.375000  0.500000 -0.125000    0.00195312  23 t-inv F
  0.250000  0.250000 -0.125000    0.00195312  24 t-inv F
 -0.500000  0.250000  0.125000    0.00195312  24 t-inv F
  0.250000 -0.500000  0.125000    0.00195312  24 t-inv F
  0.250000 -0.500000 -0.125000    0.00195312  24 t-inv F
 -0.500000  0.250000 -0.125000    0.00195312  24 t-inv F
  0.250000  0.375000 -0.125000    0.00195312  25 t-inv F
 -0.625000  0.375000  0.125000    0.00195312  25 t-inv F
  0.250000 -0.625000  0.125000    0.00195312  25 t-inv F
  0.375000 -0.625000 -0.125000    0.00195312  25 t-inv F
 -0.625000  0.250000 -0.125000    0.00195312  25 t-inv F
  0.000000 -0.000000 -0.250000    0.00195312  26 t-inv F
 -0.000000  0.125000 -0.250000    0.00195312  27 t-inv F
 -0.125000  0.125000  0.250000    0.00195312  27 t-inv F
 -0.000000 -0.125000  0.250000    0.00195312  27 t-inv F
  0.125000 -0.125000 -0.250000    0.00195312  27 t-inv F
 -0.125000 -0.000000 -0.250000    0.00195312  27 t-inv F
  0.125000 -0.000000 -0.250000    0.00195312  28 t-inv F
 -0.125000 -0.000000  0.250000    0.00195312  28 t-inv F
  0.125000 -0.125000  0.250000    0.00195312  28 t-inv F
 -0.000000 -0.125000 -0.250000    0.00195312  28 t-inv F
 -0.125000  0.125000 -0.250000    0.00195312  28 t-inv F
 -0.000000  0.250000 -0.250000    0.00195312  29 t-inv F
 -0.250000  0.250000  0.250000    0.00195312  29 t-inv F
 -0.000000 -0.250000  0.250000    0.00195312  29 t-inv F
  0.250000 -0.250000 -0.250000    0.00195312  29 t-inv F
 -0.250000 -0.000000 -0.250000    0.00195312  29 t-inv F
  0.250000 -0.000000 -0.250000    0.00195312  30 t-inv F
 -0.250000 -0.000000  0.250000    0.00195312  30 t-inv F
  0.250000 -0.250000  0.250000    0.00195312  30 t-inv F
 -0.000000 -0.250000 -0.250000    0.00195312  30 t-inv F
 -0.250000  0.250000 -0.250000    0.00195312  30 t-inv F
 -0.000000  0.375000 -0.250000    0.00195312  31 t-inv F
 -0.375000  0.375000  0.250000    0.00195312  31 t-inv F
 -0.000000 -0.375000  0.250000    0.00195312  31 t-inv F
  0.375000 -0.375000 -0.250000    0.00195312  31 t-inv F
 -0.375000 -0.000000 -0.250000    0.00195312  31 t-inv F
  0.375000 -0.000000 -0.250000    0.00195312  32 t-inv F
 -0.375000 -0.000000  0.250000    0.00195312  32 t-inv F
  0.375000 -0.375000  0.250000    0.00195312  32 t-inv F
 -0.000000 -0.375000 -0.250000    0.00195312  32 t-inv F
 -0.375000  0.375000 -0.250000    0.00195312  32 t-inv F
 -0.000000  0.500000 -0.250000    0.00195312  33 t-inv F
 -0.500000  0.500000  0.250000    0.00195312  33 t-inv F
 -0.000000 -0.500000  0.250000    0.00195312  33 t-inv F
  0.500000 -0.500000 -0.250000    0.00195312  33 t-inv F
 -0.500000 -0.000000 -0.250000    0.00195312  33 t-inv F
  0.125000  0.125000 -0.250000    0.00195312  34 t-inv F
 -0.250000  0.125000  0.250000    0.00195312  34 t-inv F
  0.125000 -0.250000  0.250000    0.00195312  34 t-inv F
  0.125000 -0.250000 -0.250000    0.00195312  34 t-inv F
 -0.250000  0.125000 -0.250000    0.00195312  34 t-inv F
  0.125000  0.250000 -0.250000    0.00195312  35 t-inv F
 -0.375000  0.250000  0.250000    0.00195312  35 t-inv F
  0.125000 -0.375000  0.250000    0.00195312  35 t-inv F
  0.250000 -0.375000 -0.250000    0.00195312  35 t-inv F
 -0.375000  0.125000 -0.250000    0.00195312  35 t-inv F
  0.375000 -0.125000 -0.250000    0.00195312  36 t-inv F
 -0.250000 -0.125000  0.250000    0.00195312  36 t-inv F
  0.375000 -0.250000  0.250000    0.00195312  36 t-inv F
 -0.125000 -0.250000 -0.250000    0.00195312  36 t-inv F
 -0.250000  0.375000 -0.250000    0.00195312  36 t-inv F
  0.125000  0.375000 -0.250000    0.00195312  37 t-inv F
 -0.500000  0.375000  0.250000    0.00195312  37 t-inv F
  0.125000 -0.500000  0.250000    0.00195312  37 t-inv F
  0.375000 -0.500000 -0.250000    0.00195312  37 t-inv F
 -0.500000  0.125000 -0.250000    0.00195312  37 t-inv F
  0.500000 -0.125000 -0.250000    0.00195312  38 t-inv F
 -0.375000 -0.125000  0.250000    0.00195312  38 t-inv F
  0.500000 -0.375000  0.250000    0.00195312  38 t-inv F
 -0.125000 -0.375000 -0.250000    0.00195312  38 t-inv F
 -0.375000  0.500000 -0.250000    0.00195312  38 t-inv F
  0.250000  0.250000 -0.250000    0.00195312  39 t-inv F
 -0.500000  0.250000  0.250000    0.00195312  39 t-inv F
  0.250000 -0.500000  0.250000    0.00195312  39 t-inv F
  0.250000 -0.500000 -0.250000    0.00195312  39 t-inv F
 -0.500000  0.250000 -0.250000    0.00195312  39 t-inv F
  0.250000  0.375000 -0.250000    0.00195312  40 t-inv F
 -0.625000  0.375000  0.250000    0.00195312  40 t-inv F
  0.250000 -0.625000  0.250000    0.00195312  40 t-inv F
  0.375000 -0.625000 -0.250000    0.00195312  40 t-inv F
 -0.625000  0.250000 -0.250000    0.00195312  40 t-inv F
  0.000000 -0.000000 -0.375000    0.00195312  41 t-inv F
  0.000000  0.125000 -0.375000    0.00195312  42 t-inv F
 -0.125000  0.125000  0.375000    0.00195312  42 t-inv F
  0.000000 -0.125000  0.375000    0.00195312  42 t-inv F
  0.125000 -0.125000 -0.375000    0.00195312  42 t-inv F
 -0.125000  0.000000 -0.375000    0.00195312  42 t-inv F
  0.125000 -0.000000 -0.375000    0.00195312  43 t-inv F
 -0.125000 -0.000000  0.375000    0.00195312  43 t-inv F
  0.125000 -0.125000  0.375000    0.00195312  43 t-inv F
 -0.000000 -0.125000 -0.375000    0.00195312  43 t-inv F
 -0.125000  0.125000 -0.375000    0.00195312  43 t-inv F
  0.000000  0.250000 -0.375000    0.00195312  44 t-inv F
 -0.250000  0.250000  0.375000    0.00195312  44 t-inv F
  0.000000 -0.250000  0.375000    0.00195312  44 t-inv F
  0.250000 -0.250000 -0.375000    0.00195312  44 t-inv F
 -0.250000  0.000000 -0.375000    0.00195312  44 t-inv F
  0.250000 -0.000000 -0.375000    0.00195312  45 t-inv F
 -0.250000 -0.000000  0.375000    0.00195312  45 t-inv F
  0.250000 -0.250000  0.375000    0.00195312  45 t-inv F
 -0.000000 -0.250000 -0.375000    0.00195312  45 t-inv F
 -0.250000  0.250000 -0.375000    0.00195312  45 t-inv F
 -0.000000  0.375000 -0.375000    0.00195312  46 t-inv F
 -0.375000  0.375000  0.375000    0.00195312  46 t-inv F
 -0.000000 -0.375000  0.375000    0.00195312  46 t-inv F
  0.375000 -0.375000 -0.375000    0.00195312  46 t-inv F
 -0.375000 -0.000000 -0.375000    0.00195312  46 t-inv F
  0.375000 -0.000000 -0.375000    0.00195312  47 t-inv F
 -0.375000 -0.000000  0.375000    0.00195312  47 t-inv F
  0.375000 -0.375000  0.375000    0.00195312  47 t-inv F
 -0.000000 -0.375000 -0.375000    0.00195312  47 t-inv F
 -0.375000  0.375000 -0.375000    0.00195312  47 t-inv F
 -0.000000  0.500000 -0.375000    0.00195312  48 t-inv F
 -0.500000  0.500000  0.375000    0.00195312  48 t-inv F
 -0.000000 -0.500000  0.375000    0.00195312  48 t-inv F
  0.500000 -0.500000 -0.375000    0.00195312  48 t-inv F
 -0.500000 -0.000000 -0.375000    0.00195312  48 t-inv F
  0.125000  0.125000 -0.375000    0.00195312  49 t-inv F
 -0.250000  0.125000  0.375000    0.00195312  49 t-inv F
  0.125000 -0.250000  0.375000    0.00195312  49 t-inv F
  0.125000 -0.250000 -0.375000    0.00195312  49 t-inv F
 -0.250000  0.125000 -0.375000    0.00195312  49 t-inv F
  0.125000  0.250000 -0.375000    0.00195312  50 t-inv F
 -0.375000  0.250000  0.375000    0.00195312  50 t-inv F
  0.125000 -0.375000  0.375000    0.00195312  50 t-inv F
  0.250000 -0.375000 -0.375000    0.00195312  50 t-inv F
 -0.375000  0.125000 -0.375000    0.00195312  50 t-inv F
  0.375000 -0.125000 -0.375000    0.00195312  51 t-inv F
 -0.250000 -0.125000  0.375000    0.00195312  51 t-inv F
  0.375000 -0.250000  0.375000    0.00195312  51 t-inv F
 -0.125000 -0.250000 -0.375000    0.00195312  51 t-inv F
 -0.250000  0.375000 -0.375000    0.00195312  51 t-inv F
  0.125000  0.375000 -0.375000    0.00195312  52 t-inv F
 -0.500000  0.375000  0.375000    0.00195312  52 t-inv F
  0.125000 -0.500000  0.375000    0.00195312  52 t-inv F
  0.375000 -0.500000 -0.375000    0.00195312  52 t-inv F
 -0.500000  0.125000 -0.375000    0.00195312  52 t-inv F
  0.500000 -0.125000 -0.375000    0.00195312  53 t-inv F
 -0.375000 -0.125000  0.375000    0.00195312  53 t-inv F
  0.500000 -0.375000  0.375000    0.00195312  53 t-inv F
 -0.125000 -0.375000 -0.375000    0.00195312  53 t-inv F
 -0.375000  0.500000 -0.375000    0.00195312  53 t-inv F
  0.250000  0.250000 -0.375000    0.00195312  54 t-inv F
 -0.500000  0.250000  0.375000    0.00195312  54 t-inv F
  0.250000 -0.500000  0.375000    0.00195312  54 t-inv F
  0.250000 -0.500000 -0.375000    0.00195312  54 t-inv F
 -0.500000  0.250000 -0.375000    0.00195312  54 t-inv F
  0.250000  0.375000 -0.375000    0.00195312  55 t-inv F
 -0.625000  0.375000  0.375000    0.00195312  55 t-inv F
  0.250000 -0.625000  0.375000    0.00195312  55 t-inv F
  0.375000 -0.625000 -0.375000    0.00195312  55 t-inv F
 -0.625000  0.250000 -0.375000    0.00195312  55 t-inv F
  0.000000  0.125000 -0.500000    0.00195312  57 t-inv F
 -0.125000  0.125000  0.500000    0.00195312  57 t-inv F
  0.000000 -0.125000  0.500000    0.00195312  57 t-inv F
  0.125000 -0.125000 -0.500000    0.00195312  57 t-inv F
 -0.125000  0.000000 -0.500000    0.00195312  57 t-inv F
 -0.000000  0.250000 -0.500000    0.00195312  58 t-inv F
 -0.250000  0.250000  0.500000    0.00195312  58 t-inv F
 -0.000000 -0.250000  0.500000    0.00195312  58 t-inv F
  0.250000 -0.250000 -0.500000    0.00195312  58 t-inv F
 -0.250000 -0.000000 -0.500000    0.00195312  58 t-inv F
 -0.000000  0.375000 -0.500000    0.00195312  59 t-inv F
 -0.375000  0.375000  0.500000    0.00195312  59 t-inv F
 -0.000000 -0.375000  0.500000    0.00195312  59 t-inv F
  0.375000 -0.375000 -0.500000    0.00195312  59 t-inv F
 -0.375000 -0.000000 -0.500000    0.00195312  59 t-inv F
 -0.000000  0.500000 -0.500000    0.00195312  60 t-inv F
 -0.500000  0.500000  0.500000    0.00195312  60 t-inv F
 -0.250000  0.125000  0.500000    0.00195312  61 t-inv F
  0.125000 -0.250000  0.500000    0.00195312  61 t-inv F
  0.125000  0.250000 -0.500000    0.00195312  62 t-inv F
 -0.375000  0.250000  0.500000    0.00195312  62 t-inv F
  0.125000 -0.375000  0.500000    0.00195312  62 t-inv F
  0.250000 -0.375000 -0.500000    0.00195312  62 t-inv F
 -0.375000  0.125000 -0.500000    0.00195312  62 t-inv F
  0.125000  0.375000 -0.500000    0.00195312  63 t-inv F
 -0.500000  0.375000  0.500000    0.00195312  63 t-inv F
  0.125000 -0.500000  0.500000    0.00195312  63 t-inv F
  0.375000 -0.500000 -0.500000    0.00195312  63 t-inv F
 -0.500000  0.125000 -0.500000    0.00195312  63 t-inv F
 -0.500000  0.250000  0.500000    0.00195312  64 t-inv F
  0.250000 -0.500000  0.500000    0.00195312  64 t-inv F
  0.250000  0.375000 -0.500000    0.00195312  65 t-inv F
 -0.625000  0.375000  0.500000    0.00195312  65 t-inv F
 -0.125000 -0.125000  0.000000    0.00195312   6 t-inv T
  0.250000 -0.125000  0.000000    0.00195312   6 t-inv T
 -0.125000  0.250000  0.000000    0.00195312   6 t-inv T
 -0.250000 -0.125000  0.000000    0.00195312   7 t-inv T
 -0.125000 -0.250000  0.000000    0.00195312   7 t-inv T
  0.375000 -0.250000  0.000000    0.00195312   7 t-inv T
 -0.125000  0.375000  0.000000    0.00195312   7 t-inv T
 -0.250000  0.375000  0.000000    0.00195312   7 t-inv T
  0.375000 -0.125000  0.000000    0.00195312   7 t-inv T
 -0.375000 -0.125000  0.000000    0.00195312   8 t-inv T
 -0.125000 -0.375000  0.000000    0.00195312   8 t-inv T
  0.500000 -0.375000  0.000000    0.00195312   8 t-inv T
 -0.125000  0.500000  0.000000    0.00195312   8 t-inv T
 -0.375000  0.500000  0.000000    0.00195312   8 t-inv T
  0.500000 -0.125000  0.000000    0.00195312   8 t-inv T
 -0.250000 -0.250000  0.000000    0.00195312   9 t-inv T
  0.500000 -0.250000  0.000000    0.00195312   9 t-inv T
 -0.250000  0.500000  0.000000    0.00195312   9 t-inv T
 -0.375000 -0.250000  0.000000    0.00195312  10 t-inv T
 -0.250000 -0.375000  0.000000    0.00195312  10 t-inv T
  0.625000 -0.375000  0.000000    0.00195312  10 t-inv T
 -0.125000 -0.125000 -0.125000    0.00195312  19 t-inv T
 -0.125000 -0.125000  0.125000    0.00195312  19 t-inv T
  0.250000 -0.125000 -0.125000    0.00195312  19 t-inv T
 -0.125000  0.250000 -0.125000    0.00195312  19 t-inv T
 -0.125000  0.250000  0.125000    0.00195312  19 t-inv T
  0.250000 -0.125000  0.125000    0.00195312  19 t-inv T
 -0.250000 -0.125000 -0.125000    0.00195312  20 t-inv T
 -0.125000 -0.250000  0.125000    0.00195312  20 t-inv T
  0.375000 -0.250000 -0.125000    0.00195312  20 t-inv T
 -0.125000  0.375000 -0.125000    0.00195312  20 t-inv T
 -0.250000  0.375000  0.125000    0.00195312  20 t-inv T
  0.375000 -0.125000  0.125000    0.00195312  20 t-inv T
  0.125000 -0.375000 -0.125000    0.00195312  21 t-inv T
 -0.375000  0.125000  0.125000    0.00195312  21 t-inv T
  0.250000  0.125000 -0.125000    0.00195312  21 t-inv T
 -0.375000  0.250000 -0.125000    0.00195312  21 t-inv T
  0.125000  0.250000  0.125000    0.00195312  21 t-inv T
  0.250000 -0.375000  0.125000    0.00195312  21 t-inv T
 -0.375000 -0.125000 -0.125000    0.00195312  22 t-inv T
 -0.125000 -0.375000  0.125000    0.00195312  22 t-inv T
  0.500000 -0.375000 -0.125000    0.00195312  22 t-inv T
 -0.125000  0.500000 -0.125000    0.00195312  22 t-inv T
 -0.375000  0.500000  0.125000    0.00195312  22 t-inv T
  0.500000 -0.125000  0.125000    0.00195312  22 t-inv T
  0.125000 -0.500000 -0.125000    0.00195312  23 t-inv T
 -0.500000  0.125000  0.125000    0.00195312  23 t-inv T
  0.375000  0.125000 -0.125000    0.00195312  23 t-inv T
 -0.500000  0.375000 -0.125000    0.00195312  23 t-inv T
  0.125000  0.375000  0.125000    0.00195312  23 t-inv T
  0.375000 -0.500000  0.125000    0.00195312  23 t-inv T
 -0.250000 -0.250000 -0.125000    0.00195312  24 t-inv T
 -0.250000 -0.250000  0.125000    0.00195312  24 t-inv T
  0.500000 -0.250000 -0.125000    0.00195312  24 t-inv T
 -0.250000  0.500000 -0.125000    0.00195312  24 t-inv T
 -0.250000  0.500000  0.125000    0.00195312  24 t-inv T
  0.500000 -0.250000  0.125000    0.00195312  24 t-inv T
 -0.375000 -0.250000 -0.125000    0.00195312  25 t-inv T
 -0.250000 -0.375000  0.125000    0.00195312  25 t-inv T
  0.625000 -0.375000 -0.125000    0.00195312  25 t-inv T
 -0.250000  0.625000 -0.125000    0.00195312  25 t-inv T
 -0.375000  0.625000  0.125000    0.00195312  25 t-inv T
  0.625000 -0.250000  0.125000    0.00195312  25 t-inv T
 -0.125000 -0.125000 -0.250000    0.00195312  34 t-inv T
 -0.125000 -0.125000  0.250000    0.00195312  34 t-inv T
  0.250000 -0.125000 -0.250000    0.00195312  34 t-inv T
 -0.125000  0.250000 -0.250000    0.00195312  34 t-inv T
 -0.125000  0.250000  0.250000    0.00195312  34 t-inv T
  0.250000 -0.125000  0.250000    0.00195312  34 t-inv T
 -0.250000 -0.125000 -0.250000    0.00195312  35 t-inv T
 -0.125000 -0.250000  0.250000    0.00195312  35 t-inv T
  0.375000 -0.250000 -0.250000    0.00195312  35 t-inv T
 -0.125000  0.375000 -0.250000    0.00195312  35 t-inv T
 -0.250000  0.375000  0.250000    0.00195312  35 t-inv T
  0.375000 -0.125000  0.250000    0.00195312  35 t-inv T
  0.125000 -0.375000 -0.250000    0.00195312  36 t-inv T
 -0.375000  0.125000  0.250000    0.00195312  36 t-inv T
  0.250000  0.125000 -0.250000    0.00195312  36 t-inv T
 -0.375000  0.250000 -0.250000    0.00195312  36 t-inv T
  0.125000  0.250000  0.250000    0.00195312  36 t-inv T
  0.250000 -0.375000  0.250000    0.00195312  36 t-inv T
 -0.375000 -0.125000 -0.250000    0.00195312  37 t-inv T
 -0.125000 -0.375000  0.250000    0.00195312  37 t-inv T
  0.500000 -0.375000 -0.250000    0.00195312  37 t-inv T
 -0.125000  0.500000 -0.250000    0.00195312  37 t-inv T
 -0.375000  0.500000  0.250000    0.00195312  37 t-inv T
  0.500000 -0.125000  0.250000    0.00195312  37 t-inv T
  0.125000 -0.500000 -0.250000    0.00195312  38 t-inv T
 -0.500000  0.125000  0.250000    0.00195312  38 t-inv T
  0.375000  0.125000 -0.250000    0.00195312  38 t-inv T
 -0.500000  0.375000 -0.250000    0.00195312  38 t-inv T
  0.125000  0.375000  0.250000    0.00195312  38 t-inv T
  0.375000 -0.500000  0.250000    0.00195312  38 t-inv T
 -0.250000 -0.250000 -0.250000    0.00195312  39 t-inv T
 -0.250000 -0.250000  0.250000    0.00195312  39 t-inv T
  0.500000 -0.250000 -0.250000    0.00195312  39 t-inv T
 -0.250000  0.500000 -0.250000    0.00195312  39 t-inv T
 -0.250000  0.500000  0.250000    0.00195312  39 t-inv T
  0.500000 -0.250000  0.250000    0.00195312  39 t-inv T
 -0.375000 -0.250000 -0.250000    0.00195312  40 t-inv T
 -0.250000 -0.375000  0.250000    0.00195312  40 t-inv T
  0.625000 -0.375000 -0.250000    0.00195312  40 t-inv T
 -0.250000  0.625000 -0.250000    0.00195312  40 t-inv T
 -0.375000  0.625000  0.250000    0.00195312  40 t-inv T
  0.625000 -0.250000  0.250000    0.00195312  40 t-inv T
 -0.125000 -0.125000 -0.375000    0.00195312  49 t-inv T
 -0.125000 -0.125000  0.375000    0.00195312  49 t-inv T
  0.250000 -0.125000 -0.375000    0.00195312  49 t-inv T
 -0.125000  0.250000 -0.375000    0.00195312  49 t-inv T
 -0.125000  0.250000  0.375000    0.00195312  49 t-inv T
  0.250000 -0.125000  0.375000    0.00195312  49 t-inv T
 -0.250000 -0.125000 -0.375000    0.00195312  50 t-inv T
 -0.125000 -0.250000  0.375000    0.00195312  50 t-inv T
  0.375000 -0.250000 -0.375000    0.00195312  50 t-inv T
 -0.125000  0.375000 -0.375000    0.00195312  50 t-inv T
 -0.250000  0.375000  0.375000    0.00195312  50 t-inv T
  0.375000 -0.125000  0.375000    0.00195312  50 t-inv T
  0.125000 -0.375000 -0.375000    0.00195312  51 t-inv T
 -0.375000  0.125000  0.375000    0.00195312  51 t-inv T
  0.250000  0.125000 -0.375000    0.00195312  51 t-inv T
 -0.375000  0.250000 -0.375000    0.00195312  51 t-inv T
  0.125000  0.250000  0.375000    0.00195312  51 t-inv T
  0.250000 -0.375000  0.375000    0.00195312  51 t-inv T
 -0.375000 -0.125000 -0.375000    0.00195312  52 t-inv T
 -0.125000 -0.375000  0.375000    0.00195312  52 t-inv T
  0.500000 -0.375000 -0.375000    0.00195312  52 t-inv T
 -0.125000  0.500000 -0.375000    0.00195312  52 t-inv T
 -0.375000  0.500000  0.375000    0.00195312  52 t-inv T
  0.500000 -0.125000  0.375000    0.00195312  52 t-inv T
  0.125000 -0.500000 -0.375000    0.00195312  53 t-inv T
 -0.500000  0.125000  0.375000    0.00195312  53 t-inv T
  0.375000  0.125000 -0.375000    0.00195312  53 t-inv T
 -0.500000  0.375000 -0.375000    0.00195312  53 t-inv T
  0.125000  0.375000  0.375000    0.00195312  53 t-inv T
  0.375000 -0.500000  0.375000    0.00195312  53 t-inv T
 -0.250000 -0.250000 -0.375000    0.00195312  54 t-inv T
 -0.250000 -0.250000  0.375000    0.00195312  54 t-inv T
  0.500000 -0.250000 -0.375000    0.00195312  54 t-inv T
 -0.250000  0.500000 -0.375000    0.00195312  54 t-inv T
 -0.250000  0.500000  0.375000    0.00195312  54 t-inv T
  0.500000 -0.250000  0.375000    0.00195312  54 t-inv T
 -0.375000 -0.250000 -0.375000    0.00195312  55 t-inv T
 -0.250000 -0.375000  0.375000    0.00195312  55 t-inv T
  0.625000 -0.375000 -0.375000    0.00195312  55 t-inv T
 -0.250000  0.625000 -0.375000    0.00195312  55 t-inv T
 -0.375000  0.625000  0.375000    0.00195312  55 t-inv T
  0.625000 -0.250000  0.375000    0.00195312  55 t-inv T
 -0.125000 -0.125000 -0.500000    0.00195312  61 t-inv T
  0.250000 -0.125000 -0.500000    0.00195312  61 t-inv T
 -0.125000  0.250000 -0.500000    0.00195312  61 t-inv T
 -0.250000 -0.125000 -0.500000    0.00195312  62 t-inv T
 -0.125000 -0.250000  0.500000    0.00195312  62 t-inv T
  0.375000 -0.250000 -0.500000    0.00195312  62 t-inv T
 -0.125000  0.375000 -0.500000    0.00195312  62 t-inv T
 -0.250000  0.375000  0.500000    0.00195312  62 t-inv T
  0.375000 -0.125000  0.500000    0.00195312  62 t-inv T
 -0.375000 -0.125000 -0.500000    0.00195312  63 t-inv T
 -0.125000 -0.375000  0.500000    0.00195312  63 t-inv T
  0.500000 -0.375000 -0.500000    0.00195312  63 t-inv T
 -0.125000  0.500000 -0.500000    0.00195312  63 t-inv T
 -0.375000  0.500000  0.500000    0.00195312  63 t-inv T
  0.500000 -0.125000  0.500000    0.00195312  63 t-inv T
 -0.250000 -0.250000 -0.500000    0.00195312  64 t-inv T
  0.500000 -0.250000 -0.500000    0.00195312  64 t-inv T
 -0.250000  0.500000 -0.500000    0.00195312  64 t-inv T
 -0.375000 -0.250000 -0.500000    0.00195312  65 t-inv T
 -0.250000 -0.375000  0.500000    0.00195312  65 t-inv T
  0.625000 -0.375000 -0.500000    0.00195312  65 t-inv T


--------------------------------------------------------------------------------------------------------




 Dimension of arrays:
   k-points           NKPTS =     65   k-points in BZ     NKDIM =     65   number of bands    NBANDS=     48
   number of dos      NEDOS =    301   number of ions     NIONS =      3
   non local maximal  LDIM  =      5   non local SUM 2l+1 LMDIM =     13
   total plane-waves  NPLWV =   6480
   max r-space proj   IRMAX =      1   max aug-charges    IRDMAX=   3356
   dimension x,y,z NGX =    18 NGY =   18 NGZ =   20
   dimension x,y,z NGXF=    36 NGYF=   36 NGZF=   40
   support grid    NGXF=    36 NGYF=   36 NGZF=   40
   ions per type =               3
   NGX,Y,Z   is equivalent  to a cutoff of   6.61,  6.61,  6.58 a.u.
   NGXF,Y,Z  is equivalent  to a cutoff of  13.23, 13.23, 13.17 a.u.

 SYSTEM =  Se                                      
 POSCAR =  Se3                                     

 Startparameter for this run:
   NWRITE =      2    write-flag & timer
   PREC   = normal    normal or accurate (medium, high low for compatibility)
   ISTART =      1    job   : 0-new  1-cont  2-samecut
   ICHARG =      0    charge: 1-file 2-atom 10-const
   ISPIN  =      1    spin polarized calculation?
   LNONCOLLINEAR =      F non collinear calculations
   LSORBIT =      F    spin-orbit coupling
   INIWAV =      1    electr: 0-lowe 1-rand  2-diag
   LASPH  =      F    aspherical Exc in radial PAW
 Electronic Relaxation 1
   ENCUT  =  275.0 eV  20.21 Ry    4.50 a.u.   6.12  6.12  6.83*2*pi/ulx,y,z
   ENINI  =  275.0     initial cutoff
   ENAUG  =  446.8 eV  augmentation charge cutoff
   NELM   =     60;   NELMIN=  2; NELMDL=  0     # of ELM steps 
   EDIFF  = 0.1E-03   stopping-criterion for ELM
   LREAL  =      F    real-space projection
   NLSPLINE    = F    spline interpolate recip. space projectors
   LCOMPAT=      F    compatible to vasp.4.4
   GGA_COMPAT  = T    GGA compatible to vasp.4.4-vasp.4.6
   LMAXPAW     = -100 max onsite density
   LMAXMIX     =    2 max onsite mixed and CHGCAR
   VOSKOWN=      0    Vosko Wilk Nusair interpolation
   ROPT   =    0.00000
 Ionic relaxation
   EDIFFG = 0.1E-02   stopping-criterion for IOM
   NSW    =      0    number of steps for IOM
   NBLOCK =      1;   KBLOCK =      1    inner block; outer block 
   IBRION =     -1    ionic relax: 0-MD 1-quasi-New 2-CG
   NFREE  =      0    steps in history (QN), initial steepest desc. (CG)
   ISIF   =      2    stress and relaxation
   IWAVPR =     10    prediction:  0-non 1-charg 2-wave 3-comb
   ISYM   =      2    0-nonsym 1-usesym 2-fastsym
   LCORR  =      T    Harris-Foulkes like correction to forces

   POTIM  = 0.5000    time-step for ionic-motion
   TEIN   =    0.0    initial temperature
   TEBEG  =    0.0;   TEEND  =   0.0 temperature during run
   SMASS  =  -3.00    Nose mass-parameter (am)
   estimated Nose-frequenzy (Omega)   =  0.10E-29 period in steps = 0.13E+47 mass=  -0.468E-27a.u.
   SCALEE = 1.0000    scale energy and forces
   NPACO  =    256;   APACO  = 10.0  distance and # of slots for P.C.
   PSTRESS=    0.0 pullay stress

  Mass of Ions in am
   POMASS =  78.96
  Ionic Valenz
   ZVAL   =   6.00
  Atomic Wigner-Seitz radii
   RWIGS  =  -1.00
  virtual crystal weights 
   VCA    =   1.00
   NELECT =      18.0000    total number of electrons
   NUPDOWN=      -1.0000    fix difference up-down

 DOS related values:
   EMIN   =  10.00;   EMAX   =-10.00  energy-range for DOS
   EFERMI =   0.00;   METHOD = LEGACY      
   ISMEAR =     0;   SIGMA  =   0.05  broadening in eV -4-tet -1-fermi 0-gaus

 Electronic relaxation 2 (details)
   IALGO  =     38    algorithm
   LDIAG  =      T    sub-space diagonalisation (order eigenvalues)
   LSUBROT=      F    optimize rotation matrix (better conditioning)
   TURBO    =      0    0=normal 1=particle mesh
   IRESTART =      0    0=no restart 2=restart with 2 vectors
   NREBOOT  =      0    no. of reboots
   NMIN     =      0    reboot dimension
   EREF     =   0.00    reference energy to select bands
   IMIX   =      4    mixing-type and parameters
     AMIX     =   0.40;   BMIX     =  1.00
     AMIX_MAG =   1.60;   BMIX_MAG =  1.00
     AMIN     =   0.10
     WC   =   100.;   INIMIX=   1;  MIXPRE=   1;  MAXMIX= -45

 Intra band minimization:
   WEIMIN = 0.0000     energy-eigenvalue tresh-hold
   EBREAK =  0.52E-06  absolut break condition
   DEPER  =   0.30     relativ break condition  

   TIME   =   0.40     timestep for ELM

  volume/ion in A,a.u.               =      29.84       201.39
  Fermi-wavevector in a.u.,A,eV,Ry     =   0.959052  1.812345 12.514365  0.919780
  Thomas-Fermi vector in A             =   2.088213
 
 Write flags
   LWAVE        =      T    write WAVECAR
   LDOWNSAMPLE  =      F    k-point downsampling of WAVECAR
   LCHARG       =      T    write CHGCAR
   LVTOT        =      F    write LOCPOT, total local potential
   LVHAR        =      F    write LOCPOT, Hartree potential only
   WRT_POTENTIAL= false  ! write potential to hdf5 file
   LELF         =      F    write electronic localiz. function (ELF)
   LORBIT       =      0    0 simple, 1 ext, 2 COOP (PROOUT), +10 PAW based schemes


 Dipole corrections
   LMONO      =      F    monopole corrections only (constant potential shift)
   LDIPOL     =      F    correct potential (dipole corrections)
   IDIPOL     =      0    1-x, 2-y, 3-z, 4-all directions 
   EPSILON    =  1.0000000 bulk dielectric constant
   LVACPOTAV  =      F  vacuum potentials using an averaging scheme for the charge density
   VACPOTFLAT =  0.1000000 required flatness to determine vacuum potential
 Exchange correlation treatment:
   GGA     = PE    functional components
   XC_C    = 1    coefficients multiplying the functional components
   LIBXC   =     F    Libxc                    
   VOSKOWN =     0    Vosko Wilk Nusair interpolation
   LHFCALC =     F    Hartree Fock is set to
   LHFONE  =     F    Hartree Fock one center treatment
   AEXX    =    0.0000 exact exchange contribution

 Parameters of functionals:
   PE:
     No parameter
 
 Van der Waals corrections
   IVDW    =     0    specifies the selected vdW correction

 Linear response parameters
   LEPSILON=     F    determine dielectric tensor
   LRPA    =     F    only Hartree local field effects (RPA)
   LNABLA  =     F    use nabla operator in PAW spheres
   LVEL    =     F    velocity operator in full k-point grid
   CSHIFT  =0.1000    complex shift for real part using Kramers Kronig
   OMEGAMAX=  -1.0    maximum frequency
   DEG_THRESHOLD= 0.2000000E-02 threshold for treating states as degnerate
   RTIME   =   -0.100 relaxation time in fs
  (WPLASMAI=    0.000 imaginary part of plasma frequency in eV, 0.658/RTIME)
   DFIELD  = 0.0000000 0.0000000 0.0000000 field for delta impulse in time
 
  Optional k-point grid parameters
   LKPOINTS_OPT  =     T    use optional k-point grid
   KPOINTS_OPT_MODE=     1    mode for optional k-point grid
 
 Orbital magnetization related:
   ORBITALMAG=     F  switch on orbital magnetization
   LCHIMAG   =     F  perturbation theory with respect to B field
   DQ        =  0.001000  dq finite difference perturbation B field
   LLRAUG    =     F  two centre corrections for induced B field
   LBONE     =     F  B-component reconstruction in AE one-centre
   LVGVCALC  =     T  calculate vGv susceptibility
   LVGVAPPL  =     F  apply vGv susceptibility instead of pGv for G=0

 Random number generation:
   RANDOM_GENERATOR = DEFAULT
   PCG_SEED         = not used


--------------------------------------------------------------------------------------------------------


 Static calculation
 charge density and potential will be updated during run
 non-spin polarized calculation
 Variant of blocked Davidson
 Davidson routine will perform the subspace rotation
 perform sub-space diagonalisation
    after iterative eigenvector-optimisation
 modified Broyden-mixing scheme, WC =      100.0
 initial mixing is a Kerker type mixing with AMIX =  0.4000 and BMIX =      1.0000
 Hartree-type preconditioning will be used
 using additional bands           39
 reciprocal scheme for non local part
 use partial core corrections
 calculate Harris-corrections to forces 
   (improved forces if not selfconsistent)
 use gradient corrections 
 use of overlap-Matrix (Vanderbilt PP)
 Gauss-broadening in eV      SIGMA  =   0.05


--------------------------------------------------------------------------------------------------------


  energy-cutoff  :      275.02
  volume of cell :       89.53
      direct lattice vectors                 reciprocal lattice vectors
     4.524640000  0.000000000  0.000000000     0.221012058  0.127601371  0.000000000
    -2.262320000  3.918453183  0.000000000     0.000000000  0.255202743  0.000000000
     0.000000000  0.000000000  5.049780000    -0.000000000 -0.000000000  0.198028429

  length of vectors
     4.524640000  4.524640000  5.049780000     0.255202743  0.255202743  0.198028429


 
 old parameters found on file WAVECAR:
  energy-cutoff  :      275.02
  volume of cell :       89.53
      direct lattice vectors                 reciprocal lattice vectors
     4.524640000  0.000000000  0.000000000     0.221012058  0.127601371  0.000000000
    -2.262320000  3.918453183  0.000000000     0.000000000  0.255202743  0.000000000
     0.000000000  0.000000000  5.049780000    -0.000000000 -0.000000000  0.198028429

  length of vectors

 
 k-points in units of 2pi/SCALE and weight: Automatic kpoint scheme                 
   0.00000000  0.00000000  0.00000000       0.002
   0.02762651  0.01595017  0.00000000       0.012
   0.05525301  0.03190034  0.00000000       0.012
   0.08287952  0.04785051  0.00000000       0.012
   0.11050603  0.06380069  0.00000000       0.006
   0.02762651  0.04785051  0.00000000       0.012
   0.05525301  0.06380069  0.00000000       0.023
   0.08287952  0.07975086  0.00000000       0.023
   0.05525301  0.09570103  0.00000000       0.012
   0.08287952  0.11165120  0.00000000       0.012
  -0.00000000 -0.00000000  0.02475355       0.004
   0.02762651  0.01595017  0.02475355       0.012
  -0.00000000  0.03190034  0.02475355       0.012
   0.05525301  0.03190034  0.02475355       0.012
  -0.00000000  0.06380069  0.02475355       0.012
   0.08287952  0.04785051  0.02475355       0.012
  -0.00000000  0.09570103  0.02475355       0.012
   0.11050603  0.06380069  0.02475355       0.012
   0.02762651  0.04785051  0.02475355       0.023
   0.05525301  0.06380069  0.02475355       0.023
  -0.02762651  0.07975086  0.02475355       0.023
   0.08287952  0.07975086  0.02475355       0.023
  -0.02762651  0.11165120  0.02475355       0.023
   0.05525301  0.09570103  0.02475355       0.023
   0.08287952  0.11165120  0.02475355       0.023
  -0.00000000 -0.00000000  0.04950711       0.004
   0.02762651  0.01595017  0.04950711       0.012
  -0.00000000  0.03190034  0.04950711       0.012
   0.05525301  0.03190034  0.04950711       0.012
  -0.00000000  0.06380069  0.04950711       0.012
   0.08287952  0.04785051  0.04950711       0.012
  -0.00000000  0.09570103  0.04950711       0.012
   0.11050603  0.06380069  0.04950711       0.012
   0.02762651  0.04785051  0.04950711       0.023
   0.05525301  0.06380069  0.04950711       0.023
  -0.02762651  0.07975086  0.04950711       0.023
   0.08287952  0.07975086  0.04950711       0.023
  -0.02762651  0.11165120  0.04950711       0.023
   0.05525301  0.09570103  0.04950711       0.023
   0.08287952  0.11165120  0.04950711       0.023
  -0.00000000 -0.00000000  0.07426066       0.004
   0.02762651  0.01595017  0.07426066       0.012
  -0.00000000  0.03190034  0.07426066       0.012
   0.05525301  0.03190034  0.07426066       0.012
  -0.00000000  0.06380069  0.07426066       0.012
   0.08287952  0.04785051  0.07426066       0.012
  -0.00000000  0.09570103  0.07426066       0.012
   0.11050603  0.06380069  0.07426066       0.012
   0.02762651  0.04785051  0.07426066       0.023
   0.05525301  0.06380069  0.07426066       0.023
  -0.02762651  0.07975086  0.07426066       0.023
   0.08287952  0.07975086  0.07426066       0.023
  -0.02762651  0.11165120  0.07426066       0.023
   0.05525301  0.09570103  0.07426066       0.023
   0.08287952  0.11165120  0.07426066       0.023
  -0.00000000 -0.00000000  0.09901421       0.002
   0.02762651  0.01595017  0.09901421       0.012
   0.05525301  0.03190034  0.09901421       0.012
   0.08287952  0.04785051  0.09901421       0.012
   0.11050603  0.06380069  0.09901421       0.006
   0.02762651  0.04785051  0.09901421       0.012
   0.05525301  0.06380069  0.09901421       0.023
   0.08287952  0.07975086  0.09901421       0.023
   0.05525301  0.09570103  0.09901421       0.012
   0.08287952  0.11165120  0.09901421       0.012
 
 k-points in reciprocal lattice and weights: Automatic kpoint scheme                 
   0.00000000  0.00000000  0.00000000       0.002
   0.12500000 -0.00000000  0.00000000       0.012
   0.25000000 -0.00000000  0.00000000       0.012
   0.37500000 -0.00000000  0.00000000       0.012
   0.50000000 -0.00000000  0.00000000       0.006
   0.12500000  0.12500000  0.00000000       0.012
   0.25000000  0.12500000  0.00000000       0.023
   0.37500000  0.12500000  0.00000000       0.023
   0.25000000  0.25000000  0.00000000       0.012
   0.37500000  0.25000000  0.00000000       0.012
  -0.00000000  0.00000000  0.12500000       0.004
   0.12500000 -0.00000000  0.12500000       0.012
  -0.00000000  0.12500000  0.12500000       0.012
   0.25000000 -0.00000000  0.12500000       0.012
  -0.00000000  0.25000000  0.12500000       0.012
   0.37500000 -0.00000000  0.12500000       0.012
  -0.00000000  0.37500000  0.12500000       0.012
   0.50000000 -0.00000000  0.12500000       0.012
   0.12500000  0.12500000  0.12500000       0.023
   0.25000000  0.12500000  0.12500000       0.023
  -0.12500000  0.37500000  0.12500000       0.023
   0.37500000  0.12500000  0.12500000       0.023
  -0.12500000  0.50000000  0.12500000       0.023
   0.25000000  0.25000000  0.12500000       0.023
   0.37500000  0.25000000  0.12500000       0.023
  -0.00000000  0.00000000  0.25000000       0.004
   0.12500000 -0.00000000  0.25000000       0.012
  -0.00000000  0.12500000  0.25000000       0.012
   0.25000000 -0.00000000  0.25000000       0.012
  -0.00000000  0.25000000  0.25000000       0.012
   0.37500000 -0.00000000  0.25000000       0.012
  -0.00000000  0.37500000  0.25000000       0.012
   0.50000000 -0.00000000  0.25000000       0.012
   0.12500000  0.12500000  0.25000000       0.023
   0.25000000  0.12500000  0.25000000       0.023
  -0.12500000  0.37500000  0.25000000       0.023
   0.37500000  0.12500000  0.25000000       0.023
  -0.12500000  0.50000000  0.25000000       0.023
   0.25000000  0.25000000  0.25000000       0.023
   0.37500000  0.25000000  0.25000000       0.023
  -0.00000000  0.00000000  0.37500000       0.004
   0.12500000  0.00000000  0.37500000       0.012
  -0.00000000  0.12500000  0.37500000       0.012
   0.25000000  0.00000000  0.37500000       0.012
  -0.00000000  0.25000000  0.37500000       0.012
   0.37500000 -0.00000000  0.37500000       0.012
  -0.00000000  0.37500000  0.37500000       0.012
   0.50000000 -0.00000000  0.37500000       0.012
   0.12500000  0.12500000  0.37500000       0.023
   0.25000000  0.12500000  0.37500000       0.023
  -0.12500000  0.37500000  0.37500000       0.023
   0.37500000  0.12500000  0.37500000       0.023
  -0.12500000  0.50000000  0.37500000       0.023
   0.25000000  0.25000000  0.37500000       0.023
   0.37500000  0.25000000  0.37500000       0.023
  -0.00000000  0.00000000  0.50000000       0.002
   0.12500000  0.00000000  0.50000000       0.012
   0.25000000 -0.00000000  0.50000000       0.012
   0.37500000 -0.00000000  0.50000000       0.012
   0.50000000 -0.00000000  0.50000000       0.006
   0.12500000  0.12500000  0.50000000       0.012
   0.25000000  0.12500000  0.50000000       0.023
   0.37500000  0.12500000  0.50000000       0.023
   0.25000000  0.25000000  0.50000000       0.012
   0.37500000  0.25000000  0.50000000       0.012
 
 position of ions in fractional coordinates (direct lattice) 
   0.21903000  0.00000000  0.33333333
   0.00000000  0.21903000  0.66666667
   0.78097000  0.78097000  0.00000000
 
 position of ions in cartesian coordinates  (Angst):
   0.99103190  0.00000000  1.68326000
  -0.49551595  0.85825880  3.36652000
   1.76680405  3.06019438  0.00000000
 


--------------------------------------------------------------------------------------------------------


 k-point     1 :   0.0000 0.0000 0.0000  plane waves:     925
 k-point     2 :   0.1250-0.0000 0.0000  plane waves:     919
 k-point     3 :   0.2500-0.0000 0.0000  plane waves:     919
 k-point     4 :   0.3750-0.0000 0.0000  plane waves:     930
 k-point     5 :   0.5000-0.0000 0.0000  plane waves:     920
 k-point     6 :   0.1250 0.1250 0.0000  plane waves:     922
 k-point     7 :   0.2500 0.1250 0.0000  plane waves:     922
 k-point     8 :   0.3750 0.1250 0.0000  plane waves:     925
 k-point     9 :   0.2500 0.2500 0.0000  plane waves:     936
 k-point    10 :   0.3750 0.2500 0.0000  plane waves:     942
 k-point    11 :  -0.0000 0.0000 0.1250  plane waves:     937
 k-point    12 :   0.1250-0.0000 0.1250  plane waves:     919
 k-point    13 :  -0.0000 0.1250 0.1250  plane waves:     919
 k-point    14 :   0.2500-0.0000 0.1250  plane waves:     920
 k-point    15 :  -0.0000 0.2500 0.1250  plane waves:     920
 k-point    16 :   0.3750-0.0000 0.1250  plane waves:     929
 k-point    17 :  -0.0000 0.3750 0.1250  plane waves:     929
 k-point    18 :   0.5000-0.0000 0.1250  plane waves:     930
 k-point    19 :   0.1250 0.1250 0.1250  plane waves:     919
 k-point    20 :   0.2500 0.1250 0.1250  plane waves:     925
 k-point    21 :  -0.1250 0.3750 0.1250  plane waves:     925
 k-point    22 :   0.3750 0.1250 0.1250  plane waves:     930
 k-point    23 :  -0.1250 0.5000 0.1250  plane waves:     930
 k-point    24 :   0.2500 0.2500 0.1250  plane waves:     937
 k-point    25 :   0.3750 0.2500 0.1250  plane waves:     935
 k-point    26 :  -0.0000 0.0000 0.2500  plane waves:     932
 k-point    27 :   0.1250-0.0000 0.2500  plane waves:     920
 k-point    28 :  -0.0000 0.1250 0.2500  plane waves:     920
 k-point    29 :   0.2500-0.0000 0.2500  plane waves:     927
 k-point    30 :  -0.0000 0.2500 0.2500  plane waves:     927
 k-point    31 :   0.3750-0.0000 0.2500  plane waves:     928
 k-point    32 :  -0.0000 0.3750 0.2500  plane waves:     928
 k-point    33 :   0.5000-0.0000 0.2500  plane waves:     926
 k-point    34 :   0.1250 0.1250 0.2500  plane waves:     922
 k-point    35 :   0.2500 0.1250 0.2500  plane waves:     928
 k-point    36 :  -0.1250 0.3750 0.2500  plane waves:     928
 k-point    37 :   0.3750 0.1250 0.2500  plane waves:     926
 k-point    38 :  -0.1250 0.5000 0.2500  plane waves:     926
 k-point    39 :   0.2500 0.2500 0.2500  plane waves:     933
 k-point    40 :   0.3750 0.2500 0.2500  plane waves:     937
 k-point    41 :  -0.0000 0.0000 0.3750  plane waves:     914
 k-point    42 :   0.1250 0.0000 0.3750  plane waves:     926
 k-point    43 :  -0.0000 0.1250 0.3750  plane waves:     926
 k-point    44 :   0.2500 0.0000 0.3750  plane waves:     932
 k-point    45 :  -0.0000 0.2500 0.3750  plane waves:     932
 k-point    46 :   0.3750-0.0000 0.3750  plane waves:     934
 k-point    47 :  -0.0000 0.3750 0.3750  plane waves:     934
 k-point    48 :   0.5000-0.0000 0.3750  plane waves:     928
 k-point    49 :   0.1250 0.1250 0.3750  plane waves:     926
 k-point    50 :   0.2500 0.1250 0.3750  plane waves:     929
 k-point    51 :  -0.1250 0.3750 0.3750  plane waves:     929
 k-point    52 :   0.3750 0.1250 0.3750  plane waves:     928
 k-point    53 :  -0.1250 0.5000 0.3750  plane waves:     928
 k-point    54 :   0.2500 0.2500 0.3750  plane waves:     920
 k-point    55 :   0.3750 0.2500 0.3750  plane waves:     931
 k-point    56 :  -0.0000 0.0000 0.5000  plane waves:     890
 k-point    57 :   0.1250 0.0000 0.5000  plane waves:     922
 k-point    58 :   0.2500-0.0000 0.5000  plane waves:     926
 k-point    59 :   0.3750-0.0000 0.5000  plane waves:     920
 k-point    60 :   0.5000-0.0000 0.5000  plane waves:     952
 k-point    61 :   0.1250 0.1250 0.5000  plane waves:     920
 k-point    62 :   0.2500 0.1250 0.5000  plane waves:     926
 k-point    63 :   0.3750 0.1250 0.5000  plane waves:     930
 k-point    64 :   0.2500 0.2500 0.5000  plane waves:     936
 k-point    65 :   0.3750 0.2500 0.5000  plane waves:     936

 maximum and minimum number of plane-waves per node :       952      890

 maximum number of plane-waves:       952
 maximum index in each direction: 
   IXMAX=    6   IYMAX=    6   IZMAX=    6
   IXMIN=   -6   IYMIN=   -6   IZMIN=   -7


 serial   3D FFT for wavefunctions
 parallel 3D FFT for charge:
    minimum data exchange during FFTs selected (reduces bandwidth)


 total amount of memory used by VASP MPI-rank0    38028. kBytes
=======================================================================

   base      :      30000. kBytes
   nonl-proj :       6535. kBytes
   fftplans  :         86. kBytes
   grid      :        335. kBytes
   one-center:         24. kBytes
   wavefun   :       1048. kBytes
 
     INWAV:  cpu time      0.1447: real time      0.1451
 Broyden mixing: mesh for mixing (old mesh)
   NGX = 13   NGY = 13   NGZ = 13
  (NGX  = 36   NGY  = 36   NGZ  = 40)
  gives a total of   2197 points

 charge density for first step will be calculated from the start-wavefunctions


--------------------------------------------------------------------------------------------------------


 Maximum index for augmentation-charges          231 (set IRDMAX)


--------------------------------------------------------------------------------------------------------


 initial charge from wavefunction
 First call to EWALD:  gamma=   0.396
 Maximum number of real-space cells 3x 3x 2
 Maximum number of reciprocal cells 3x 3x 3

    FEWALD:  cpu time      0.0013: real time      0.0014


--------------------------------------- Ionic step        1  -------------------------------------------




--------------------------------------- Iteration      1(   1)  ---------------------------------------


    POTLOK:  cpu time      0.0031: real time      0.0048
    SETDIJ:  cpu time      0.0021: real time      0.0022
     EDDAV:  cpu time      0.7705: real time      0.7720
       DOS:  cpu time      0.0018: real time      0.0020
    CHARGE:  cpu time      0.0056: real time      0.0056
    MIXING:  cpu time      0.0008: real time      0.0010
    --------------------------------------------
      LOOP:  cpu time      0.7840: real time      0.7877

 eigenvalue-minimisations  :  4656
 total energy-change (2. order) :-0.1049220E+02  (-0.8319094E-06)
 number of electron      18.0000035 magnetization 
 augmentation part       -3.4130426 magnetization 

 Broyden mixing:
  rms(total) = 0.17360E-03    rms(broyden)= 0.16914E-03
  rms(prec ) = 0.37190E-03
  weight for this iteration     100.00

 Free energy of the ion-electron system (eV)
  ---------------------------------------------------
  alpha Z        PSCENC =        35.05468027
  Ewald energy   TEWEN  =      -674.31800800
  -Hartree energ DENC   =      -104.94289606
  -exchange      EXHF   =         0.00000000
  -V(xc)+E(xc)   XCENC  =        -2.13997446
  PAW double counting   =       988.06898645     -946.90450829
  entropy T*S    EENTRO =        -0.00000000
  eigenvalues    EBANDS =       -76.68338920
  atomic energy  EATOM  =       771.37291404
  Solvation  Ediel_sol  =         0.00000000
  ---------------------------------------------------
  free energy    TOTEN  =       -10.49219524 eV

  energy without entropy =      -10.49219524  energy(sigma->0) =      -10.49219524


--------------------------------------------------------------------------------------------------------




--------------------------------------- Iteration      1(   2)  ---------------------------------------


    POTLOK:  cpu time      0.0022: real time      0.0040
    SETDIJ:  cpu time      0.0016: real time      0.0017
     EDDAV:  cpu time      0.4158: real time      0.4159
       DOS:  cpu time      0.0004: real time      0.0004
    --------------------------------------------
      LOOP:  cpu time      0.4200: real time      0.4219

 eigenvalue-minimisations  :  3168
 total energy-change (2. order) : 0.8961604E-07  (-0.3388085E-07)
 number of electron      18.0000035 magnetization 
 augmentation part       -3.4130426 magnetization 

 Free energy of the ion-electron system (eV)
  ---------------------------------------------------
  alpha Z        PSCENC =        35.05468027
  Ewald energy   TEWEN  =      -674.31800800
  -Hartree energ DENC   =      -104.94046869
  -exchange      EXHF   =         0.00000000
  -V(xc)+E(xc)   XCENC  =        -2.14003737
  PAW double counting   =       988.08256773     -946.91805849
  entropy T*S    EENTRO =        -0.00000000
  eigenvalues    EBANDS =       -76.68578465
  atomic energy  EATOM  =       771.37291404
  Solvation  Ediel_sol  =         0.00000000
  ---------------------------------------------------
  free energy    TOTEN  =       -10.49219515 eV

  energy without entropy =      -10.49219515  energy(sigma->0) =      -10.49219515


--------------------------------------------------------------------------------------------------------




 average (electrostatic) potential at core
  the test charge radii are     1.0808
  (the norm of the test charge is              1.0000)
       1 -56.8554       2 -56.8554       3 -56.8554
 
 
 
 E-fermi :   2.1412     XC(G=0):  -8.4206     alpha+bet : -7.1948

 val. band max:        1.8197063868   @ k =   0.5000  -0.0000   0.5000
 cond. band min:       2.9332218811   @ k =   0.3750   0.2500   0.5000
 fundamental gap:      1.1135154943
 Fermi energy:         2.1411592856

 k-point     1 :       0.0000    0.0000    0.0000
  band No.  band energies     occupation 
      1     -13.5415      2.00000
      2      -9.7397      2.00000
      3      -9.7397      2.00000
      4      -1.9027      2.00000
      5      -1.9027      2.00000
      6      -1.5994      2.00000
      7      -0.0162      2.00000
      8      -0.0162      2.00000
      9       1.5143      2.00000
     10       3.7255      0.00000
     11       3.7255      0.00000
     12       4.0961      0.00000
     13       7.6995      0.00000
     14       8.4724      0.00000
     15       8.4724      0.00000
     16      10.2578      0.00000
     17      10.5584      0.00000
     18      10.6798      0.00000
     19      10.6798      0.00000
     20      13.1201      0.00000
     21      13.1201      0.00000
     22      15.4570      0.00000
     23      15.4571      0.00000
     24      19.9816      0.00000
     25      19.9816      0.00000
     26      20.2612      0.00000
     27      20.4788      0.00000
     28      21.2607      0.00000
     29      21.8928      0.00000
     30      21.8929      0.00000
     31      22.7391      0.00000
     32      22.7391      0.00000
     33      24.0953      0.00000
     34      24.0953      0.00000
     35      24.6259      0.00000
     36      24.7414      0.00000
     37      25.0837      0.00000
     38      25.0837      0.00000
     39      25.4382      0.00000
     40      27.0123      0.00000
     41      27.0123      0.00000
     42      27.1586      0.00000
     43      28.0156      0.00000
     44      28.0157      0.00000
     45      28.5325      0.00000
     46      28.5325      0.00000
     47      29.3057      0.00000
     48      29.3058      0.00000

 k-point     2 :       0.1250   -0.0000    0.0000
  band No.  band energies     occupation 
      1     -13.4950      2.00000
      2      -9.7846      2.00000
      3      -9.7375      2.00000
      4      -2.2198      2.00000
      5      -2.0464      2.00000
      6      -1.4978      2.00000
      7      -0.0222      2.00000
      8       0.1755      2.00000
      9       1.4137      2.00000
     10       3.6719      0.00000
     11       3.7298      0.00000
     12       4.2382      0.00000
     13       7.8068      0.00000
     14       8.4079      0.00000
     15       8.8165      0.00000
     16      10.2177      0.00000
     17      10.5656      0.00000
     18      10.8055      0.00000
     19      11.1928      0.00000
     20      13.7383      0.00000
     21      13.7826      0.00000
     22      15.4408      0.00000
     23      15.5441      0.00000
     24      18.3008      0.00000
     25      18.8305      0.00000
     26      19.4654      0.00000
     27      19.7990      0.00000
     28      21.1472      0.00000
     29      21.4935      0.00000
     30      22.2000      0.00000
     31      22.7207      0.00000
     32      23.3428      0.00000
     33      23.8554      0.00000
     34      24.1386      0.00000
     35      24.2053      0.00000
     36      24.3778      0.00000
     37      24.7400      0.00000
     38      25.2501      0.00000
     39      25.9863      0.00000
     40      26.8305      0.00000
     41      26.9052      0.00000
     42      27.3195      0.00000
     43      28.0342      0.00000
     44      28.0918      0.00000
     45      28.5749      0.00000
     46      29.1225      0.00000
     47      29.4774      0.00000
     48      29.8987      0.00000

 k-point     3 :       0.2500   -0.0000    0.0000
  band No.  band energies     occupation 
      1     -13.3757      2.00000
      2      -9.9063      2.00000
      3      -9.7319      2.00000
      4      -2.6285      2.00000
      5      -2.2955      2.00000
      6      -1.4554      2.00000
      7      -0.0881      2.00000
      8       0.2474      2.00000
      9       1.1743      2.00000
     10       3.7595      0.00000
     11       3.8574      0.00000
     12       4.6332      0.00000
     13       8.0440      0.00000
     14       8.0860      0.00000
     15       9.6902      0.00000
     16      10.5902      0.00000
     17      10.8147      0.00000
     18      11.6837      0.00000
     19      12.3305      0.00000
     20      14.4412      0.00000
     21      14.8369      0.00000
     22      15.1634      0.00000
     23      15.7018      0.00000
     24      16.8080      0.00000
     25      17.1227      0.00000
     26      18.3288      0.00000
     27      18.9870      0.00000
     28      19.5727      0.00000
     29      20.6712      0.00000
     30      21.7023      0.00000
     31      22.3343      0.00000
     32      22.7565      0.00000
     33      22.9578      0.00000
     34      23.3499      0.00000
     35      23.7783      0.00000
     36      24.0032      0.00000
     37      25.3329      0.00000
     38      25.3835      0.00000
     39      25.9274      0.00000
     40      26.7048      0.00000
     41      27.5182      0.00000
     42      27.5804      0.00000
     43      28.0514      0.00000
     44      28.6006      0.00000
     45      29.1971      0.00000
     46      29.3515      0.00000
     47      29.9611      0.00000
     48      30.4080      0.00000

 k-point     4 :       0.3750   -0.0000    0.0000
  band No.  band energies     occupation 
      1     -13.2438      2.00000
      2     -10.0490      2.00000
      3      -9.7259      2.00000
      4      -2.8529      2.00000
      5      -2.4904      2.00000
      6      -1.3848      2.00000
      7      -0.4480      2.00000
      8       0.1552      2.00000
      9       1.0141      2.00000
     10       3.7990      0.00000
     11       4.1274      0.00000
     12       5.2697      0.00000
     13       7.6370      0.00000
     14       8.7297      0.00000
     15      10.6179      0.00000
     16      11.4014      0.00000
     17      11.5302      0.00000
     18      12.5953      0.00000
     19      13.0168      0.00000
     20      13.6753      0.00000
     21      14.2876      0.00000
     22      15.1227      0.00000
     23      15.6101      0.00000
     24      16.3829      0.00000
     25      17.6774      0.00000
     26      17.9521      0.00000
     27      18.3430      0.00000
     28      18.8757      0.00000
     29      19.1581      0.00000
     30      20.8894      0.00000
     31      21.4345      0.00000
     32      22.1445      0.00000
     33      22.5215      0.00000
     34      23.0492      0.00000
     35      23.5207      0.00000
     36      23.8835      0.00000
     37      24.2746      0.00000
     38      24.9843      0.00000
     39      25.7293      0.00000
     40      26.1548      0.00000
     41      26.7366      0.00000
     42      26.9423      0.00000
     43      27.6604      0.00000
     44      28.8662      0.00000
     45      29.0344      0.00000
     46      29.9422      0.00000
     47      30.4083      0.00000
     48      30.9579      0.00000

 k-point     5 :       0.5000   -0.0000    0.0000
[...]
      9       1.5141      2.00000
     10       3.4212      0.00000
     11       4.2529      0.00000
     12       4.6628      0.00000
     13       8.2093      0.00000
     14       9.3849      0.00000
     15      10.0731      0.00000
     16      10.5072      0.00000
     17      11.8663      0.00000
     18      12.7428      0.00000
     19      13.0699      0.00000
     20      13.8479      0.00000
     21      14.1806      0.00000
     22      14.7160      0.00000
     23      15.6020      0.00000
     24      16.1507      0.00000
     25      16.5337      0.00000
     26      16.7514      0.00000
     27      18.6248      0.00000
     28      18.7674      0.00000
     29      19.8385      0.00000
     30      20.0275      0.00000
     31      21.4508      0.00000
     32      22.1571      0.00000
     33      22.9344      0.00000
     34      23.1625      0.00000
     35      23.5777      0.00000
     36      23.7780      0.00000
     37      25.0791      0.00000
     38      25.3486      0.00000
     39      25.7157      0.00000
     40      25.9696      0.00000
     41      26.5918      0.00000
     42      27.4634      0.00000
     43      28.2516      0.00000
     44      28.9726      0.00000
     45      29.4958      0.00000
     46      29.9513      0.00000
     47      30.3797      0.00000
     48      30.7732      0.00000

 k-point    60 :       0.5000   -0.0000    0.5000
  band No.  band energies     occupation 
      1     -12.2530      2.00000
      2     -12.1392      2.00000
      3      -8.5265      2.00000
      4      -3.6097      2.00000
      5      -2.3086      2.00000
      6      -2.1293      2.00000
      7       0.2505      2.00000
      8       0.7029      2.00000
      9       1.8197      2.00000
     10       3.3476      0.00000
     11       4.4435      0.00000
     12       4.7262      0.00000
     13       8.1494      0.00000
     14       9.7316      0.00000
     15      10.5444      0.00000
     16      10.8544      0.00000
     17      12.4330      0.00000
     18      12.7611      0.00000
     19      12.9354      0.00000
     20      13.3690      0.00000
     21      13.5541      0.00000
     22      14.2959      0.00000
     23      15.2480      0.00000
     24      16.0040      0.00000
     25      16.6932      0.00000
     26      17.0846      0.00000
     27      18.8961      0.00000
     28      19.2401      0.00000
     29      19.7483      0.00000
     30      20.6421      0.00000
     31      21.0168      0.00000
     32      21.0836      0.00000
     33      22.1724      0.00000
     34      23.2178      0.00000
     35      23.6271      0.00000
     36      24.4256      0.00000
     37      24.5427      0.00000
     38      25.0355      0.00000
     39      25.2884      0.00000
     40      25.9012      0.00000
     41      26.8343      0.00000
     42      27.9608      0.00000
     43      28.2613      0.00000
     44      28.7320      0.00000
     45      28.7330      0.00000
     46      29.4059      0.00000
     47      29.9098      0.00000
     48      30.4777      0.00000

 k-point    61 :       0.1250    0.1250    0.5000
  band No.  band energies     occupation 
      1     -12.3802      2.00000
      2     -12.3473      2.00000
      3      -8.0588      2.00000
      4      -3.0965      2.00000
      5      -1.8373      2.00000
      6      -1.7946      2.00000
      7       0.5853      2.00000
      8       0.6937      2.00000
      9       0.8468      2.00000
     10       3.2736      0.00000
     11       3.7412      0.00000
     12       4.1005      0.00000
     13       8.4726      0.00000
     14       8.6147      0.00000
     15       9.9013      0.00000
     16      10.0029      0.00000
     17      10.7932      0.00000
     18      12.2927      0.00000
     19      12.5582      0.00000
     20      13.4764      0.00000
     21      14.9565      0.00000
     22      15.3906      0.00000
     23      16.3565      0.00000
     24      16.4359      0.00000
     25      17.2341      0.00000
     26      17.7865      0.00000
     27      18.6013      0.00000
     28      18.7207      0.00000
     29      19.7662      0.00000
     30      20.7805      0.00000
     31      20.8756      0.00000
     32      21.7214      0.00000
     33      22.5344      0.00000
     34      22.9702      0.00000
     35      24.3902      0.00000
     36      24.6483      0.00000
     37      25.9710      0.00000
     38      26.3133      0.00000
     39      27.4657      0.00000
     40      27.5121      0.00000
     41      27.8855      0.00000
     42      27.8895      0.00000
     43      28.5237      0.00000
     44      28.9559      0.00000
     45      29.3471      0.00000
     46      30.1416      0.00000
     47      30.4025      0.00000
     48      30.5396      0.00000

 k-point    62 :       0.2500    0.1250    0.5000
  band No.  band energies     occupation 
      1     -12.3005      2.00000
      2     -12.2371      2.00000
      3      -8.3275      2.00000
      4      -3.3515      2.00000
      5      -2.2042      2.00000
      6      -2.0864      2.00000
      7       0.6234      2.00000
      8       0.8107      2.00000
      9       1.1767      2.00000
     10       3.3426      0.00000
     11       4.1309      0.00000
     12       4.5732      0.00000
     13       8.2286      0.00000
     14       9.0791      0.00000
     15       9.8790      0.00000
     16      10.4841      0.00000
     17      11.6216      0.00000
     18      12.5797      0.00000
     19      12.8067      0.00000
     20      13.8902      0.00000
     21      14.7586      0.00000
     22      15.2014      0.00000
     23      15.3794      0.00000
     24      16.2278      0.00000
     25      16.8889      0.00000
     26      17.6918      0.00000
     27      17.9957      0.00000
     28      19.0465      0.00000
     29      19.5805      0.00000
     30      20.0268      0.00000
     31      20.9422      0.00000
     32      21.4328      0.00000
     33      22.4481      0.00000
     34      23.2094      0.00000
     35      23.8888      0.00000
     36      24.3344      0.00000
     37      24.9200      0.00000
     38      25.4491      0.00000
     39      26.2557      0.00000
     40      26.7439      0.00000
     41      27.4955      0.00000
     42      27.6685      0.00000
     43      28.3102      0.00000
     44      29.1885      0.00000
     45      29.4395      0.00000
     46      29.8842      0.00000
     47      30.1117      0.00000
     48      31.3684      0.00000

 k-point    63 :       0.3750    0.1250    0.5000
  band No.  band energies     occupation 
      1     -12.2417      2.00000
      2     -12.1523      2.00000
      3      -8.5176      2.00000
      4      -3.5508      2.00000
      5      -2.4072      2.00000
      6      -2.2789      2.00000
      7       0.6037      2.00000
      8       0.7973      2.00000
      9       1.7077      2.00000
     10       3.2621      0.00000
     11       4.3991      0.00000
     12       4.6872      0.00000
     13       8.2010      0.00000
     14       9.5584      0.00000
     15      10.3119      0.00000
     16      10.8770      0.00000
     17      12.2303      0.00000
     18      12.5597      0.00000
     19      13.2099      0.00000
     20      13.3242      0.00000
     21      13.9672      0.00000
     22      14.5217      0.00000
     23      15.4193      0.00000
     24      16.4925      0.00000
     25      16.8381      0.00000
     26      17.3577      0.00000
     27      18.6163      0.00000
     28      18.8591      0.00000
     29      19.3224      0.00000
     30      20.4352      0.00000
     31      21.0153      0.00000
     32      21.2847      0.00000
     33      22.1064      0.00000
     34      22.3905      0.00000
     35      23.1444      0.00000
     36      23.9278      0.00000
     37      24.6881      0.00000
     38      25.2838      0.00000
     39      26.1200      0.00000
     40      26.4896      0.00000
     41      26.8476      0.00000
     42      27.3721      0.00000
     43      27.8054      0.00000
     44      28.8096      0.00000
     45      29.5044      0.00000
     46      29.6726      0.00000
     47      29.8406      0.00000
     48      30.4136      0.00000

 k-point    64 :       0.2500    0.2500    0.5000
  band No.  band energies     occupation 
      1     -12.2256      2.00000
      2     -12.1703      2.00000
      3      -8.5086      2.00000
      4      -3.4804      2.00000
      5      -2.5159      2.00000
      6      -2.4085      2.00000
      7       0.8785      2.00000
      8       1.2024      2.00000
      9       1.3519      2.00000
     10       3.1551      0.00000
     11       4.3543      0.00000
     12       4.6615      0.00000
     13       8.2657      0.00000
     14       9.4322      0.00000
     15       9.9936      0.00000
     16      10.9384      0.00000
     17      12.3931      0.00000
     18      12.5028      0.00000
     19      12.6950      0.00000
     20      13.3371      0.00000
     21      14.7540      0.00000
     22      15.0628      0.00000
     23      15.4433      0.00000
     24      16.2873      0.00000
     25      17.0806      0.00000
     26      17.8904      0.00000
     27      18.3330      0.00000
     28      18.8697      0.00000
     29      19.7550      0.00000
     30      19.8874      0.00000
     31      20.2410      0.00000
     32      20.2493      0.00000
     33      22.0728      0.00000
     34      22.8766      0.00000
     35      23.1411      0.00000
     36      24.2096      0.00000
     37      24.3540      0.00000
     38      25.0357      0.00000
     39      25.9124      0.00000
     40      26.2310      0.00000
     41      26.8690      0.00000
     42      27.4082      0.00000
     43      28.6763      0.00000
     44      29.0606      0.00000
     45      29.3999      0.00000
     46      29.7375      0.00000
     47      31.1704      0.00000
     48      31.7150      0.00000

 k-point    65 :       0.3750    0.2500    0.5000
  band No.  band energies     occupation 
      1     -12.1881      2.00000
      2     -12.1471      2.00000
      3      -8.5821      2.00000
      4      -3.5277      2.00000
      5      -2.6232      2.00000
      6      -2.5675      2.00000
      7       0.9262      2.00000
      8       1.2858      2.00000
      9       1.7271      2.00000
     10       2.9332      0.00000
     11       4.4738      0.00000
     12       4.5974      0.00000
     13       8.3928      0.00000
     14       9.6245      0.00000
     15      10.3615      0.00000
     16      10.5977      0.00000
     17      12.0179      0.00000
     18      12.2179      0.00000
     19      13.3496      0.00000
     20      14.2368      0.00000
     21      14.3689      0.00000
     22      14.7567      0.00000
     23      15.6732      0.00000
     24      16.0904      0.00000
     25      17.1230      0.00000
     26      17.5019      0.00000
     27      18.7248      0.00000
     28      18.8959      0.00000
     29      19.3518      0.00000
     30      20.2028      0.00000
     31      20.2994      0.00000
     32      20.8647      0.00000
     33      21.5820      0.00000
     34      21.8824      0.00000
     35      22.5866      0.00000
     36      23.5104      0.00000
     37      23.8126      0.00000
     38      24.6299      0.00000
     39      26.6965      0.00000
     40      26.7321      0.00000
     41      27.3259      0.00000
     42      27.7397      0.00000
     43      28.5042      0.00000
     44      28.7971      0.00000
     45      28.8571      0.00000
     46      29.0335      0.00000
     47      31.0239      0.00000
     48      31.4253      0.00000


--------------------------------------------------------------------------------------------------------


 soft charge-density along one line, spin component           1
         0         1         2         3         4         5         6         7         8         9
 total charge-density along one line
 
 pseudopotential strength for first ion, spin component:           1
 29.259  33.284   0.000  -0.000  -0.081   0.000  -0.000  -0.117
 33.284  37.869   0.000  -0.000  -0.093   0.000  -0.000  -0.133
  0.000   0.000   6.880   0.014   0.000   9.694   0.020   0.000
 -0.000  -0.000   0.014   6.903   0.000   0.020   9.725   0.000
 -0.081  -0.093   0.000   0.000   6.901   0.000   0.000   9.723
  0.000   0.000   9.694   0.020   0.000  13.692   0.028   0.000
 -0.000  -0.000   0.020   9.725   0.000   0.028  13.735   0.000
 -0.117  -0.133   0.000   0.000   9.723   0.000   0.000  13.732
  0.000   0.000  -0.021  -0.000   0.000  -0.029  -0.001   0.000
  0.024   0.027   0.000  -0.000  -0.000   0.000  -0.000  -0.001
  0.011   0.013  -0.000  -0.000   0.011  -0.000  -0.000   0.016
  0.000   0.000  -0.000  -0.021   0.000  -0.001  -0.029   0.000
  0.017   0.020  -0.000  -0.000  -0.020  -0.000  -0.000  -0.028
 total augmentation occupancy for first ion, spin component:           1
  6.476  -4.092   0.000  -0.000  -1.888   0.000   0.000   0.498  -0.000   0.191   0.108   0.000   0.097
 -4.092   3.740   0.000   0.000   1.855   0.000  -0.000  -0.457   0.000  -0.161  -0.092  -0.000  -0.080
 -0.000   0.000   2.174   0.098   0.000  -0.241  -0.165  -0.000  -0.095  -0.000   0.000  -0.065  -0.000
 -0.000   0.000   0.098   2.303   0.000  -0.165  -0.489  -0.000  -0.061  -0.000  -0.000  -0.189  -0.000
 -1.888   1.855   0.000   0.000   2.212  -0.000  -0.000  -0.437   0.000  -0.080  -0.023  -0.000  -0.088
  0.000   0.000  -0.241  -0.165  -0.000   0.062   0.056   0.000   0.019   0.000  -0.000   0.020   0.000
  0.000  -0.000  -0.165  -0.489  -0.000   0.056   0.144   0.000   0.022   0.000   0.000   0.051   0.000
  0.498  -0.457  -0.000  -0.000  -0.437   0.000   0.000   0.119  -0.000   0.017   0.003   0.000   0.020
 -0.000   0.000  -0.095  -0.061   0.000   0.019   0.022  -0.000   0.010  -0.000  -0.000   0.012   0.000
  0.191  -0.161  -0.000  -0.000  -0.080   0.000   0.000   0.017  -0.000   0.016   0.008   0.000  -0.002
  0.108  -0.092   0.000  -0.000  -0.023  -0.000   0.000   0.003  -0.000   0.008   0.013   0.000  -0.003
  0.000  -0.000  -0.065  -0.189  -0.000   0.020   0.051   0.000   0.012   0.000   0.000   0.031   0.000
  0.097  -0.080  -0.000  -0.000  -0.088   0.000   0.000   0.020   0.000  -0.002  -0.003   0.000   0.011


------------------------ aborting loop because EDIFF is reached ----------------------------------------


    CHARGE:  cpu time      0.0057: real time      0.0057
    FORLOC:  cpu time      0.0001: real time      0.0001
    FORNL :  cpu time      0.0167: real time      0.0168
    STRESS:  cpu time      0.1468: real time      0.1469
    FORCOR:  cpu time      0.0019: real time      0.0020
    FORHAR:  cpu time      0.0005: real time      0.0006
    MIXING:  cpu time      0.0005: real time      0.0006
    OFIELD:  cpu time      0.0000: real time      0.0001

  FORCE on cell =-STRESS in cart. coord.  units (eV):
  Direction    XX          YY          ZZ          XY          YZ          ZX
  --------------------------------------------------------------------------------------
  Alpha Z    35.05468    35.05468    35.05468
  Ewald    -259.20675  -259.20675  -155.90515    -0.00000     0.00000    -0.00000
  Hartree    21.81435    21.81435    61.30825    -0.00000     0.00001    -0.00001
  E(xc)     -66.12644   -66.12648   -65.55355    -0.00004    -0.00000    -0.00000
  Local     -57.37705   -57.37839  -186.13989    -0.00114    -0.00024    -0.00009
  n-local   125.79670   126.12488   124.83059     0.07727    -0.28797    -0.46869
  augment   -13.29804   -13.29746   -12.00368     0.00050    -0.00013     0.00028
  Kinetic   213.06996   213.19410   198.35748    -3.54149    -0.09867     0.84489
  Fock        0.00000     0.00000     0.00000     0.00000     0.00000     0.00000
  -------------------------------------------------------------------------------------
  Total      -0.04682    -0.04682    -0.05126    -0.00000    -0.00000     0.00000
  in kB      -0.83784    -0.83784    -0.91731    -0.00000    -0.00000     0.00000
  external pressure =       -0.86 kB  Pullay stress =        0.00 kB


 VOLUME and BASIS-vectors are now :
 -----------------------------------------------------------------------------
  energy-cutoff  :      275.02
  volume of cell :       89.53
      direct lattice vectors                 reciprocal lattice vectors
     4.524640000  0.000000000  0.000000000     0.221012058  0.127601371  0.000000000
    -2.262320000  3.918453183  0.000000000     0.000000000  0.255202743  0.000000000
     0.000000000  0.000000000  5.049780000    -0.000000000 -0.000000000  0.198028429

  length of vectors
     4.524640000  4.524640000  5.049780000     0.255202743  0.255202743  0.198028429


 FORCES acting on ions
    electron-ion (+dipol)            ewald-force                    non-local-force                 convergence-correction
 -----------------------------------------------------------------------------------------------
   -.485E+02 0.932E-06 0.335E-04   0.529E+02 -.255E-11 -.597E-11   -.439E+01 0.131E-16 -.309E-15   -.144E-02 -.340E-08 0.498E-09
   0.242E+02 -.420E+02 -.359E-04   -.264E+02 0.458E+02 0.598E-11   0.219E+01 -.380E+01 -.307E-15   0.719E-03 -.124E-02 -.456E-09
   0.242E+02 0.420E+02 0.339E-05   -.264E+02 -.458E+02 -.710E-14   0.219E+01 0.380E+01 0.621E-15   0.719E-03 0.124E-02 -.418E-10
 -----------------------------------------------------------------------------------------------
   -.168E-04 -.264E-04 0.105E-05   0.000E+00 0.000E+00 0.323E-17   -.888E-15 0.444E-15 0.552E-17   0.932E-09 0.178E-08 0.633E-12
 
 
 POSITION                                       TOTAL-FORCE (eV/Angst)
 -----------------------------------------------------------------------------------
      0.99103      0.00000      1.68326        -0.004911     -0.000000     -0.000000
     -0.49552      0.85826      3.36652         0.002455     -0.004253     -0.000000
      1.76680      3.06019      0.00000         0.002455      0.004253      0.000000
 -----------------------------------------------------------------------------------
    total drift:                               -0.000017     -0.000026      0.000001


--------------------------------------------------------------------------------------------------------



  FREE ENERGIE OF THE ION-ELECTRON SYSTEM (eV)
  ---------------------------------------------------
  free  energy   TOTEN  =       -10.49219515 eV

  energy  without entropy=      -10.49219515  energy(sigma->0) =      -10.49219515
 


--------------------------------------------------------------------------------------------------------


    POTLOK:  cpu time      0.0038: real time      0.0038


--------------------------------------------------------------------------------------------------------


 writing wavefunctions
     LOOP+:  cpu time     19.5312: real time     19.5528
    4ORBIT:  cpu time      0.0000: real time      0.0000

 total amount of memory used by VASP MPI-rank0    38028. kBytes
=======================================================================

   base      :      30000. kBytes
   nonl-proj :       6535. kBytes
   fftplans  :         86. kBytes
   grid      :        335. kBytes
   one-center:         24. kBytes
   wavefun   :       1048. kBytes
 
  
  
 General timing and accounting informations for this job:
 ========================================================
  
                  Total CPU time used (sec):       20.204
                            User time (sec):       19.784
                          System time (sec):        0.420
                         Elapsed time (sec):       20.564
  
                   Maximum memory used (kb):      219916.
                   Average memory used (kb):          N/A
  
                          Minor page faults:        21280
                          Major page faults:            0
                 Voluntary context switches:        24106
