Se                                      
           1
     4.524640    0.000000    0.000000
    -2.262320    3.918453    0.000000
     0.000000    0.000000    5.049780
   Se
     3
Direct configuration=     1
   0.21903000  0.00000000  0.33333333
   0.00000000  0.21903000  0.66666667
   0.78097000  0.78097000  0.00000000
