Ba                                      
   1.00000000000000     
     5.027920    0.000000    0.000000
     0.000000    5.027920    0.000000
     0.000000    0.000000    5.027920
   Ba
     2
Direct
  0.000000  0.000000  0.000000
  0.500000  0.500000  0.500000
 
   40   40   40
  36.967      51.898      89.925      134.34      167.04      176.73      162.56      131.94      95.415      62.117    
  37.659      22.793      14.478      10.011      7.6276      6.3343      5.6286      5.2568      5.0690      4.9774    
  4.9485      4.9774      5.0690      5.2568      5.6286      6.3343      7.6276      10.011      14.478      22.793    
  37.659      62.117      95.415      131.94      162.56      176.73      167.04      134.34      89.925      51.898    
  51.898      65.667      100.58      140.89      169.61      176.30      160.46      129.34      93.096      60.437    
  36.667      22.266      14.208      9.8720      7.5535      6.2931      5.6047      5.2418      5.0587      4.9695    
  4.9414      4.9695      5.0587      5.2418      5.6047      6.2931      7.5535      9.8720      14.208      22.266    
  36.667      60.437      93.096      129.34      160.46      176.30      169.61      140.89      100.58      65.667    
  89.925      100.58      127.18      156.57      174.79      173.72      153.70      121.57      86.358      55.645    
  33.874      20.781      13.444      9.4767      7.3420      6.1751      5.5359      5.1988      5.0289      4.9467    
  4.9209      4.9467      5.0289      5.1988      5.5359      6.1751      7.3420      9.4767      13.444      20.781    
  33.874      55.645      86.358      121.57      153.70      173.72      174.79      156.57      127.18      100.58    
  134.34      140.89      156.57      171.77      176.64      166.07      141.44      108.90      75.901      48.471    
  29.773      18.598      12.313      8.8861      7.0230      5.9960      5.4311      5.1331      4.9834      4.9117    
  4.8895      4.9117      4.9834      5.1331      5.4311      5.9960      7.0230      8.8861      12.313      18.598    
  29.773      48.471      75.901      108.90      141.44      166.07      176.64      171.77      156.57      140.89    
  167.04      169.61      174.79      176.64      169.44      150.98      123.51      92.256      62.963      40.041    
  25.024      16.061      10.985      8.1830      6.6380      5.7777      5.3028      5.0523      4.9274      4.8685    
  4.8506      4.8685      4.9274      5.0523      5.3028      5.7777      6.6380      8.1830      10.985      16.061    
  25.024      40.041      62.963      92.256      123.51      150.98      169.44      176.64      174.79      169.61    
  176.73      176.30      173.72      166.07      150.98      128.46      101.18      73.387      49.240      31.596    
  20.280      13.508      9.6289      7.4516      6.2311      5.5446      5.1650      4.9655      4.8670      4.8217    
  4.8083      4.8217      4.8670      4.9655      5.1650      5.5446      6.2311      7.4516      9.6289      13.508    
  20.280      31.596      49.240      73.387      101.18      128.46      150.98      166.07      173.72      176.30    
  162.56      160.46      153.70      141.44      123.51      101.18      77.145      54.656      36.606      24.061    
  16.038      11.196      8.3766      6.7617      5.8408      5.3189      5.0312      4.8812      4.8083      4.7760    
  4.7667      4.7760      4.8083      4.8812      5.0312      5.3189      5.8408      6.7617      8.3766      11.196    
  16.038      24.061      36.606      54.656      77.145      101.18      123.51      141.44      153.70      160.46    
  131.94      129.34      121.57      108.90      92.256      73.387      54.656      38.488      26.323      17.953    
  12.569      9.2704      7.3085      6.1600      5.4953      5.1181      4.9121      4.8066      4.7566      4.7355    
  4.7297      4.7355      4.7566      4.8066      4.9121      5.1181      5.4953      6.1600      7.3085      9.2704    
  12.569      17.953      26.323      38.488      54.656      73.387      92.256      108.90      121.57      129.34    
  95.415      93.096      86.358      75.901      62.963      49.240      36.606      26.323      18.671      13.381    
  9.9313      7.7714      6.4553      5.6696      5.2112      4.9532      4.8154      4.7470      4.7160      4.7038    
  4.7007      4.7038      4.7160      4.7470      4.8154      4.9532      5.2112      5.6696      6.4553      7.7714    
  9.9313      13.381      18.671      26.323      36.606      49.240      62.963      75.901      86.358      93.096    
  62.117      60.437      55.645      48.471      40.041      31.596      24.061      17.953      13.381      10.177    
  8.0397      6.6674      5.8119      5.2946      4.9941      4.8290      4.7446      4.7053      4.6891      4.6834    
  4.6821      4.6834      4.6891      4.7053      4.7446      4.8290      4.9941      5.2946      5.8119      6.6674    
  8.0397      10.177      13.381      17.953      24.061      31.596      40.041      48.471      55.645      60.437    
  37.659      36.667      33.874      29.773      25.024      20.280      16.038      12.569      9.9313      8.0397    
  6.7448      5.8924      5.3526      5.0264      4.8413      4.7448      4.7000      4.6822      4.6768      4.6758    
  4.6758      4.6758      4.6768      4.6822      4.7000      4.7448      4.8413      5.0264      5.3526      5.8924    
  6.7448      8.0397      9.9313      12.569      16.038      20.280      25.024      29.773      33.874      36.667    
  22.793      22.266      20.781      18.598      16.061      13.508      11.196      9.2704      7.7714      6.6674    
  5.8924      5.3734      5.0440      4.8490      4.7445      4.6962      4.6791      4.6765      4.6788      4.6812    
  4.6821      4.6812      4.6788      4.6765      4.6791      4.6962      4.7445      4.8490      5.0440      5.3734    
  5.8924      6.6674      7.7714      9.2704      11.196      13.508      16.061      18.598      20.781      22.266    
  14.478      14.208      13.444      12.313      10.985      9.6289      8.3766      7.3085      6.4553      5.8119    
  5.3526      5.0440      4.8515      4.7436      4.6928      4.6765      4.6779      4.6857      4.6937      4.6989    
  4.7007      4.6989      4.6937      4.6857      4.6779      4.6765      4.6928      4.7436      4.8515      5.0440    
  5.3526      5.8119      6.4553      7.3085      8.3766      9.6289      10.985      12.313      13.444      14.208    
  10.011      9.8720      9.4767      8.8861      8.1830      7.4516      6.7617      6.1600      5.6696      5.2946    
  5.0264      4.8490      4.7436      4.6912      4.6743      4.6782      4.6916      4.7068      4.7193      4.7271    
  4.7297      4.7271      4.7193      4.7068      4.6916      4.6782      4.6743      4.6912      4.7436      4.8490    
  5.0264      5.2946      5.6696      6.1600      6.7617      7.4516      8.1830      8.8861      9.4767      9.8720    
  7.6276      7.5535      7.3420      7.0230      6.6380      6.2311      5.8408      5.4953      5.2112      4.9941    
  4.8413      4.7445      4.6928      4.6743      4.6780      4.6943      4.7155      4.7362      4.7527      4.7631    
  4.7667      4.7631      4.7527      4.7362      4.7155      4.6943      4.6780      4.6743      4.6928      4.7445    
  4.8413      4.9941      5.2112      5.4953      5.8408      6.2311      6.6380      7.0230      7.3420      7.5535    
  6.3343      6.2931      6.1751      5.9960      5.7777      5.5446      5.3189      5.1181      4.9532      4.8290    
  4.7448      4.6962      4.6765      4.6782      4.6943      4.7184      4.7452      4.7704      4.7907      4.8038    
  4.8083      4.8038      4.7907      4.7704      4.7452      4.7184      4.6943      4.6782      4.6765      4.6962    
  4.7448      4.8290      4.9532      5.1181      5.3189      5.5446      5.7777      5.9960      6.1751      6.2931    
  5.6286      5.6047      5.5359      5.4311      5.3028      5.1650      5.0312      4.9121      4.8154      4.7446    
  4.7000      4.6791      4.6779      4.6916      4.7155      4.7452      4.7766      4.8059      4.8297      4.8452    
  4.8506      4.8452      4.8297      4.8059      4.7766      4.7452      4.7155      4.6916      4.6779      4.6791    
  4.7000      4.7446      4.8154      4.9121      5.0312      5.1650      5.3028      5.4311      5.5359      5.6047    
  5.2568      5.2418      5.1988      5.1331      5.0523      4.9655      4.8812      4.8066      4.7470      4.7053    
  4.6822      4.6765      4.6857      4.7068      4.7362      4.7704      4.8059      4.8389      4.8657      4.8833    
  4.8895      4.8833      4.8657      4.8389      4.8059      4.7704      4.7362      4.7068      4.6857      4.6765    
  4.6822      4.7053      4.7470      4.8066      4.8812      4.9655      5.0523      5.1331      5.1988      5.2418    
  5.0690      5.0587      5.0289      4.9834      4.9274      4.8670      4.8083      4.7566      4.7160      4.6891    
  4.6768      4.6788      4.6937      4.7193      4.7527      4.7907      4.8297      4.8657      4.8951      4.9142    
  4.9209      4.9142      4.8951      4.8657      4.8297      4.7907      4.7527      4.7193      4.6937      4.6788    
  4.6768      4.6891      4.7160      4.7566      4.8083      4.8670      4.9274      4.9834      5.0289      5.0587    
  4.9774      4.9695      4.9467      4.9117      4.8685      4.8217      4.7760      4.7355      4.7038      4.6834    
  4.6758      4.6812      4.6989      4.7271      4.7631      4.8038      4.8452      4.8833      4.9142      4.9344    
  4.9414      4.9344      4.9142      4.8833      4.8452      4.8038      4.7631      4.7271      4.6989      4.6812    
  4.6758      4.6834      4.7038      4.7355      4.7760      4.8217      4.8685      4.9117      4.9467      4.9695    
  4.9485      4.9414      4.9209      4.8895      4.8506      4.8083      4.7667      4.7297      4.7007      4.6821    
  4.6758      4.6821      4.7007      4.7297      4.7667      4.8083      4.8506      4.8895      4.9209      4.9414    
  4.9485      4.9414      4.9209      4.8895      4.8506      4.8083      4.7667      4.7297      4.7007      4.6821    
  4.6758      4.6821      4.7007      4.7297      4.7667      4.8083      4.8506      4.8895      4.9209      4.9414    
  4.9774      4.9695      4.9467      4.9117      4.8685      4.8217      4.7760      4.7355      4.7038      4.6834    
  4.6758      4.6812      4.6989      4.7271      4.7631      4.8038      4.8452      4.8833      4.9142      4.9344    
  4.9414      4.9344      4.9142      4.8833      4.8452      4.8038      4.7631      4.7271      4.6989      4.6812    
  4.6758      4.6834      4.7038      4.7355      4.7760      4.8217      4.8685      4.9117      4.9467      4.9695    
  5.0690      5.0587      5.0289      4.9834      4.9274      4.8670      4.8083      4.7566      4.7160      4.6891    
  4.6768      4.6788      4.6937      4.7193      4.7527      4.7907      4.8297      4.8657      4.8951      4.9142    
  4.9209      4.9142      4.8951      4.8657      4.8297      4.7907      4.7527      4.7193      4.6937      4.6788    
  4.6768      4.6891      4.7160      4.7566      4.8083      4.8670      4.9274      4.9834      5.0289      5.0587    
  5.2568      5.2418      5.1988      5.1331      5.0523      4.9655      4.8812      4.8066      4.7470      4.7053    
  4.6822      4.6765      4.6857      4.7068      4.7362      4.7704      4.8059      4.8389      4.8657      4.8833    
  4.8895      4.8833      4.8657      4.8389      4.8059      4.7704      4.7362      4.7068      4.6857      4.6765    
  4.6822      4.7053      4.7470      4.8066      4.8812      4.9655      5.0523      5.1331      5.1988      5.2418    
  5.6286      5.6047      5.5359      5.4311      5.3028      5.1650      5.0312      4.9121      4.8154      4.7446    
  4.7000      4.6791      4.6779      4.6916      4.7155      4.7452      4.7766      4.8059      4.8297      4.8452    
  4.8506      4.8452      4.8297      4.8059      4.7766      4.7452      4.7155      4.6916      4.6779      4.6791    
  4.7000      4.7446      4.8154      4.9121      5.0312      5.1650      5.3028      5.4311      5.5359      5.6047    
  6.3343      6.2931      6.1751      5.9960      5.7777      5.5446      5.3189      5.1181      4.9532      4.8290    
  4.7448      4.6962      4.6765      4.6782      4.6943      4.7184      4.7452      4.7704      4.7907      4.8038    
  4.8083      4.8038      4.7907      4.7704      4.7452      4.7184      4.6943      4.6782      4.6765      4.6962    
  4.7448      4.8290      4.9532      5.1181      5.3189      5.5446      5.7777      5.9960      6.1751      6.2931    
  7.6276      7.5535      7.3420      7.0230      6.6380      6.2311      5.8408      5.4953      5.2112      4.9941    
  4.8413      4.7445      4.6928      4.6743      4.6780      4.6943      4.7155      4.7362      4.7527      4.7631    
  4.7667      4.7631      4.7527      4.7362      4.7155      4.6943      4.6780      4.6743      4.6928      4.7445    
  4.8413      4.9941      5.2112      5.4953      5.8408      6.2311      6.6380      7.0230      7.3420      7.5535    
  10.011      9.8720      9.4767      8.8861      8.1830      7.4516      6.7617      6.1600      5.6696      5.2946    
  5.0264      4.8490      4.7436      4.6912      4.6743      4.6782      4.6916      4.7068      4.7193      4.7271    
  4.7297      4.7271      4.7193      4.7068      4.6916      4.6782      4.6743      4.6912      4.7436      4.8490    
  5.0264      5.2946      5.6696      6.1600      6.7617      7.4516      8.1830      8.8861      9.4767      9.8720    
  14.478      14.208      13.444      12.313      10.985      9.6289      8.3766      7.3085      6.4553      5.8119    
  5.3526      5.0440      4.8515      4.7436      4.6928      4.6765      4.6779      4.6857      4.6937      4.6989    
  4.7007      4.6989      4.6937      4.6857      4.6779      4.6765      4.6928      4.7436      4.8515      5.0440    
  5.3526      5.8119      6.4553      7.3085      8.3766      9.6289      10.985      12.313      13.444      14.208    
  22.793      22.266      20.781      18.598      16.061      13.508      11.196      9.2704      7.7714      6.6674    
  5.8924      5.3734      5.0440      4.8490      4.7445      4.6962      4.6791      4.6765      4.6788      4.6812    
  4.6821      4.6812      4.6788      4.6765      4.6791      4.6962      4.7445      4.8490      5.0440      5.3734    
  5.8924      6.6674      7.7714      9.2704      11.196      13.508      16.061      18.598      20.781      22.266    
  37.659      36.667      33.874      29.773      25.024      20.280      16.038      12.569      9.9313      8.0397    
  6.7448      5.8924      5.3526      5.0264      4.8413      4.7448      4.7000      4.6822      4.6768      4.6758    
  4.6758      4.6758      4.6768      4.6822      4.7000      4.7448      4.8413      5.0264      5.3526      5.8924    
  6.7448      8.0397      9.9313      12.569      16.038      20.280      25.024      29.773      33.874      36.667    
  62.117      60.437      55.645      48.471      40.041      31.596      24.061      17.953      13.381      10.177    
  8.0397      6.6674      5.8119      5.2946      4.9941      4.8290      4.7446      4.7053      4.6891      4.6834    
  4.6821      4.6834      4.6891      4.7053      4.7446      4.8290      4.9941      5.2946      5.8119      6.6674    
  8.0397      10.177      13.381      17.953      24.061      31.596      40.041      48.471      55.645      60.437    
  95.415      93.096      86.358      75.901      62.963      49.240      36.606      26.323      18.671      13.381    
  9.9313      7.7714      6.4553      5.6696      5.2112      4.9532      4.8154      4.7470      4.7160      4.7038    
  4.7007      4.7038      4.7160      4.7470      4.8154      4.9532      5.2112      5.6696      6.4553      7.7714    
  9.9313      13.381      18.671      26.323      36.606      49.240      62.963      75.901      86.358      93.096    
  131.94      129.34      121.57      108.90      92.256      73.387      54.656      38.488      26.323      17.953    
  12.569      9.2704      7.3085      6.1600      5.4953      5.1181      4.9121      4.8066      4.7566      4.7355    
  4.7297      4.7355      4.7566      4.8066      4.9121      5.1181      5.4953      6.1600      7.3085      9.2704    
  12.569      17.953      26.323      38.488      54.656      73.387      92.256      108.90      121.57      129.34    
  162.56      160.46      153.70      141.44      123.51      101.18      77.145      54.656      36.606      24.061    
  16.038      11.196      8.3766      6.7617      5.8408      5.3189      5.0312      4.8812      4.8083      4.7760    
  4.7667      4.7760      4.8083      4.8812      5.0312      5.3189      5.8408      6.7617      8.3766      11.196    
  16.038      24.061      36.606      54.656      77.145      101.18      123.51      141.44      153.70      160.46    
  176.73      176.30      173.72      166.07      150.98      128.46      101.18      73.387      49.240      31.596    
  20.280      13.508      9.6289      7.4516      6.2311      5.5446      5.1650      4.9655      4.8670      4.8217    
  4.8083      4.8217      4.8670      4.9655      5.1650      5.5446      6.2311      7.4516      9.6289      13.508    
  20.280      31.596      49.240      73.387      101.18      128.46      150.98      166.07      173.72      176.30    
  167.04      169.61      174.79      176.64      169.44      150.98      123.51      92.256      62.963      40.041    
  25.024      16.061      10.985      8.1830      6.6380      5.7777      5.3028      5.0523      4.9274      4.8685    
  4.8506      4.8685      4.9274      5.0523      5.3028      5.7777      6.6380      8.1830      10.985      16.061    
  25.024      40.041      62.963      92.256      123.51      150.98      169.44      176.64      174.79      169.61    
  134.34      140.89      156.57      171.77      176.64      166.07      141.44      108.90      75.901      48.471    
  29.773      18.598      12.313      8.8861      7.0230      5.9960      5.4311      5.1331      4.9834      4.9117    
  4.8895      4.9117      4.9834      5.1331      5.4311      5.9960      7.0230      8.8861      12.313      18.598    
  29.773      48.471      75.901      108.90      141.44      166.07      176.64      171.77      156.57      140.89    
  89.925      100.58      127.18      156.57      174.79      173.72      153.70      121.57      86.358      55.645    
  33.874      20.781      13.444      9.4767      7.3420      6.1751      5.5359      5.1988      5.0289      4.9467    
  4.9209      4.9467      5.0289      5.1988      5.5359      6.1751      7.3420      9.4767      13.444      20.781    
  33.874      55.645      86.358      121.57      153.70      173.72      174.79      156.57      127.18      100.58    
  51.898      65.667      100.58      140.89      169.61      176.30      160.46      129.34      93.096      60.437    
  36.667      22.266      14.208      9.8720      7.5535      6.2931      5.6047      5.2418      5.0587      4.9695    
  4.9414      4.9695      5.0587      5.2418      5.6047      6.2931      7.5535      9.8720      14.208      22.266    
  36.667      60.437      93.096      129.34      160.46      176.30      169.61      140.89      100.58      65.667    
  51.898      65.667      100.58      140.89      169.61      176.30      160.46      129.34      93.096      60.437    
  36.667      22.266      14.208      9.8720      7.5535      6.2931      5.6047      5.2418      5.0587      4.9695    
  4.9414      4.9695      5.0587      5.2418      5.6047      6.2931      7.5535      9.8720      14.208      22.266    
  36.667      60.437      93.096      129.34      160.46      176.30      169.61      140.89      100.58      65.667    
  65.667      78.338      110.32      146.76      171.74      175.65      158.27      126.74      90.811      58.798    
  35.706      21.755      13.945      9.7363      7.4810      6.2527      5.5811      5.2271      5.0485      4.9617    
  4.9344      4.9617      5.0485      5.2271      5.5811      6.2527      7.4810      9.7363      13.945      21.755    
  35.706      58.798      90.811      126.74      158.27      175.65      171.74      146.76      110.32      78.338    
  100.58      110.32      134.45      160.62      175.78      172.48      151.32      118.99      84.183      54.127    
  32.999      20.315      13.203      9.3511      7.2742      6.1370      5.5136      5.1848      5.0192      4.9393    
  4.9142      4.9393      5.0192      5.1848      5.5136      6.1370      7.2742      9.3511      13.203      20.315    
  32.999      54.127      84.183      118.99      151.32      172.48      175.78      160.62      134.45      110.32    
  140.89      146.76      160.62      173.48      176.19      164.15      138.89      106.42      73.921      47.148    
  29.024      18.198      12.104      8.7755      6.9624      5.9615      5.4108      5.1202      4.9745      4.9049    
  4.8833      4.9049      4.9745      5.1202      5.4108      5.9615      6.9624      8.7755      12.104      18.198    
  29.024      47.148      73.921      106.42      138.89      164.15      176.19      173.48      160.62      146.76    
  169.61      171.74      175.78      176.19      167.74      148.55      120.93      89.989      61.265      38.971    
  24.421      15.736      10.813      8.0901      6.5861      5.7478      5.2850      5.0411      4.9196      4.8625    
  4.8452      4.8625      4.9196      5.0411      5.2850      5.7478      6.5861      8.0901      10.813      15.736    
  24.421      38.971      61.265      89.989      120.93      148.55      167.74      176.19      175.78      171.74    
  176.30      175.65      172.48      164.15      148.55      125.86      98.795      71.460      47.893      30.785    
  19.823      13.258      9.4936      7.3768      6.1884      5.5196      5.1500      4.9560      4.8604      4.8167    
  4.8038      4.8167      4.8604      4.9560      5.1500      5.5196      6.1884      7.3768      9.4936      13.258    
  19.823      30.785      47.893      71.460      98.795      125.86      148.55      164.15      172.48      175.65    
  160.46      158.27      151.32      138.89      120.93      98.795      75.143      53.162      35.638      23.484    
  15.709      11.013      8.2747      6.7037      5.8070      5.2989      5.0191      4.8735      4.8031      4.7720    
  4.7631      4.7720      4.8031      4.8735      5.0191      5.2989      5.8070      6.7037      8.2747      11.013    
  15.709      23.484      35.638      53.162      75.143      98.795      120.93      138.89      151.32      158.27    
  129.34      126.74      118.99      106.42      89.989      71.460      53.162      37.461      25.674      17.563    
  12.343      9.1414      7.2342      6.1165      5.4695      5.1026      4.9028      4.8007      4.7527      4.7326    
  4.7271      4.7326      4.7527      4.8007      4.9028      5.1026      5.4695      6.1165      7.2342      9.1414    
  12.343      17.563      25.674      37.461      53.162      71.460      89.989      106.42      118.99      126.74    
  93.096      90.811      84.183      73.921      61.265      47.893      35.638      25.674      18.258      13.130    
  9.7818      7.6829      6.4026      5.6379      5.1920      4.9416      4.8084      4.7427      4.7133      4.7018    
  4.6989      4.7018      4.7133      4.7427      4.8084      4.9416      5.1920      5.6379      6.4026      7.6829    
  9.7818      13.130      18.258      25.674      35.638      47.893      61.265      73.921      84.183      90.811    
  60.437      58.798      54.127      47.148      38.971      30.785      23.484      17.563      13.130      10.019    
  7.9429      6.6079      5.7752      5.2720      4.9802      4.8205      4.7396      4.7024      4.6873      4.6823    
  4.6812      4.6823      4.6873      4.7024      4.7396      4.8205      4.9802      5.2720      5.7752      6.6079    
  7.9429      10.019      13.130      17.563      23.484      30.785      38.971      47.148      54.127      58.798    
  36.667      35.706      32.999      29.024      24.421      19.823      15.709      12.343      9.7818      7.9429    
  6.6829      5.8529      5.3275      5.0106      4.8314      4.7389      4.6966      4.6805      4.6760      4.6756    
  4.6758      4.6756      4.6760      4.6805      4.6966      4.7389      4.8314      5.0106      5.3275      5.8529    
  6.6829      7.9429      9.7818      12.343      15.709      19.823      24.421      29.024      32.999      35.706    
  22.266      21.755      20.315      18.198      15.736      13.258      11.013      9.1414      7.6829      6.6079    
  5.8529      5.3474      5.0270      4.8382      4.7378      4.6923      4.6772      4.6761      4.6793      4.6823    
  4.6834      4.6823      4.6793      4.6761      4.6772      4.6923      4.7378      4.8382      5.0270      5.3474    
  5.8529      6.6079      7.6829      9.1414      11.013      13.258      15.736      18.198      20.315      21.755    
  14.208      13.945      13.203      12.104      10.813      9.4936      8.2747      7.2342      6.4026      5.7752    
  5.3275      5.0270      4.8403      4.7365      4.6885      4.6744      4.6776      4.6869      4.6959      4.7018    
  4.7038      4.7018      4.6959      4.6869      4.6776      4.6744      4.6885      4.7365      4.8403      5.0270    
  5.3275      5.7752      6.4026      7.2342      8.2747      9.4936      10.813      12.104      13.203      13.945    
  9.8720      9.7363      9.3511      8.7755      8.0901      7.3768      6.7037      6.1165      5.6379      5.2720    
  5.0106      4.8382      4.7365      4.6868      4.6722      4.6781      4.6933      4.7100      4.7238      4.7326    
  4.7355      4.7326      4.7238      4.7100      4.6933      4.6781      4.6722      4.6868      4.7365      4.8382    
  5.0106      5.2720      5.6379      6.1165      6.7037      7.3768      8.0901      8.7755      9.3511      9.7363    
  7.5535      7.4810      7.2742      6.9624      6.5861      6.1884      5.8070      5.4695      5.1920      4.9802    
  4.8314      4.7378      4.6885      4.6722      4.6779      4.6963      4.7196      4.7422      4.7604      4.7720    
  4.7760      4.7720      4.7604      4.7422      4.7196      4.6963      4.6779      4.6722      4.6885      4.7378    
  4.8314      4.9802      5.1920      5.4695      5.8070      6.1884      6.5861      6.9624      7.2742      7.4810    
  6.2931      6.2527      6.1370      5.9615      5.7478      5.5196      5.2989      5.1026      4.9416      4.8205    
  4.7389      4.6923      4.6744      4.6781      4.6963      4.7228      4.7521      4.7798      4.8022      4.8167    
  4.8217      4.8167      4.8022      4.7798      4.7521      4.7228      4.6963      4.6781      4.6744      4.6923    
  4.7389      4.8205      4.9416      5.1026      5.2989      5.5196      5.7478      5.9615      6.1370      6.2527    
  5.6047      5.5811      5.5136      5.4108      5.2850      5.1500      5.0191      4.9028      4.8084      4.7396    
  4.6966      4.6772      4.6776      4.6933      4.7196      4.7521      4.7866      4.8189      4.8453      4.8625    
  4.8685      4.8625      4.8453      4.8189      4.7866      4.7521      4.7196      4.6933      4.6776      4.6772    
  4.6966      4.7396      4.8084      4.9028      5.0191      5.1500      5.2850      5.4108      5.5136      5.5811    
  5.2418      5.2271      5.1848      5.1202      5.0411      4.9560      4.8735      4.8007      4.7427      4.7024    
  4.6805      4.6761      4.6869      4.7100      4.7422      4.7798      4.8189      4.8554      4.8853      4.9049    
  4.9117      4.9049      4.8853      4.8554      4.8189      4.7798      4.7422      4.7100      4.6869      4.6761    
  4.6805      4.7024      4.7427      4.8007      4.8735      4.9560      5.0411      5.1202      5.1848      5.2271    
  5.0587      5.0485      5.0192      4.9745      4.9196      4.8604      4.8031      4.7527      4.7133      4.6873    
  4.6760      4.6793      4.6959      4.7238      4.7604      4.8022      4.8453      4.8853      4.9179      4.9393    
  4.9467      4.9393      4.9179      4.8853      4.8453      4.8022      4.7604      4.7238      4.6959      4.6793    
  4.6760      4.6873      4.7133      4.7527      4.8031      4.8604      4.9196      4.9745      5.0192      5.0485    
  4.9695      4.9617      4.9393      4.9049      4.8625      4.8167      4.7720      4.7326      4.7018      4.6823    
  4.6756      4.6823      4.7018      4.7326      4.7720      4.8167      4.8625      4.9049      4.9393      4.9617    
  4.9695      4.9617      4.9393      4.9049      4.8625      4.8167      4.7720      4.7326      4.7018      4.6823    
  4.6756      4.6823      4.7018      4.7326      4.7720      4.8167      4.8625      4.9049      4.9393      4.9617    
  4.9414      4.9344      4.9142      4.8833      4.8452      4.8038      4.7631      4.7271      4.6989      4.6812    
  4.6758      4.6834      4.7038      4.7355      4.7760      4.8217      4.8685      4.9117      4.9467      4.9695    
  4.9774      4.9695      4.9467      4.9117      4.8685      4.8217      4.7760      4.7355      4.7038      4.6834    
  4.6758      4.6812      4.6989      4.7271      4.7631      4.8038      4.8452      4.8833      4.9142      4.9344    
  4.9695      4.9617      4.9393      4.9049      4.8625      4.8167      4.7720      4.7326      4.7018      4.6823    