Ba                                      
   1.00000000000000     
     5.027920    0.000000    0.000000
     0.000000    5.027920    0.000000
     0.000000    0.000000    5.027920
   Ba
     2
Direct
  0.000000  0.000000  0.000000
  0.500000  0.500000  0.500000
 
   40   40   40
 0.36967409796E+02 0.51898189697E+02 0.89925213566E+02 0.13434493335E+03 0.16703526067E+03
 0.17672998550E+03 0.16256096665E+03 0.13193990698E+03 0.95414870138E+02 0.62116724270E+02
 0.37659241391E+02 0.22793043444E+02 0.14478443778E+02 0.10011247848E+02 0.76276080778E+01
 0.63342529780E+01 0.56286152312E+01 0.52567613558E+01 0.50689947369E+01 0.49774177626E+01
 0.49485121768E+01 0.49774177626E+01 0.50689947369E+01 0.52567613558E+01 0.56286152312E+01
 0.63342529780E+01 0.76276080778E+01 0.10011247848E+02 0.14478443778E+02 0.22793043444E+02
 0.37659241391E+02 0.62116724270E+02 0.95414870138E+02 0.13193990698E+03 0.16256096665E+03
 0.17672998550E+03 0.16703526067E+03 0.13434493335E+03 0.89925213566E+02 0.51898189697E+02
 0.51898189697E+02 0.65667313045E+02 0.10058277095E+03 0.14089482456E+03 0.16960502087E+03
 0.17630243212E+03 0.16045854816E+03 0.12934099521E+03 0.93095714019E+02 0.60436719535E+02
 0.36667479566E+02 0.22266057623E+02 0.14207975261E+02 0.98719882799E+01 0.75534669813E+01
 0.62930569208E+01 0.56046621042E+01 0.52417940846E+01 0.50586610942E+01 0.49694955045E+01
 0.49413995331E+01 0.49694955045E+01 0.50586610942E+01 0.52417940846E+01 0.56046621042E+01
 0.62930569208E+01 0.75534669813E+01 0.98719882799E+01 0.14207975261E+02 0.22266057623E+02
 0.36667479566E+02 0.60436719535E+02 0.93095714019E+02 0.12934099521E+03 0.16045854816E+03
 0.17630243212E+03 0.16960502087E+03 0.14089482456E+03 0.10058277095E+03 0.65667313045E+02
 0.89925213566E+02 0.10058277095E+03 0.12718281450E+03 0.15657220319E+03 0.17479319830E+03
 0.17372182695E+03 0.15370256752E+03 0.12157001845E+03 0.86357523406E+02 0.55645484093E+02
 0.33874478553E+02 0.20781417024E+02 0.13443754510E+02 0.94766610115E+01 0.73419567426E+01
 0.61750972522E+01 0.55359273139E+01 0.51987857144E+01 0.50289349679E+01 0.49466893760E+01
 0.49209187360E+01 0.49466893760E+01 0.50289349679E+01 0.51987857144E+01 0.55359273139E+01
 0.61750972522E+01 0.73419567426E+01 0.94766610115E+01 0.13443754510E+02 0.20781417024E+02
 0.33874478553E+02 0.55645484093E+02 0.86357523406E+02 0.12157001845E+03 0.15370256752E+03
 0.17372182695E+03 0.17479319830E+03 0.15657220319E+03 0.12718281450E+03 0.10058277095E+03
 0.13434493335E+03 0.14089482456E+03 0.15657220319E+03 0.17177199980E+03 0.17664123690E+03
 0.16606687872E+03 0.14144403576E+03 0.10890200105E+03 0.75901235594E+02 0.48470647428E+02
 0.29772966496E+02 0.18598157279E+02 0.12312841330E+02 0.88861321712E+01 0.70229747935E+01
 0.59959531479E+01 0.54311238062E+01 0.51330516042E+01 0.49834130549E+01 0.49117029042E+01
 0.48894719989E+01 0.49117029042E+01 0.49834130549E+01 0.51330516042E+01 0.54311238062E+01
 0.59959531479E+01 0.70229747935E+01 0.88861321712E+01 0.12312841330E+02 0.18598157279E+02
 0.29772966496E+02 0.48470647428E+02 0.75901235594E+02 0.10890200105E+03 0.14144403576E+03
 0.16606687872E+03 0.17664123690E+03 0.17177199980E+03 0.15657220319E+03 0.14089482456E+03
 0.16703526067E+03 0.16960502087E+03 0.17479319830E+03 0.17664123690E+03 0.16943517332E+03
 0.15097531365E+03 0.12350928244E+03 0.92255833939E+02 0.62963457720E+02 0.40041455907E+02
 0.25023991053E+02 0.16060981071E+02 0.10985062957E+02 0.81830159011E+01 0.66380263045E+01
 0.57777199854E+01 0.53027957805E+01 0.50523414464E+01 0.49273892125E+01 0.48685060512E+01
 0.48505668520E+01 0.48685060512E+01 0.49273892125E+01 0.50523414464E+01 0.53027957805E+01
 0.57777199854E+01 0.66380263045E+01 0.81830159011E+01 0.10985062957E+02 0.16060981071E+02
 0.25023991053E+02 0.40041455907E+02 0.62963457720E+02 0.92255833939E+02 0.12350928244E+03
 0.15097531365E+03 0.16943517332E+03 0.17664123690E+03 0.17479319830E+03 0.16960502087E+03
 0.17672998550E+03 0.17630243212E+03 0.17372182695E+03 0.16606687872E+03 0.15097531365E+03
 0.12845504349E+03 0.10118494308E+03 0.73386919676E+02 0.49240074092E+02 0.31595799862E+02
 0.20280058178E+02 0.13507704880E+02 0.96288686831E+01 0.74516316347E+01 0.62311047534E+01
 0.55446229156E+01 0.51650178173E+01 0.49655068888E+01 0.48669938680E+01 0.48217105894E+01
 0.48082689720E+01 0.48217105894E+01 0.48669938680E+01 0.49655068888E+01 0.51650178173E+01
 0.55446229156E+01 0.62311047534E+01 0.74516316347E+01 0.96288686831E+01 0.13507704880E+02
 0.20280058178E+02 0.31595799862E+02 0.49240074092E+02 0.73386919676E+02 0.10118494308E+03
 0.12845504349E+03 0.15097531365E+03 0.16606687872E+03 0.17372182695E+03 0.17630243212E+03
 0.16256096665E+03 0.16045854816E+03 0.15370256752E+03 0.14144403576E+03 0.12350928244E+03
 0.10118494308E+03 0.77145209766E+02 0.54655978034E+02 0.36606306545E+02 0.24061303521E+02
 0.16038113989E+02 0.11195943785E+02 0.83765803708E+01 0.67617131603E+01 0.58407841592E+01
 0.53189396443E+01 0.50311573433E+01 0.48811583067E+01 0.48083099047E+01 0.47759681674E+01
 0.47667118735E+01 0.47759681674E+01 0.48083099047E+01 0.48811583067E+01 0.50311573433E+01
 0.53189396443E+01 0.58407841592E+01 0.67617131603E+01 0.83765803708E+01 0.11195943785E+02
 0.16038113989E+02 0.24061303521E+02 0.36606306545E+02 0.54655978034E+02 0.77145209766E+02
 0.10118494308E+03 0.12350928244E+03 0.14144403576E+03 0.15370256752E+03 0.16045854816E+03
 0.13193990698E+03 0.12934099521E+03 0.12157001845E+03 0.10890200105E+03 0.92255833939E+02
 0.73386919676E+02 0.54655978034E+02 0.38488187222E+02 0.26323499221E+02 0.17952601505E+02
 0.12569035187E+02 0.92704478864E+01 0.73084825336E+01 0.61599812009E+01 0.54953468052E+01
 0.51180864486E+01 0.49121375509E+01 0.48065745946E+01 0.47566453019E+01 0.47355036715E+01
 0.47297433824E+01 0.47355036715E+01 0.47566453019E+01 0.48065745946E+01 0.49121375509E+01
 0.51180864486E+01 0.54953468052E+01 0.61599812009E+01 0.73084825336E+01 0.92704478864E+01
 0.12569035187E+02 0.17952601505E+02 0.26323499221E+02 0.38488187222E+02 0.54655978034E+02
 0.73386919676E+02 0.92255833939E+02 0.10890200105E+03 0.12157001845E+03 0.12934099521E+03
 0.95414870138E+02 0.93095714019E+02 0.86357523406E+02 0.75901235594E+02 0.62963457720E+02
 0.49240074092E+02 0.36606306545E+02 0.26323499221E+02 0.18670533831E+02 0.13381390018E+02
 0.99313428114E+01 0.77713956826E+01 0.64553349185E+01 0.56695885288E+01 0.52112460094E+01
 0.49531794657E+01 0.48154039916E+01 0.47469971549E+01 0.47160494718E+01 0.47038016826E+01
 0.47006850133E+01 0.47038016826E+01 0.47160494718E+01 0.47469971549E+01 0.48154039916E+01
 0.49531794657E+01 0.52112460094E+01 0.56695885288E+01 0.64553349185E+01 0.77713956826E+01
 0.99313428114E+01 0.13381390018E+02 0.18670533831E+02 0.26323499221E+02 0.36606306545E+02
 0.49240074092E+02 0.62963457720E+02 0.75901235594E+02 0.86357523406E+02 0.93095714019E+02
 0.62116724270E+02 0.60436719535E+02 0.55645484093E+02 0.48470647428E+02 0.40041455907E+02
 0.31595799862E+02 0.24061303521E+02 0.17952601505E+02 0.13381390018E+02 0.10176511224E+02
 0.80397252431E+01 0.66673673957E+01 0.58118887252E+01 0.52946371061E+01 0.49941271259E+01
 0.48289690181E+01 0.47446192336E+01 0.47053327720E+01 0.46890755726E+01 0.46834016504E+01
 0.46821320211E+01 0.46834016504E+01 0.46890755726E+01 0.47053327720E+01 0.47446192336E+01
 0.48289690181E+01 0.49941271259E+01 0.52946371061E+01 0.58118887252E+01 0.66673673957E+01
 0.80397252431E+01 0.10176511224E+02 0.13381390018E+02 0.17952601505E+02 0.24061303521E+02
 0.31595799862E+02 0.40041455907E+02 0.48470647428E+02 0.55645484093E+02 0.60436719535E+02
 0.37659241391E+02 0.36667479566E+02 0.33874478553E+02 0.29772966496E+02 0.25023991053E+02
 0.20280058178E+02 0.16038113989E+02 0.12569035187E+02 0.99313428114E+01 0.80397252431E+01
 0.67448254125E+01 0.58924155908E+01 0.53526203029E+01 0.50264113856E+01 0.48412741282E+01
 0.47448068704E+01 0.46999979504E+01 0.46822392398E+01 0.46767580747E+01 0.46757625593E+01
 0.46757546885E+01 0.46757625593E+01 0.46767580747E+01 0.46822392398E+01 0.46999979504E+01
 0.47448068704E+01 0.48412741282E+01 0.50264113856E+01 0.53526203029E+01 0.58924155908E+01
 0.67448254125E+01 0.80397252431E+01 0.99313428114E+01 0.12569035187E+02 0.16038113989E+02
 0.20280058178E+02 0.25023991053E+02 0.29772966496E+02 0.33874478553E+02 0.36667479566E+02
 0.22793043444E+02 0.22266057623E+02 0.20781417024E+02 0.18598157279E+02 0.16060981071E+02
 0.13507704880E+02 0.11195943785E+02 0.92704478864E+01 0.77713956826E+01 0.66673673957E+01
 0.58924155908E+01 0.53733838481E+01 0.50439640820E+01 0.48490315438E+01 0.47444933392E+01
 0.46961963625E+01 0.46791082290E+01 0.46765275811E+01 0.46787670589E+01 0.46811991963E+01
 0.46821320211E+01 0.46811991963E+01 0.46787670589E+01 0.46765275811E+01 0.46791082290E+01
 0.46961963625E+01 0.47444933392E+01 0.48490315438E+01 0.50439640820E+01 0.53733838481E+01
 0.58924155908E+01 0.66673673957E+01 0.77713956826E+01 0.92704478864E+01 0.11195943785E+02
 0.13507704880E+02 0.16060981071E+02 0.18598157279E+02 0.20781417024E+02 0.22266057623E+02
 0.14478443778E+02 0.14207975261E+02 0.13443754510E+02 0.12312841330E+02 0.10985062957E+02
 0.96288686831E+01 0.83765803708E+01 0.73084825336E+01 0.64553349185E+01 0.58118887252E+01
 0.53526203029E+01 0.50439640820E+01 0.48515450631E+01 0.47436461735E+01 0.46927655268E+01
 0.46764685446E+01 0.46778896429E+01 0.46857473386E+01 0.46936762663E+01 0.46989112831E+01
 0.47006850133E+01 0.46989112831E+01 0.46936762663E+01 0.46857473386E+01 0.46778896429E+01
 0.46764685446E+01 0.46927655268E+01 0.47436461735E+01 0.48515450631E+01 0.50439640820E+01
 0.53526203029E+01 0.58118887252E+01 0.64553349185E+01 0.73084825336E+01 0.83765803708E+01
 0.96288686831E+01 0.10985062957E+02 0.12312841330E+02 0.13443754510E+02 0.14207975261E+02
 0.10011247848E+02 0.98719882799E+01 0.94766610115E+01 0.88861321712E+01 0.81830159011E+01
 0.74516316347E+01 0.67617131603E+01 0.61599812009E+01 0.56695885288E+01 0.52946371061E+01
 0.50264113856E+01 0.48490315438E+01 0.47436461735E+01 0.46912211671E+01 0.46743174430E+01
 0.46782204071E+01 0.46916085653E+01 0.47067639168E+01 0.47192517837E+01 0.47271021407E+01
 0.47297433824E+01 0.47271021407E+01 0.47192517837E+01 0.47067639168E+01 0.46916085653E+01
 0.46782204071E+01 0.46743174430E+01 0.46912211671E+01 0.47436461735E+01 0.48490315438E+01
 0.50264113856E+01 0.52946371061E+01 0.56695885288E+01 0.61599812009E+01 0.67617131603E+01
 0.74516316347E+01 0.81830159011E+01 0.88861321712E+01 0.94766610115E+01 0.98719882799E+01
 0.76276080778E+01 0.75534669813E+01 0.73419567426E+01 0.70229747935E+01 0.66380263045E+01
 0.62311047534E+01 0.58407841592E+01 0.54953468052E+01 0.52112460094E+01 0.49941271259E+01
 0.48412741282E+01 0.47444933392E+01 0.46927655268E+01 0.46743174430E+01 0.46780341380E+01
 0.46943151067E+01 0.47155285856E+01 0.47361598272E+01 0.47526772339E+01 0.47631466284E+01
 0.47667118735E+01 0.47631466284E+01 0.47526772339E+01 0.47361598272E+01 0.47155285856E+01
 0.46943151067E+01 0.46780341380E+01 0.46743174430E+01 0.46927655268E+01 0.47444933392E+01
 0.48412741282E+01 0.49941271259E+01 0.52112460094E+01 0.54953468052E+01 0.58407841592E+01
 0.62311047534E+01 0.66380263045E+01 0.70229747935E+01 0.73419567426E+01 0.75534669813E+01
 0.63342529780E+01 0.62930569208E+01 0.61750972522E+01 0.59959531479E+01 0.57777199854E+01
 0.55446229156E+01 0.53189396443E+01 0.51180864486E+01 0.49531794657E+01 0.48289690181E+01
 0.47448068704E+01 0.46961963625E+01 0.46764685446E+01 0.46782204071E+01 0.46943151067E+01
 0.47184229023E+01 0.47452186045E+01 0.47704045454E+01 0.47906887017E+01 0.48037624822E+01
 0.48082689720E+01 0.48037624822E+01 0.47906887017E+01 0.47704045454E+01 0.47452186045E+01
 0.47184229023E+01 0.46943151067E+01 0.46782204071E+01 0.46764685446E+01 0.46961963625E+01
 0.47448068704E+01 0.48289690181E+01 0.49531794657E+01 0.51180864486E+01 0.53189396443E+01
 0.55446229156E+01 0.57777199854E+01 0.59959531479E+01 0.61750972522E+01 0.62930569208E+01
 0.56286152312E+01 0.56046621042E+01 0.55359273139E+01 0.54311238062E+01 0.53027957805E+01
 0.51650178173E+01 0.50311573433E+01 0.49121375509E+01 0.48154039916E+01 0.47446192336E+01
 0.46999979504E+01 0.46791082290E+01 0.46778896429E+01 0.46916085653E+01 0.47155285856E+01
 0.47452186045E+01 0.47765916187E+01 0.48058710221E+01 0.48296608822E+01 0.48451772176E+01
 0.48505668520E+01 0.48451772176E+01 0.48296608822E+01 0.48058710221E+01 0.47765916187E+01
 0.47452186045E+01 0.47155285856E+01 0.46916085653E+01 0.46778896429E+01 0.46791082290E+01
 0.46999979504E+01 0.47446192336E+01 0.48154039916E+01 0.49121375509E+01 0.50311573433E+01
 0.51650178173E+01 0.53027957805E+01 0.54311238062E+01 0.55359273139E+01 0.56046621042E+01
 0.52567613558E+01 0.52417940846E+01 0.51987857144E+01 0.51330516042E+01 0.50523414464E+01
 0.49655068888E+01 0.48811583067E+01 0.48065745946E+01 0.47469971549E+01 0.47053327720E+01
 0.46822392398E+01 0.46765275811E+01 0.46857473386E+01 0.47067639168E+01 0.47361598272E+01
 0.47704045454E+01 0.48058710221E+01 0.48388532924E+01 0.48657305513E+01 0.48833379991E+01
 0.48894719989E+01 0.48833379991E+01 0.48657305513E+01 0.48388532924E+01 0.48058710221E+01
 0.47704045454E+01 0.47361598272E+01 0.47067639168E+01 0.46857473386E+01 0.46765275811E+01
 0.46822392398E+01 0.47053327720E+01 0.47469971549E+01 0.48065745946E+01 0.48811583067E+01
 0.49655068888E+01 0.50523414464E+01 0.51330516042E+01 0.51987857144E+01 0.52417940846E+01
 0.50689947369E+01 0.50586610942E+01 0.50289349679E+01 0.49834130549E+01 0.49273892125E+01
 0.48669938680E+01 0.48083099047E+01 0.47566453019E+01 0.47160494718E+01 0.46890755726E+01
 0.46767580747E+01 0.46787670589E+01 0.46936762663E+01 0.47192517837E+01 0.47526772339E+01
 0.47906887017E+01 0.48296608822E+01 0.48657305513E+01 0.48950523880E+01 0.49142381513E+01
 0.49209187360E+01 0.49142381513E+01 0.48950523880E+01 0.48657305513E+01 0.48296608822E+01
 0.47906887017E+01 0.47526772339E+01 0.47192517837E+01 0.46936762663E+01 0.46787670589E+01
 0.46767580747E+01 0.46890755726E+01 0.47160494718E+01 0.47566453019E+01 0.48083099047E+01
 0.48669938680E+01 0.49273892125E+01 0.49834130549E+01 0.50289349679E+01 0.50586610942E+01
 0.49774177626E+01 0.49694955045E+01 0.49466893760E+01 0.49117029042E+01 0.48685060512E+01
 0.48217105894E+01 0.47759681674E+01 0.47355036715E+01 0.47038016826E+01 0.46834016504E+01
 0.46757625593E+01 0.46811991963E+01 0.46989112831E+01 0.47271021407E+01 0.47631466284E+01
 0.48037624822E+01 0.48451772176E+01 0.48833379991E+01 0.49142381513E+01 0.49343936264E+01
 0.49413995331E+01 0.49343936264E+01 0.49142381513E+01 0.48833379991E+01 0.48451772176E+01
 0.48037624822E+01 0.47631466284E+01 0.47271021407E+01 0.46989112831E+01 0.46811991963E+01
 0.46757625593E+01 0.46834016504E+01 0.47038016826E+01 0.47355036715E+01 0.47759681674E+01
 0.48217105894E+01 0.48685060512E+01 0.49117029042E+01 0.49466893760E+01 0.49694955045E+01
 0.49485121768E+01 0.49413995331E+01 0.49209187360E+01 0.48894719989E+01 0.48505668520E+01
 0.48082689720E+01 0.47667118735E+01 0.47297433824E+01 0.47006850133E+01 0.46821320211E+01
 0.46757546885E+01 0.46821320211E+01 0.47006850133E+01 0.47297433824E+01 0.47667118735E+01
 0.48082689720E+01 0.48505668520E+01 0.48894719989E+01 0.49209187360E+01 0.49413995331E+01
 0.49485121768E+01 0.49413995331E+01 0.49209187360E+01 0.48894719989E+01 0.48505668520E+01
 0.48082689720E+01 0.47667118735E+01 0.47297433824E+01 0.47006850133E+01 0.46821320211E+01
 0.46757546885E+01 0.46821320211E+01 0.47006850133E+01 0.47297433824E+01 0.47667118735E+01
 0.48082689720E+01 0.48505668520E+01 0.48894719989E+01 0.49209187360E+01 0.49413995331E+01
 0.49774177626E+01 0.49694955045E+01 0.49466893760E+01 0.49117029042E+01 0.48685060512E+01
 0.48217105894E+01 0.47759681674E+01 0.47355036715E+01 0.47038016826E+01 0.46834016504E+01
 0.46757625593E+01 0.46811991963E+01 0.46989112831E+01 0.47271021407E+01 0.47631466284E+01
 0.48037624822E+01 0.48451772176E+01 0.48833379991E+01 0.49142381513E+01 0.49343936264E+01
 0.49413995331E+01 0.49343936264E+01 0.49142381513E+01 0.48833379991E+01 0.48451772176E+01
 0.48037624822E+01 0.47631466284E+01 0.47271021407E+01 0.46989112831E+01 0.46811991963E+01
 0.46757625593E+01 0.46834016504E+01 0.47038016826E+01 0.47355036715E+01 0.47759681674E+01
 0.48217105894E+01 0.48685060512E+01 0.49117029042E+01 0.49466893760E+01 0.49694955045E+01
 0.50689947369E+01 0.50586610942E+01 0.50289349679E+01 0.49834130549E+01 0.49273892125E+01
 0.48669938680E+01 0.48083099047E+01 0.47566453019E+01 0.47160494718E+01 0.46890755726E+01
 0.46767580747E+01 0.46787670589E+01 0.46936762663E+01 0.47192517837E+01 0.47526772339E+01
 0.47906887017E+01 0.48296608822E+01 0.48657305513E+01 0.48950523880E+01 0.49142381513E+01
 0.49209187360E+01 0.49142381513E+01 0.48950523880E+01 0.48657305513E+01 0.48296608822E+01
 0.47906887017E+01 0.47526772339E+01 0.47192517837E+01 0.46936762663E+01 0.46787670589E+01
 0.46767580747E+01 0.46890755726E+01 0.47160494718E+01 0.47566453019E+01 0.48083099047E+01
 0.48669938680E+01 0.49273892125E+01 0.49834130549E+01 0.50289349679E+01 0.50586610942E+01
 0.52567613558E+01 0.52417940846E+01 0.51987857144E+01 0.51330516042E+01 0.50523414464E+01
 0.49655068888E+01 0.48811583067E+01 0.48065745946E+01 0.47469971549E+01 0.47053327720E+01
 0.46822392398E+01 0.46765275811E+01 0.46857473386E+01 0.47067639168E+01 0.47361598272E+01
 0.47704045454E+01 0.48058710221E+01 0.48388532924E+01 0.48657305513E+01 0.48833379991E+01
 0.48894719989E+01 0.48833379991E+01 0.48657305513E+01 0.48388532924E+01 0.48058710221E+01
 0.47704045454E+01 0.47361598272E+01 0.47067639168E+01 0.46857473386E+01 0.46765275811E+01
 0.46822392398E+01 0.47053327720E+01 0.47469971549E+01 0.48065745946E+01 0.48811583067E+01
 0.49655068888E+01 0.50523414464E+01 0.51330516042E+01 0.51987857144E+01 0.52417940846E+01
 0.56286152312E+01 0.56046621042E+01 0.55359273139E+01 0.54311238062E+01 0.53027957805E+01
 0.51650178173E+01 0.50311573433E+01 0.49121375509E+01 0.48154039916E+01 0.47446192336E+01
 0.46999979504E+01 0.46791082290E+01 0.46778896429E+01 0.46916085653E+01 0.47155285856E+01
 0.47452186045E+01 0.47765916187E+01 0.48058710221E+01 0.48296608822E+01 0.48451772176E+01
 0.48505668520E+01 0.48451772176E+01 0.48296608822E+01 0.48058710221E+01 0.47765916187E+01
 0.47452186045E+01 0.47155285856E+01 0.46916085653E+01 0.46778896429E+01 0.46791082290E+01
 0.46999979504E+01 0.47446192336E+01 0.48154039916E+01 0.49121375509E+01 0.50311573433E+01
 0.51650178173E+01 0.53027957805E+01 0.54311238062E+01 0.55359273139E+01 0.56046621042E+01
 0.63342529780E+01 0.62930569208E+01 0.61750972522E+01 0.59959531479E+01 0.57777199854E+01
 0.55446229156E+01 0.53189396443E+01 0.51180864486E+01 0.49531794657E+01 0.48289690181E+01
 0.47448068704E+01 0.46961963625E+01 0.46764685446E+01 0.46782204071E+01 0.46943151067E+01
 0.47184229023E+01 0.47452186045E+01 0.47704045454E+01 0.47906887017E+01 0.48037624822E+01
 0.48082689720E+01 0.48037624822E+01 0.47906887017E+01 0.47704045454E+01 0.47452186045E+01
 0.47184229023E+01 0.46943151067E+01 0.46782204071E+01 0.46764685446E+01 0.46961963625E+01
 0.47448068704E+01 0.48289690181E+01 0.49531794657E+01 0.51180864486E+01 0.53189396443E+01
 0.55446229156E+01 0.57777199854E+01 0.59959531479E+01 0.61750972522E+01 0.62930569208E+01
 0.76276080778E+01 0.75534669813E+01 0.73419567426E+01 0.70229747935E+01 0.66380263045E+01
 0.62311047534E+01 0.58407841592E+01 0.54953468052E+01 0.52112460094E+01 0.49941271259E+01
 0.48412741282E+01 0.47444933392E+01 0.46927655268E+01 0.46743174430E+01 0.46780341380E+01
 0.46943151067E+01 0.47155285856E+01 0.47361598272E+01 0.47526772339E+01 0.47631466284E+01
 0.47667118735E+01 0.47631466284E+01 0.47526772339E+01 0.47361598272E+01 0.47155285856E+01
 0.46943151067E+01 0.46780341380E+01 0.46743174430E+01 0.46927655268E+01 0.47444933392E+01
 0.48412741282E+01 0.49941271259E+01 0.52112460094E+01 0.54953468052E+01 0.58407841592E+01
 0.62311047534E+01 0.66380263045E+01 0.70229747935E+01 0.73419567426E+01 0.75534669813E+01
 0.10011247848E+02 0.98719882799E+01 0.94766610115E+01 0.88861321712E+01 0.81830159011E+01
 0.74516316347E+01 0.67617131603E+01 0.61599812009E+01 0.56695885288E+01 0.52946371061E+01
 0.50264113856E+01 0.48490315438E+01 0.47436461735E+01 0.46912211671E+01 0.46743174430E+01
 0.46782204071E+01 0.46916085653E+01 0.47067639168E+01 0.47192517837E+01 0.47271021407E+01
 0.47297433824E+01 0.47271021407E+01 0.47192517837E+01 0.47067639168E+01 0.46916085653E+01
 0.46782204071E+01 0.46743174430E+01 0.46912211671E+01 0.47436461735E+01 0.48490315438E+01
 0.50264113856E+01 0.52946371061E+01 0.56695885288E+01 0.61599812009E+01 0.67617131603E+01
 0.74516316347E+01 0.81830159011E+01 0.88861321712E+01 0.94766610115E+01 0.98719882799E+01
 0.14478443778E+02 0.14207975261E+02 0.13443754510E+02 0.12312841330E+02 0.10985062957E+02
 0.96288686831E+01 0.83765803708E+01 0.73084825336E+01 0.64553349185E+01 0.58118887252E+01
 0.53526203029E+01 0.50439640820E+01 0.48515450631E+01 0.47436461735E+01 0.46927655268E+01
 0.46764685446E+01 0.46778896429E+01 0.46857473386E+01 0.46936762663E+01 0.46989112831E+01
 0.47006850133E+01 0.46989112831E+01 0.46936762663E+01 0.46857473386E+01 0.46778896429E+01
 0.46764685446E+01 0.46927655268E+01 0.47436461735E+01 0.48515450631E+01 0.50439640820E+01
 0.53526203029E+01 0.58118887252E+01 0.64553349185E+01 0.73084825336E+01 0.83765803708E+01
 0.96288686831E+01 0.10985062957E+02 0.12312841330E+02 0.13443754510E+02 0.14207975261E+02
 0.22793043444E+02 0.22266057623E+02 0.20781417024E+02 0.18598157279E+02 0.16060981071E+02
 0.13507704880E+02 0.11195943785E+02 0.92704478864E+01 0.77713956826E+01 0.66673673957E+01
 0.58924155908E+01 0.53733838481E+01 0.50439640820E+01 0.48490315438E+01 0.47444933392E+01
 0.46961963625E+01 0.46791082290E+01 0.46765275811E+01 0.46787670589E+01 0.46811991963E+01
 0.46821320211E+01 0.46811991963E+01 0.46787670589E+01 0.46765275811E+01 0.46791082290E+01
 0.46961963625E+01 0.47444933392E+01 0.48490315438E+01 0.50439640820E+01 0.53733838481E+01
 0.58924155908E+01 0.66673673957E+01 0.77713956826E+01 0.92704478864E+01 0.11195943785E+02
 0.13507704880E+02 0.16060981071E+02 0.18598157279E+02 0.20781417024E+02 0.22266057623E+02
 0.37659241391E+02 0.36667479566E+02 0.33874478553E+02 0.29772966496E+02 0.25023991053E+02
 0.20280058178E+02 0.16038113989E+02 0.12569035187E+02 0.99313428114E+01 0.80397252431E+01
 0.67448254125E+01 0.58924155908E+01 0.53526203029E+01 0.50264113856E+01 0.48412741282E+01
 0.47448068704E+01 0.46999979504E+01 0.46822392398E+01 0.46767580747E+01 0.46757625593E+01
 0.46757546885E+01 0.46757625593E+01 0.46767580747E+01 0.46822392398E+01 0.46999979504E+01
 0.47448068704E+01 0.48412741282E+01 0.50264113856E+01 0.53526203029E+01 0.58924155908E+01
 0.67448254125E+01 0.80397252431E+01 0.99313428114E+01 0.12569035187E+02 0.16038113989E+02
 0.20280058178E+02 0.25023991053E+02 0.29772966496E+02 0.33874478553E+02 0.36667479566E+02
 0.62116724270E+02 0.60436719535E+02 0.55645484093E+02 0.48470647428E+02 0.40041455907E+02
 0.31595799862E+02 0.24061303521E+02 0.17952601505E+02 0.13381390018E+02 0.10176511224E+02
 0.80397252431E+01 0.66673673957E+01 0.58118887252E+01 0.52946371061E+01 0.49941271259E+01
 0.48289690181E+01 0.47446192336E+01 0.47053327720E+01 0.46890755726E+01 0.46834016504E+01
 0.46821320211E+01 0.46834016504E+01 0.46890755726E+01 0.47053327720E+01 0.47446192336E+01
 0.48289690181E+01 0.49941271259E+01 0.52946371061E+01 0.58118887252E+01 0.66673673957E+01
 0.80397252431E+01 0.10176511224E+02 0.13381390018E+02 0.17952601505E+02 0.24061303521E+02
 0.31595799862E+02 0.40041455907E+02 0.48470647428E+02 0.55645484093E+02 0.60436719535E+02
 0.95414870138E+02 0.93095714019E+02 0.86357523406E+02 0.75901235594E+02 0.62963457720E+02
 0.49240074092E+02 0.36606306545E+02 0.26323499221E+02 0.18670533831E+02 0.13381390018E+02
 0.99313428114E+01 0.77713956826E+01 0.64553349185E+01 0.56695885288E+01 0.52112460094E+01
 0.49531794657E+01 0.48154039916E+01 0.47469971549E+01 0.47160494718E+01 0.47038016826E+01
 0.47006850133E+01 0.47038016826E+01 0.47160494718E+01 0.47469971549E+01 0.48154039916E+01
 0.49531794657E+01 0.52112460094E+01 0.56695885288E+01 0.64553349185E+01 0.77713956826E+01
 0.99313428114E+01 0.13381390018E+02 0.18670533831E+02 0.26323499221E+02 0.36606306545E+02
 0.49240074092E+02 0.62963457720E+02 0.75901235594E+02 0.86357523406E+02 0.93095714019E+02
 0.13193990698E+03 0.12934099521E+03 0.12157001845E+03 0.10890200105E+03 0.92255833939E+02
 0.73386919676E+02 0.54655978034E+02 0.38488187222E+02 0.26323499221E+02 0.17952601505E+02
 0.12569035187E+02 0.92704478864E+01 0.73084825336E+01 0.61599812009E+01 0.54953468052E+01
 0.51180864486E+01 0.49121375509E+01 0.48065745946E+01 0.47566453019E+01 0.47355036715E+01
 0.47297433824E+01 0.47355036715E+01 0.47566453019E+01 0.48065745946E+01 0.49121375509E+01
 0.51180864486E+01 0.54953468052E+01 0.61599812009E+01 0.73084825336E+01 0.92704478864E+01
 0.12569035187E+02 0.17952601505E+02 0.26323499221E+02 0.38488187222E+02 0.54655978034E+02
 0.73386919676E+02 0.92255833939E+02 0.10890200105E+03 0.12157001845E+03 0.12934099521E+03
 0.16256096665E+03 0.16045854816E+03 0.15370256752E+03 0.14144403576E+03 0.12350928244E+03
 0.10118494308E+03 0.77145209766E+02 0.54655978034E+02 0.36606306545E+02 0.24061303521E+02
 0.16038113989E+02 0.11195943785E+02 0.83765803708E+01 0.67617131603E+01 0.58407841592E+01
 0.53189396443E+01 0.50311573433E+01 0.48811583067E+01 0.48083099047E+01 0.47759681674E+01
 0.47667118735E+01 0.47759681674E+01 0.48083099047E+01 0.48811583067E+01 0.50311573433E+01
 0.53189396443E+01 0.58407841592E+01 0.67617131603E+01 0.83765803708E+01 0.11195943785E+02
 0.16038113989E+02 0.24061303521E+02 0.36606306545E+02 0.54655978034E+02 0.77145209766E+02
 0.10118494308E+03 0.12350928244E+03 0.14144403576E+03 0.15370256752E+03 0.16045854816E+03
 0.17672998550E+03 0.17630243212E+03 0.17372182695E+03 0.16606687872E+03 0.15097531365E+03
 0.12845504349E+03 0.10118494308E+03 0.73386919676E+02 0.49240074092E+02 0.31595799862E+02
 0.20280058178E+02 0.13507704880E+02 0.96288686831E+01 0.74516316347E+01 0.62311047534E+01
 0.55446229156E+01 0.51650178173E+01 0.49655068888E+01 0.48669938680E+01 0.48217105894E+01
 0.48082689720E+01 0.48217105894E+01 0.48669938680E+01 0.49655068888E+01 0.51650178173E+01
 0.55446229156E+01 0.62311047534E+01 0.74516316347E+01 0.96288686831E+01 0.13507704880E+02
 0.20280058178E+02 0.31595799862E+02 0.49240074092E+02 0.73386919676E+02 0.10118494308E+03
 0.12845504349E+03 0.15097531365E+03 0.16606687872E+03 0.17372182695E+03 0.17630243212E+03
 0.16703526067E+03 0.16960502087E+03 0.17479319830E+03 0.17664123690E+03 0.16943517332E+03
 0.15097531365E+03 0.12350928244E+03 0.92255833939E+02 0.62963457720E+02 0.40041455907E+02
 0.25023991053E+02 0.16060981071E+02 0.10985062957E+02 0.81830159011E+01 0.66380263045E+01
 0.57777199854E+01 0.53027957805E+01 0.50523414464E+01 0.49273892125E+01 0.48685060512E+01
 0.48505668520E+01 0.48685060512E+01 0.49273892125E+01 0.50523414464E+01 0.53027957805E+01
 0.57777199854E+01 0.66380263045E+01 0.81830159011E+01 0.10985062957E+02 0.16060981071E+02
 0.25023991053E+02 0.40041455907E+02 0.62963457720E+02 0.92255833939E+02 0.12350928244E+03
 0.15097531365E+03 0.16943517332E+03 0.17664123690E+03 0.17479319830E+03 0.16960502087E+03
 0.13434493335E+03 0.14089482456E+03 0.15657220319E+03 0.17177199980E+03 0.17664123690E+03
 0.16606687872E+03 0.14144403576E+03 0.10890200105E+03 0.75901235594E+02 0.48470647428E+02
 0.29772966496E+02 0.18598157279E+02 0.12312841330E+02 0.88861321712E+01 0.70229747935E+01
 0.59959531479E+01 0.54311238062E+01 0.51330516042E+01 0.49834130549E+01 0.49117029042E+01
 0.48894719989E+01 0.49117029042E+01 0.49834130549E+01 0.51330516042E+01 0.54311238062E+01
 0.59959531479E+01 0.70229747935E+01 0.88861321712E+01 0.12312841330E+02 0.18598157279E+02
 0.29772966496E+02 0.48470647428E+02 0.75901235594E+02 0.10890200105E+03 0.14144403576E+03
 0.16606687872E+03 0.17664123690E+03 0.17177199980E+03 0.15657220319E+03 0.14089482456E+03
 0.89925213566E+02 0.10058277095E+03 0.12718281450E+03 0.15657220319E+03 0.17479319830E+03
 0.17372182695E+03 0.15370256752E+03 0.12157001845E+03 0.86357523406E+02 0.55645484093E+02
 0.33874478553E+02 0.20781417024E+02 0.13443754510E+02 0.94766610115E+01 0.73419567426E+01
 0.61750972522E+01 0.55359273139E+01 0.51987857144E+01 0.50289349679E+01 0.49466893760E+01
 0.49209187360E+01 0.49466893760E+01 0.50289349679E+01 0.51987857144E+01 0.55359273139E+01
 0.61750972522E+01 0.73419567426E+01 0.94766610115E+01 0.13443754510E+02 0.20781417024E+02
 0.33874478553E+02 0.55645484093E+02 0.86357523406E+02 0.12157001845E+03 0.15370256752E+03
 0.17372182695E+03 0.17479319830E+03 0.15657220319E+03 0.12718281450E+03 0.10058277095E+03
 0.51898189697E+02 0.65667313045E+02 0.10058277095E+03 0.14089482456E+03 0.16960502087E+03
 0.17630243212E+03 0.16045854816E+03 0.12934099521E+03 0.93095714019E+02 0.60436719535E+02
 0.36667479566E+02 0.22266057623E+02 0.14207975261E+02 0.98719882799E+01 0.75534669813E+01
 0.62930569208E+01 0.56046621042E+01 0.52417940846E+01 0.50586610942E+01 0.49694955045E+01
 0.49413995331E+01 0.49694955045E+01 0.50586610942E+01 0.52417940846E+01 0.56046621042E+01
 0.62930569208E+01 0.75534669813E+01 0.98719882799E+01 0.14207975261E+02 0.22266057623E+02
 0.36667479566E+02 0.60436719535E+02 0.93095714019E+02 0.12934099521E+03 0.16045854816E+03
 0.17630243212E+03 0.16960502087E+03 0.14089482456E+03 0.10058277095E+03 0.65667313045E+02
 0.51898189697E+02 0.65667313045E+02 0.10058277095E+03 0.14089482456E+03 0.16960502087E+03
 0.17630243212E+03 0.16045854816E+03 0.12934099521E+03 0.93095714019E+02 0.60436719535E+02
 0.36667479566E+02 0.22266057623E+02 0.14207975261E+02 0.98719882799E+01 0.75534669813E+01
 0.62930569208E+01 0.56046621042E+01 0.52417940846E+01 0.50586610942E+01 0.49694955045E+01
 0.49413995331E+01 0.49694955045E+01 0.50586610942E+01 0.52417940846E+01 0.56046621042E+01
 0.62930569208E+01 0.75534669813E+01 0.98719882799E+01 0.14207975261E+02 0.22266057623E+02