   2   2   0   0
  0.6355286E+02  0.5027920E-09  0.5027920E-09  0.5027920E-09  0.5000000E-15
  1.000000000000000E-004
  CAR 
 Ba                                      
     25.43599850    -29.79194074  301      1.57344026      1.00000000
    -29.792  0.0000E+00  0.0000E+00
    -29.608  0.0000E+00  0.0000E+00
    -29.424  0.0000E+00  0.0000E+00
    -29.240  0.0000E+00  0.0000E+00
    -29.056  0.0000E+00  0.0000E+00
    -28.871  0.0000E+00  0.0000E+00
    -28.687  0.0000E+00  0.0000E+00
    -28.503  0.0000E+00  0.0000E+00
    -28.319  0.0000E+00  0.0000E+00
    -28.135  0.0000E+00  0.0000E+00
    -27.951  0.0000E+00  0.0000E+00
    -27.767  0.0000E+00  0.0000E+00
    -27.583  0.0000E+00  0.0000E+00
    -27.399  0.3865E-03  0.7115E-04
    -27.215  0.1651E+02  0.3039E+01
    -27.031  0.5218E+01  0.4000E+01
    -26.846  0.1704E-06  0.4000E+01
    -26.662  0.0000E+00  0.4000E+01
    -26.478  0.0000E+00  0.4000E+01
    -26.294  0.0000E+00  0.4000E+01
    -26.110  0.0000E+00  0.4000E+01
    -25.926  0.0000E+00  0.4000E+01
    -25.742  0.0000E+00  0.4000E+01
    -25.558  0.0000E+00  0.4000E+01
    -25.374  0.0000E+00  0.4000E+01
    -25.190  0.0000E+00  0.4000E+01
    -25.006  0.0000E+00  0.4000E+01
    -24.821  0.0000E+00  0.4000E+01
    -24.637  0.0000E+00  0.4000E+01
    -24.453  0.0000E+00  0.4000E+01
    -24.269  0.0000E+00  0.4000E+01
    -24.085  0.0000E+00  0.4000E+01
    -23.901  0.0000E+00  0.4000E+01
    -23.717  0.0000E+00  0.4000E+01
    -23.533  0.0000E+00  0.4000E+01
    -23.349  0.0000E+00  0.4000E+01
    -23.165  0.0000E+00  0.4000E+01
    -22.980  0.0000E+00  0.4000E+01
    -22.796  0.0000E+00  0.4000E+01
    -22.612  0.0000E+00  0.4000E+01
    -22.428  0.0000E+00  0.4000E+01
    -22.244  0.0000E+00  0.4000E+01
    -22.060  0.0000E+00  0.4000E+01
    -21.876  0.0000E+00  0.4000E+01
    -21.692  0.0000E+00  0.4000E+01
    -21.508  0.0000E+00  0.4000E+01
    -21.324  0.0000E+00  0.4000E+01
    -21.140  0.0000E+00  0.4000E+01
    -20.955  0.0000E+00  0.4000E+01
    -20.771  0.0000E+00  0.4000E+01
    -20.587  0.0000E+00  0.4000E+01
    -20.403  0.0000E+00  0.4000E+01
    -20.219  0.0000E+00  0.4000E+01
    -20.035  0.0000E+00  0.4000E+01
    -19.851  0.0000E+00  0.4000E+01
    -19.667  0.0000E+00  0.4000E+01
    -19.483  0.0000E+00  0.4000E+01
    -19.299  0.0000E+00  0.4000E+01
    -19.115  0.0000E+00  0.4000E+01
    -18.930  0.0000E+00  0.4000E+01
    -18.746  0.0000E+00  0.4000E+01
    -18.562  0.0000E+00  0.4000E+01
    -18.378  0.0000E+00  0.4000E+01
    -18.194  0.0000E+00  0.4000E+01
    -18.010  0.0000E+00  0.4000E+01
    -17.826  0.0000E+00  0.4000E+01
    -17.642  0.0000E+00  0.4000E+01
    -17.458  0.0000E+00  0.4000E+01
    -17.274  0.0000E+00  0.4000E+01
    -17.090  0.0000E+00  0.4000E+01
    -16.905  0.0000E+00  0.4000E+01
    -16.721  0.0000E+00  0.4000E+01
    -16.537  0.0000E+00  0.4000E+01
    -16.353  0.0000E+00  0.4000E+01
    -16.169  0.0000E+00  0.4000E+01
    -15.985  0.0000E+00  0.4000E+01
    -15.801  0.0000E+00  0.4000E+01
    -15.617  0.0000E+00  0.4000E+01
    -15.433  0.0000E+00  0.4000E+01
    -15.249  0.0000E+00  0.4000E+01
    -15.064  0.0000E+00  0.4000E+01
    -14.880  0.0000E+00  0.4000E+01
    -14.696  0.0000E+00  0.4000E+01
    -14.512  0.0000E+00  0.4000E+01
    -14.328  0.0000E+00  0.4000E+01
    -14.144  0.0000E+00  0.4000E+01
    -13.960  0.0000E+00  0.4000E+01
    -13.776  0.0000E+00  0.4000E+01
    -13.592  0.0000E+00  0.4000E+01
    -13.408  0.0000E+00  0.4000E+01
    -13.224  0.0000E+00  0.4000E+01
    -13.039  0.0000E+00  0.4000E+01
    -12.855  0.1007E-06  0.4000E+01
    -12.671  0.1249E+01  0.4230E+01
    -12.487  0.2105E+02  0.8105E+01
    -12.303  0.2844E+02  0.1334E+02
    -12.119  0.1445E+02  0.1600E+02
    -11.935  0.8007E-03  0.1600E+02
    -11.751  0.0000E+00  0.1600E+02
    -11.567  0.0000E+00  0.1600E+02
    -11.383  0.0000E+00  0.1600E+02
    -11.199  0.0000E+00  0.1600E+02
    -11.014  0.0000E+00  0.1600E+02
    -10.830  0.0000E+00  0.1600E+02
    -10.646  0.0000E+00  0.1600E+02
    -10.462  0.0000E+00  0.1600E+02
    -10.278  0.0000E+00  0.1600E+02
    -10.094  0.0000E+00  0.1600E+02
     -9.910  0.0000E+00  0.1600E+02
     -9.726  0.0000E+00  0.1600E+02
     -9.542  0.0000E+00  0.1600E+02
     -9.358  0.0000E+00  0.1600E+02
     -9.174  0.0000E+00  0.1600E+02
     -8.989  0.0000E+00  0.1600E+02
     -8.805  0.0000E+00  0.1600E+02
     -8.621  0.0000E+00  0.1600E+02
     -8.437  0.0000E+00  0.1600E+02
     -8.253  0.0000E+00  0.1600E+02
     -8.069  0.0000E+00  0.1600E+02
     -7.885  0.0000E+00  0.1600E+02
     -7.701  0.0000E+00  0.1600E+02
     -7.517  0.0000E+00  0.1600E+02
     -7.333  0.0000E+00  0.1600E+02
     -7.148  0.0000E+00  0.1600E+02
     -6.964  0.0000E+00  0.1600E+02
     -6.780  0.0000E+00  0.1600E+02
     -6.596  0.0000E+00  0.1600E+02
     -6.412  0.0000E+00  0.1600E+02
     -6.228  0.0000E+00  0.1600E+02
     -6.044  0.0000E+00  0.1600E+02
     -5.860  0.0000E+00  0.1600E+02
     -5.676  0.0000E+00  0.1600E+02
     -5.492  0.0000E+00  0.1600E+02
     -5.308  0.0000E+00  0.1600E+02
     -5.123  0.0000E+00  0.1600E+02
     -4.939  0.0000E+00  0.1600E+02
     -4.755  0.0000E+00  0.1600E+02
     -4.571  0.0000E+00  0.1600E+02
     -4.387  0.0000E+00  0.1600E+02
     -4.203  0.0000E+00  0.1600E+02
     -4.019  0.0000E+00  0.1600E+02
     -3.835  0.0000E+00  0.1600E+02
     -3.651  0.0000E+00  0.1600E+02
     -3.467  0.0000E+00  0.1600E+02
     -3.283  0.0000E+00  0.1600E+02
     -3.098  0.0000E+00  0.1600E+02
     -2.914  0.0000E+00  0.1600E+02
     -2.730  0.0000E+00  0.1600E+02
     -2.546  0.0000E+00  0.1600E+02
     -2.362  0.0000E+00  0.1600E+02
     -2.178  0.0000E+00  0.1600E+02
     -1.994  0.0000E+00  0.1600E+02
     -1.810  0.0000E+00  0.1600E+02
     -1.626  0.0000E+00  0.1600E+02
     -1.442  0.0000E+00  0.1600E+02
     -1.258  0.2595E-05  0.1600E+02
     -1.073  0.2056E-01  0.1600E+02
     -0.889  0.1527E+00  0.1603E+02
     -0.705  0.3222E+00  0.1609E+02
     -0.521  0.2083E+00  0.1613E+02
     -0.337  0.7272E+00  0.1626E+02
     -0.153  0.3428E+00  0.1633E+02
      0.031  0.6784E+00  0.1645E+02
      0.215  0.9167E+00  0.1662E+02
      0.399  0.9967E+00  0.1680E+02
      0.583  0.1163E+01  0.1702E+02
      0.768  0.1752E+01  0.1734E+02
      0.952  0.3614E+01  0.1801E+02
      1.136  0.1438E+01  0.1827E+02
      1.320  0.4055E+01  0.1902E+02
      1.504  0.3738E+01  0.1971E+02
      1.688  0.2250E+01  0.2012E+02
      1.872  0.2492E+01  0.2058E+02
      2.056  0.1984E+01  0.2094E+02
      2.240  0.6661E+01  0.2217E+02
      2.424  0.8518E+01  0.2374E+02
      2.608  0.6590E+01  0.2495E+02
      2.793  0.6711E+01  0.2619E+02
      2.977  0.2467E+01  0.2664E+02
      3.161  0.3263E+01  0.2724E+02
      3.345  0.1622E+01  0.2754E+02
      3.529  0.1624E+01  0.2784E+02
      3.713  0.1403E+01  0.2810E+02
      3.897  0.2460E+01  0.2855E+02
      4.081  0.2660E+01  0.2904E+02
      4.265  0.2896E+01  0.2957E+02
      4.449  0.3508E+01  0.3022E+02
      4.633  0.4053E+01  0.3096E+02
      4.818  0.4321E+01  0.3176E+02
      5.002  0.5481E+01  0.3277E+02
      5.186  0.5148E+01  0.3372E+02
      5.370  0.1142E+02  0.3582E+02
      5.554  0.6329E+01  0.3698E+02
      5.738  0.1674E+01  0.3729E+02
      5.922  0.8091E+00  0.3744E+02
      6.106  0.3780E+01  0.3814E+02
      6.290  0.8331E+00  0.3829E+02
      6.474  0.9772E+00  0.3847E+02
      6.658  0.3203E+01  0.3906E+02
      6.843  0.3266E+01  0.3966E+02
      7.027  0.1081E+01  0.3986E+02
      7.211  0.1396E+01  0.4012E+02
      7.395  0.2743E+01  0.4062E+02
      7.579  0.2915E+01  0.4116E+02
      7.763  0.3805E+01  0.4186E+02
      7.947  0.1353E+01  0.4211E+02
      8.131  0.4478E+01  0.4293E+02
      8.315  0.3059E+01  0.4350E+02
      8.499  0.5567E+01  0.4452E+02
      8.684  0.3693E+01  0.4520E+02
      8.868  0.2416E+01  0.4565E+02
      9.052  0.9265E+00  0.4582E+02
      9.236  0.4979E+01  0.4673E+02
      9.420  0.5945E+01  0.4783E+02
      9.604  0.3122E+01  0.4840E+02
      9.788  0.4612E+01  0.4925E+02
      9.972  0.2184E+01  0.4965E+02
     10.156  0.3338E+01  0.5027E+02
     10.340  0.1723E+01  0.5058E+02
     10.524  0.3084E+01  0.5115E+02
     10.709  0.2813E+01  0.5167E+02
     10.893  0.2775E+01  0.5218E+02
     11.077  0.1657E+01  0.5249E+02
     11.261  0.2408E+01  0.5293E+02
     11.445  0.5305E+01  0.5391E+02
     11.629  0.3010E+01  0.5446E+02
     11.813  0.4704E+01  0.5533E+02
     11.997  0.2615E+01  0.5581E+02
     12.181  0.2903E+01  0.5634E+02
     12.365  0.2042E+01  0.5672E+02
     12.549  0.3465E+01  0.5736E+02
     12.734  0.5340E+01  0.5834E+02
     12.918  0.4695E+01  0.5920E+02
     13.102  0.4366E+01  0.6001E+02
     13.286  0.1140E+01  0.6022E+02
     13.470  0.9720E+00  0.6040E+02
     13.654  0.3186E+01  0.6098E+02
     13.838  0.3984E+01  0.6171E+02
     14.022  0.5797E+01  0.6278E+02
     14.206  0.4444E+01  0.6360E+02
     14.390  0.6103E+01  0.6472E+02
     14.575  0.3465E+01  0.6536E+02
     14.759  0.2779E+01  0.6587E+02
     14.943  0.4282E+01  0.6666E+02
     15.127  0.4618E+01  0.6751E+02
     15.311  0.3245E+01  0.6811E+02
     15.495  0.3387E+01  0.6873E+02
     15.679  0.2778E+01  0.6924E+02
     15.863  0.3981E+01  0.6998E+02
     16.047  0.2991E+01  0.7053E+02
     16.231  0.2945E+01  0.7107E+02
     16.415  0.3888E+01  0.7179E+02
     16.600  0.5464E+01  0.7279E+02
     16.784  0.3378E+01  0.7341E+02
     16.968  0.4577E+01  0.7426E+02
     17.152  0.6251E+01  0.7541E+02
     17.336  0.4574E+01  0.7625E+02
     17.520  0.5401E+01  0.7724E+02
     17.704  0.4044E+01  0.7799E+02
     17.888  0.3430E+01  0.7862E+02
     18.072  0.3481E+01  0.7926E+02
     18.256  0.2993E+01  0.7981E+02
     18.440  0.5626E+01  0.8085E+02
     18.625  0.6073E+01  0.8196E+02
     18.809  0.3239E+01  0.8256E+02
     18.993  0.3693E+01  0.8324E+02
     19.177  0.6531E+01  0.8444E+02
     19.361  0.4161E+01  0.8521E+02
     19.545  0.4381E+01  0.8601E+02
     19.729  0.3781E+01  0.8671E+02
     19.913  0.5694E+01  0.8776E+02
     20.097  0.3678E+01  0.8844E+02
     20.281  0.3695E+01  0.8912E+02
     20.465  0.2847E+01  0.8964E+02
     20.650  0.2884E+01  0.9017E+02
     20.834  0.3877E+01  0.9089E+02
     21.018  0.3089E+01  0.9145E+02
     21.202  0.4815E+01  0.9234E+02
     21.386  0.5733E+01  0.9340E+02
     21.570  0.4674E+01  0.9426E+02
     21.754  0.4156E+01  0.9502E+02
     21.938  0.2226E+01  0.9543E+02
     22.122  0.9530E+00  0.9561E+02
     22.306  0.1819E+00  0.9564E+02
     22.491  0.7965E+00  0.9579E+02
     22.675  0.6435E+00  0.9591E+02
     22.859  0.3913E+00  0.9598E+02
     23.043  0.1236E+00  0.9600E+02
     23.227  0.5865E-04  0.9600E+02
     23.411  0.0000E+00  0.9600E+02
     23.595  0.0000E+00  0.9600E+02
     23.779  0.0000E+00  0.9600E+02
     23.963  0.0000E+00  0.9600E+02
     24.147  0.0000E+00  0.9600E+02
     24.331  0.0000E+00  0.9600E+02
     24.516  0.0000E+00  0.9600E+02
     24.700  0.0000E+00  0.9600E+02
     24.884  0.0000E+00  0.9600E+02
     25.068  0.0000E+00  0.9600E+02
     25.252  0.0000E+00  0.9600E+02
     25.436  0.0000E+00  0.9600E+02
