    2    2    1    1
  0.6355286E+02  0.5027920E-09  0.5027920E-09  0.5027920E-09  0.5000000E-15
  1.000000000000000E-004
  CAR 
 Ba                                      
     20     35     48
 
  0.0000000E+00  0.0000000E+00  0.0000000E+00  0.1953125E-02
      1        -27.281580   1.000000
      2        -27.208904   1.000000
      3        -12.546027   1.000000
      4        -12.546027   1.000000
      5        -12.546027   1.000000
      6        -12.236232   1.000000
      7        -12.236232   1.000000
      8        -12.236232   1.000000
      9         -1.127826   1.000000
     10          1.084197   1.000000
     11          1.084197   1.000000
     12          3.439032   0.000000
     13          3.439032   0.000000
     14          3.439032   0.000000
     15          4.826840   0.000000
     16          4.826840   0.000000
     17          5.934390   0.000000
     18          5.934390   0.000000
     19          5.934390   0.000000
     20          6.307502   0.000000
     21          6.307502   0.000000
     22          6.307502   0.000000
     23          8.526808   0.000000
     24          8.526808   0.000000
     25          8.526808   0.000000
     26          8.956185   0.000000
     27         12.460379   0.000000
     28         13.112669   0.000000
     29         13.112669   0.000000
     30         13.833541   0.000000
     31         13.833541   0.000000
     32         14.371780   0.000000
     33         14.371780   0.000000
     34         14.371780   0.000000
     35         17.401763   0.000000
     36         17.401763   0.000000
     37         17.401763   0.000000
     38         17.598728   0.000000
     39         19.170702   0.000000
     40         19.170702   0.000000
     41         19.170702   0.000000
     42         20.114503   0.000000
     43         20.114503   0.000000
     44         20.114503   0.000000
     45         20.458675   0.000000
     46         21.564146   0.000000
     47         21.564147   0.000000
     48         21.564154   0.000000
 
  0.1250000E+00  0.6898286E-32  0.0000000E+00  0.1171875E-01
      1        -27.278443   1.000000
      2        -27.211291   1.000000
      3        -12.546793   1.000000
      4        -12.534156   1.000000
      5        -12.534156   1.000000
      6        -12.261297   1.000000
      7        -12.247553   1.000000
      8        -12.247553   1.000000
      9         -0.982723   1.000000
     10          1.166673   1.000000
     11          1.175619   1.000000
     12          3.393825   0.000000
     13          3.393825   0.000000
     14          3.511771   0.000000
     15          4.501004   0.000000
     16          4.929551   0.000000
     17          5.146954   0.000000
     18          5.146954   0.000000
     19          5.534234   0.000000
     20          6.120480   0.000000
     21          7.265014   0.000000
     22          7.265014   0.000000
     23          8.815435   0.000000
     24          8.815435   0.000000
     25          8.913270   0.000000
     26          9.443530   0.000000
     27         12.056281   0.000000
     28         12.651111   0.000000
     29         12.751237   0.000000
     30         12.995358   0.000000
     31         14.006968   0.000000
     32         14.265456   0.000000
     33         14.265456   0.000000
     34         15.549547   0.000000
     35         16.994558   0.000000
     36         16.994558   0.000000
     37         17.378818   0.000000
     38         18.362987   0.000000
     39         18.462353   0.000000
     40         18.462353   0.000000
     41         18.820513   0.000000
     42         19.410009   0.000000
     43         19.410009   0.000000
     44         20.266373   0.000000
     45         21.003587   0.000000
     46         21.294667   0.000000
     47         21.417264   0.000000
     48         22.349567   0.000000
 
  0.2500000E+00  0.1379657E-31  0.0000000E+00  0.1171875E-01
      1        -27.269663   1.000000
      2        -27.218249   1.000000
      3        -12.542680   1.000000
      4        -12.499465   1.000000
      5        -12.499465   1.000000
      6        -12.326085   1.000000
      7        -12.279986   1.000000
      8        -12.279986   1.000000
      9         -0.571779   1.000000
     10          1.333844   1.000000
     11          1.412648   0.999997
     12          3.317728   0.000000
     13          3.317728   0.000000
     14          3.727391   0.000000
     15          3.801883   0.000000
     16          4.389105   0.000000
     17          4.389105   0.000000
     18          4.930869   0.000000
     19          5.198567   0.000000
     20          5.657974   0.000000
     21          8.522123   0.000000
     22          8.522123   0.000000
     23          9.607849   0.000000
     24          9.607849   0.000000
     25          9.761979   0.000000
     26          9.905801   0.000000
     27         10.158845   0.000000
     28         12.294923   0.000000
     29         12.662477   0.000000
     30         13.515900   0.000000
     31         13.824170   0.000000
     32         13.824170   0.000000
     33         14.553744   0.000000
     34         15.787256   0.000000
     35         15.787256   0.000000
     36         16.100020   0.000000
     37         17.290754   0.000000
     38         17.588959   0.000000
     39         17.588959   0.000000
     40         17.965936   0.000000
     41         18.613447   0.000000
     42         18.613447   0.000000
     43         18.639356   0.000000
     44         20.459681   0.000000
     45         20.727178   0.000000
     46         21.428222   0.000000
     47         22.642448   0.000000
     48         22.642449   0.000000
 
  0.3750000E+00  0.2100079E-31  0.0000000E+00  0.1171875E-01
      1        -27.256967   1.000000
      2        -27.229132   1.000000
      3        -12.522368   1.000000
      4        -12.448046   1.000000
      5        -12.448046   1.000000
      6        -12.406170   1.000000
      7        -12.329164   1.000000
      8        -12.329164   1.000000
      9          0.033800   1.000000
     10          1.226018   1.000000
     11          1.817159   0.000000
     12          3.047926   0.000000
     13          3.319560   0.000000
     14          3.319560   0.000000
     15          3.830262   0.000000
     16          3.830262   0.000000
     17          4.077236   0.000000
     18          4.807458   0.000000
     19          5.092195   0.000000
     20          5.435822   0.000000
     21          8.804382   0.000000
     22          9.225981   0.000000
     23          9.863367   0.000000
     24          9.863367   0.000000
     25         10.680762   0.000000
     26         10.708810   0.000000
     27         10.708810   0.000000
     28         12.152748   0.000000
     29         12.952716   0.000000
     30         12.952716   0.000000
     31         13.381040   0.000000
     32         14.196319   0.000000
     33         14.196319   0.000000
     34         14.555847   0.000000
     35         15.528245   0.000000
     36         16.311866   0.000000
     37         16.881081   0.000000
     38         17.115759   0.000000
     39         17.132334   0.000000
     40         17.294840   0.000000
     41         17.294840   0.000000
     42         17.990021   0.000000
     43         17.990021   0.000000
     44         18.682408   0.000000
     45         21.507959   0.000000
     46         22.716248   0.000000
     47         22.717230   0.000000
     48         22.717230   0.000000
 
  0.5000000E+00  0.2759315E-31  0.0000000E+00  0.5859375E-02
      1        -27.242672   1.000000
      2        -27.242672   1.000000
      3        -12.476631   1.000000
      4        -12.476631   1.000000
      5        -12.388127   1.000000
      6        -12.388127   1.000000
      7        -12.388127   1.000000
      8        -12.388127   1.000000
      9          0.708152   1.000000
     10          0.708152   1.000000
     11          2.369605   0.000000
     12          2.369605   0.000000
     13          3.477609   0.000000
     14          3.477609   0.000000
     15          3.477609   0.000000
     16          3.477609   0.000000
     17          4.543525   0.000000
     18          4.543525   0.000000
     19          5.216267   0.000000
     20          5.216267   0.000000
     21          8.542888   0.000000
     22          8.542888   0.000000
     23         11.063633   0.000000
     24         11.063633   0.000000
     25         11.063633   0.000000
     26         11.063633   0.000000
     27         11.490932   0.000000
     28         11.490932   0.000000
     29         12.763136   0.000000
     30         12.763136   0.000000
     31         12.763136   0.000000
     32         12.763136   0.000000
     33         15.045077   0.000000
     34         15.045077   0.000000
     35         15.713438   0.000000
     36         15.713438   0.000000
     37         16.880769   0.000000
     38         16.880769   0.000000
     39         16.937939   0.000000
     40         16.937939   0.000000
     41         17.505685   0.000000
     42         17.505685   0.000000
     43         17.505685   0.000000
     44         17.505685   0.000000
     45         22.607331   0.000000
     46         22.607331   0.000000
     47         22.925637   0.000000
     48         22.925638   0.000000
 
  0.1250000E+00  0.1250000E+00  0.0000000E+00  0.2343750E-01
      1        -27.275510   1.000000
      2        -27.213461   1.000000
      3        -12.566881   1.000000
      4        -12.522744   1.000000
      5        -12.503539   1.000000
      6        -12.306074   1.000000
      7        -12.257899   1.000000
      8        -12.236569   1.000000
      9         -0.843839   1.000000
     10          1.239945   1.000000
     11          1.272025   1.000000
     12          3.216574   0.000000
     13          3.287047   0.000000
     14          3.732367   0.000000
     15          4.472881   0.000000
     16          4.545204   0.000000
     17          4.657940   0.000000
     18          4.815244   0.000000
     19          5.975940   0.000000
     20          6.371916   0.000000
     21          7.178587   0.000000
     22          7.469795   0.000000
     23          8.825426   0.000000
     24          9.086828   0.000000
     25          9.411592   0.000000
     26         10.011071   0.000000
     27         11.988225   0.000000
     28         12.430164   0.000000
     29         12.439757   0.000000
     30         12.674768   0.000000
     31         13.044610   0.000000
     32         14.108710   0.000000
     33         14.794698   0.000000
     34         16.154266   0.000000
     35         16.637263   0.000000
     36         16.806913   0.000000
     37         17.328600   0.000000
     38         17.744627   0.000000
     39         18.437888   0.000000
     40         18.819061   0.000000
     41         18.887108   0.000000
     42         19.064476   0.000000
     43         19.380676   0.000000
     44         20.263306   0.000000
     45         21.090739   0.000000
     46         21.519510   0.000000
     47         21.659306   0.000000
     48         21.876873   0.000000
 
  0.2500000E+00  0.1250000E+00  0.0000000E+00  0.4687500E-01
      1        -27.267319   1.000000
      2        -27.219809   1.000000
      3        -12.578666   1.000000
      4        -12.490352   1.000000
      5        -12.457055   1.000000
      6        -12.381742   1.000000
      7        -12.287505   1.000000
      8        -12.251481   1.000000
      9         -0.452416   1.000000
     10          1.387608   1.000000
     11          1.503212   0.976503
     12          3.060207   0.000000
     13          3.062571   0.000000
     14          3.879190   0.000000
     15          3.996414   0.000000
     16          4.060177   0.000000
     17          4.147604   0.000000
     18          5.079528   0.000000
     19          5.544036   0.000000
     20          6.095073   0.000000
     21          7.962898   0.000000
     22          8.409732   0.000000
     23          9.173305   0.000000
     24          9.843060   0.000000
     25          9.978108   0.000000
     26         10.425586   0.000000
     27         10.726831   0.000000
     28         12.132175   0.000000
     29         12.472058   0.000000
     30         12.533072   0.000000
     31         13.540703   0.000000
     32         13.782943   0.000000
     33         14.874036   0.000000
     34         15.377520   0.000000
     35         15.909283   0.000000
     36         16.327693   0.000000
     37         17.113544   0.000000
     38         17.598790   0.000000
     39         17.644725   0.000000
     40         18.214151   0.000000
     41         18.522236   0.000000
     42         19.089900   0.000000
     43         19.870666   0.000000
     44         20.154702   0.000000
     45         20.489428   0.000000
     46         20.927410   0.000000
     47         21.514733   0.000000
     48         22.345675   0.000000
 
  0.3750000E+00  0.1250000E+00  0.0000000E+00  0.4687500E-01
      1        -27.255505   1.000000
      2        -27.229785   1.000000
      3        -12.568824   1.000000
      4        -12.463382   1.000000
      5        -12.442436   1.000000
      6        -12.401590   1.000000
      7        -12.332582   1.000000
      8        -12.289951   1.000000
      9          0.119579   1.000000
     10          1.263540   1.000000
     11          1.851282   0.000000
     12          2.747171   0.000000
     13          3.024837   0.000000
     14          3.482041   0.000000
     15          3.702438   0.000000
     16          3.770136   0.000000
     17          4.473561   0.000000
     18          5.134618   0.000000
     19          5.380058   0.000000
     20          5.543675   0.000000
     21          8.622457   0.000000
     22          8.683700   0.000000
     23          9.659125   0.000000
     24         10.013871   0.000000
     25         10.233431   0.000000
     26         10.899237   0.000000
     27         11.209654   0.000000
     28         11.776531   0.000000
     29         12.598341   0.000000
     30         12.624573   0.000000
     31         13.589276   0.000000
     32         14.078143   0.000000
     33         14.387419   0.000000
     34         14.936332   0.000000
     35         15.120057   0.000000
     36         16.298207   0.000000
     37         16.608553   0.000000
     38         16.830014   0.000000
     39         17.221561   0.000000
     40         17.663016   0.000000
     41         17.864161   0.000000
     42         18.382391   0.000000
     43         19.070735   0.000000
     44         19.793052   0.000000
     45         20.418321   0.000000
     46         20.660773   0.000000
     47         21.953525   0.000000
     48         22.492710   0.000000
 
  0.5000000E+00  0.1250000E+00  0.0000000E+00  0.2343750E-01
      1        -27.242263   1.000000
      2        -27.242263   1.000000
      3        -12.530130   1.000000
      4        -12.530130   1.000000
      5        -12.386982   1.000000
      6        -12.386982   1.000000
      7        -12.343154   1.000000
      8        -12.343154   1.000000
      9          0.754975   1.000000
     10          0.754975   1.000000
     11          2.301343   0.000000
     12          2.301343   0.000000
     13          3.157701   0.000000
     14          3.157701   0.000000
     15          3.685624   0.000000
     16          3.685624   0.000000
     17          4.976541   0.000000
     18          4.976541   0.000000
     19          5.271182   0.000000
     20          5.271182   0.000000
     21          8.379660   0.000000
     22          8.379660   0.000000
     23         10.529553   0.000000
     24         10.529553   0.000000
     25         10.906009   0.000000
     26         10.906009   0.000000
     27         11.377580   0.000000
     28         11.377580   0.000000
     29         12.724572   0.000000
     30         12.724572   0.000000
     31         13.110898   0.000000
     32         13.110898   0.000000
     33         15.038400   0.000000
     34         15.038400   0.000000
     35         16.069915   0.000000
     36         16.069915   0.000000
     37         16.137960   0.000000
     38         16.137960   0.000000
     39         17.129433   0.000000
     40         17.129433   0.000000
     41         17.528745   0.000000
     42         17.528745   0.000000
     43         19.253374   0.000000
     44         19.253374   0.000000
     45         21.151294   0.000000
     46         21.151294   0.000000
     47         21.263065   0.000000
     48         21.263065   0.000000
 
  0.2500000E+00  0.2500000E+00  0.0000000E+00  0.2343750E-01
      1        -27.260802   1.000000
      2        -27.224426   1.000000
      3        -12.615596   1.000000
      4        -12.467845   1.000000
      5        -12.464647   1.000000
      6        -12.397320   1.000000
      7        -12.309239   1.000000
      8        -12.237652   1.000000
      9         -0.125166   1.000000
     10          1.393228   1.000000
     11          1.787749   0.000000
     12          2.771601   0.000000
     13          2.782620   0.000000
     14          3.419370   0.000000
     15          3.516528   0.000000
     16          4.578164   0.000000
     17          4.586553   0.000000
     18          4.886038   0.000000
     19          5.962411   0.000000
     20          6.536049   0.000000
     21          7.588073   0.000000
     22          8.466213   0.000000
     23          8.828964   0.000000
     24          9.761550   0.000000
     25         10.352210   0.000000
     26         10.518838   0.000000
     27         11.331451   0.000000
     28         11.537294   0.000000
     29         12.094477   0.000000
     30         12.754932   0.000000
     31         13.124256   0.000000
     32         14.327049   0.000000
     33         14.344852   0.000000
     34         14.943728   0.000000
     35         16.103614   0.000000
     36         16.112350   0.000000
     37         16.878480   0.000000
     38         17.302541   0.000000
     39         17.650461   0.000000
     40         18.589818   0.000000
     41         18.618082   0.000000
     42         19.003379   0.000000
     43         19.620812   0.000000
     44         19.986414   0.000000
     45         20.644253   0.000000
     46         21.467125   0.000000
     47         21.806953   0.000000
     48         21.840728   0.000000
 
  0.3750000E+00  0.2500000E+00  0.0000000E+00  0.4687500E-01
      1        -27.251514   1.000000
      2        -27.231819   1.000000
      3        -12.627860   1.000000
      4        -12.549065   1.000000
      5        -12.426965   1.000000
      6        -12.342766   1.000000
      7        -12.338699   1.000000
      8        -12.251543   1.000000
      9          0.327199   1.000000
     10          1.197569   1.000000
     11          2.091303   0.000000
     12          2.562535   0.000000
     13          2.654663   0.000000
     14          2.972717   0.000000
     15          3.698192   0.000000
     16          4.389688   0.000000
     17          5.143475   0.000000
     18          5.226859   0.000000
     19          5.611497   0.000000
     20          6.289881   0.000000
     21          8.023958   0.000000
     22          8.267350   0.000000
     23          9.248665   0.000000
     24          9.323206   0.000000
     25          9.455385   0.000000
     26         11.378855   0.000000
     27         11.422135   0.000000
     28         11.782962   0.000000
     29         11.853469   0.000000
     30         12.869140   0.000000
     31         13.718103   0.000000
     32         14.162068   0.000000
     33         14.212991   0.000000
     34         14.487028   0.000000
     35         16.068218   0.000000
     36         16.650247   0.000000
     37         16.678651   0.000000
     38         16.928808   0.000000
     39         17.257690   0.000000
     40         17.943557   0.000000
     41         18.364505   0.000000
     42         18.540430   0.000000
     43         19.265145   0.000000
     44         19.507394   0.000000
     45         19.792618   0.000000
     46         21.618114   0.000000
     47         21.630366   0.000000
     48         21.669783   0.000000
 
  0.5000000E+00  0.2500000E+00  0.0000000E+00  0.2343750E-01
      1        -27.241273   1.000000
      2        -27.241273   1.000000
      3        -12.605976   1.000000
      4        -12.605976   1.000000
      5        -12.384072   1.000000
      6        -12.384072   1.000000
      7        -12.287730   1.000000
      8        -12.287730   1.000000
      9          0.801446   1.000000
     10          0.801446   1.000000
     11          2.353682   0.000000
     12          2.353682   0.000000
     13          2.714091   0.000000
     14          2.714091   0.000000
     15          4.112365   0.000000
     16          4.112365   0.000000
     17          5.369312   0.000000
     18          5.369312   0.000000
     19          5.735496   0.000000
     20          5.735496   0.000000
     21          8.060558   0.000000
     22          8.060558   0.000000
     23          9.195651   0.000000
     24          9.195651   0.000000
     25         10.389830   0.000000
     26         10.389830   0.000000
     27         11.644606   0.000000
     28         11.644606   0.000000
     29         12.952748   0.000000
     30         12.952748   0.000000
     31         13.582084   0.000000
     32         13.582084   0.000000
     33         14.252527   0.000000
     34         14.252527   0.000000
     35         16.714689   0.000000
     36         16.714689   0.000000
     37         16.957677   0.000000
     38         16.957677   0.000000
     39         17.399066   0.000000
     40         17.399066   0.000000
     41         17.855275   0.000000
     42         17.855275   0.000000
     43         19.019774   0.000000
     44         19.019774   0.000000
     45         20.208594   0.000000
     46         20.208594   0.000000
     47         21.712519   0.000000
     48         21.712519   0.000000
 
  0.3750000E+00  0.3750000E+00  0.0000000E+00  0.2343750E-01
      1        -27.246020   1.000000
      2        -27.235356   1.000000
      3        -12.663324   1.000000
      4        -12.621462   1.000000
      5        -12.405185   1.000000
      6        -12.359491   1.000000
      7        -12.286453   1.000000
      8        -12.238680   1.000000
      9          0.554205   1.000000
     10          0.986831   1.000000
     11          2.436852   0.000000
     12          2.460156   0.000000
     13          2.597463   0.000000
     14          2.598300   0.000000
     15          4.033743   0.000000
     16          4.817140   0.000000
     17          5.143981   0.000000
     18          5.653941   0.000000
     19          5.840462   0.000000
     20          6.714421   0.000000
     21          7.803831   0.000000
     22          7.857714   0.000000
     23          8.460981   0.000000
     24          8.481912   0.000000
     25          9.146220   0.000000
     26         10.692786   0.000000
     27         11.389020   0.000000
     28         12.440145   0.000000
     29         12.447926   0.000000
     30         12.780512   0.000000
     31         13.667302   0.000000
     32         14.316849   0.000000
     33         14.402440   0.000000
     34         14.818217   0.000000
     35         16.208596   0.000000
     36         16.260342   0.000000
     37         17.053782   0.000000
     38         17.139694   0.000000
     39         17.361452   0.000000
     40         17.557107   0.000000
     41         17.770132   0.000000
     42         17.968812   0.000000
     43         19.548933   0.000000
     44         19.934733   0.000000
     45         20.250748   0.000000
     46         21.125013   0.000000
     47         21.355077   0.000000
     48         21.506329   0.000000
 
  0.5000000E+00  0.3750000E+00  0.0000000E+00  0.2343750E-01
      1        -27.240283   1.000000
      2        -27.240283   1.000000
      3        -12.662214   1.000000
      4        -12.662214   1.000000
      5        -12.381263   1.000000
      6        -12.381263   1.000000
      7        -12.251539   1.000000
      8        -12.251539   1.000000
      9          0.763936   1.000000
     10          0.763936   1.000000
     11          2.414474   0.000000
     12          2.414474   0.000000
     13          2.648831   0.000000
     14          2.648831   0.000000
     15          4.561028   0.000000
     16          4.561028   0.000000
     17          5.387186   0.000000
     18          5.387186   0.000000
     19          6.453723   0.000000
     20          6.453723   0.000000
     21          7.677613   0.000000
     22          7.677613   0.000000
     23          8.155091   0.000000
     24          8.155091   0.000000
     25          9.744463   0.000000
     26          9.744463   0.000000
     27         11.713974   0.000000
     28         11.713974   0.000000
     29         13.549271   0.000000
     30         13.549271   0.000000
     31         14.032079   0.000000
     32         14.032079   0.000000
     33         14.175115   0.000000
     34         14.175115   0.000000
     35         16.459401   0.000000
     36         16.459401   0.000000
     37         16.497053   0.000000
     38         16.497053   0.000000
     39         17.292365   0.000000
     40         17.292365   0.000000
     41         18.770951   0.000000
     42         18.770951   0.000000
     43         19.331202   0.000000
     44         19.331202   0.000000
     45         20.429600   0.000000
     46         20.429600   0.000000
     47         21.272274   0.000000
     48         21.272274   0.000000
 
  0.5000000E+00  0.5000000E+00  0.0000000E+00  0.5859375E-02
      1        -27.239871   1.000000
      2        -27.239871   1.000000
      3        -12.682836   1.000000
      4        -12.682836   1.000000
      5        -12.380062   1.000000
      6        -12.380062   1.000000
      7        -12.239164   1.000000
      8        -12.239164   1.000000
      9          0.732554   1.000000
     10          0.732554   1.000000
     11          2.310727   0.000000
     12          2.310727   0.000000
     13          2.840162   0.000000
     14          2.840162   0.000000
     15          4.793835   0.000000
     16          4.793835   0.000000
     17          5.369227   0.000000
     18          5.369227   0.000000
     19          6.793236   0.000000
     20          6.793236   0.000000
     21          7.235108   0.000000
     22          7.235108   0.000000
     23          7.994028   0.000000
     24          7.994028   0.000000
     25          9.418672   0.000000
     26          9.418672   0.000000
     27         11.634378   0.000000
     28         11.634378   0.000000
     29         14.017785   0.000000
     30         14.017785   0.000000
     31         14.245729   0.000000
     32         14.245729   0.000000
     33         14.990408   0.000000
     34         14.990408   0.000000
     35         15.123565   0.000000
     36         15.123565   0.000000
     37         15.887154   0.000000
     38         15.887154   0.000000
     39         17.423905   0.000000
     40         17.423905   0.000000
     41         19.809608   0.000000
     42         19.809608   0.000000
     43         20.232064   0.000000
     44         20.232064   0.000000
     45         20.386031   0.000000
     46         20.386031   0.000000
     47         20.994857   0.000000
     48         20.994857   0.000000
 
  0.1250000E+00  0.1250000E+00  0.1250000E+00  0.1562500E-01
      1        -27.272766   1.000000
      2        -27.215433   1.000000
      3        -12.553954   1.000000
      4        -12.553954   1.000000
      5        -12.465506   1.000000
      6        -12.344196   1.000000
      7        -12.248678   1.000000
      8        -12.248678   1.000000
      9         -0.709120   1.000000
     10          1.341000   1.000000
     11          1.341000   1.000000
     12          3.116061   0.000000
     13          3.116061   0.000000
     14          3.770166   0.000000
     15          3.954735   0.000000
     16          4.678615   0.000000
     17          4.678615   0.000000
     18          5.244873   0.000000
     19          5.244873   0.000000
     20          7.044934   0.000000
     21          7.269918   0.000000
     22          7.269918   0.000000
     23          8.801911   0.000000
     24          9.554920   0.000000
     25          9.554920   0.000000
     26         10.476896   0.000000
     27         12.208041   0.000000
     28         12.208041   0.000000
     29         12.317732   0.000000
     30         12.317732   0.000000
     31         12.572099   0.000000
     32         13.364482   0.000000
     33         15.239386   0.000000
     34         16.293283   0.000000
     35         16.394571   0.000000
     36         16.394571   0.000000
     37         17.836404   0.000000
     38         17.836404   0.000000
     39         18.599970   0.000000
     40         18.599970   0.000000
     41         18.851881   0.000000
     42         18.851881   0.000000
     43         19.704673   0.000000
     44         20.047475   0.000000
     45         20.714784   0.000000
     46         21.594881   0.000000
     47         21.594881   0.000000
     48         21.752579   0.000000
 
  0.2500000E+00  0.1250000E+00  0.1250000E+00  0.4687500E-01
      1        -27.265120   1.000000
      2        -27.221220   1.000000
      3        -12.579472   1.000000
      4        -12.517173   1.000000
      5        -12.416983   1.000000
      6        -12.415713   1.000000
      7        -12.283379   1.000000
      8        -12.252940   1.000000