<?xml version="1.0" encoding="ISO-8859-1"?>
<modeling>
 <generator>
  <i name="program" type="string">vasp </i>
  <i name="version" type="string">6.4.3  </i>
  <i name="subversion" type="string">19Mar24 (build Jun 26 2024 13:02:28) complex                          parallel </i>
  <i name="platform" type="string">LinuxIFC </i>
  <i name="date" type="string">2025 08 08 </i>
  <i name="time" type="string">18:53:55 </i>
 </generator>
 <incar>
  <i type="string" name="SYSTEM">Ba</i>
  <i type="int" name="IBRION">    -1</i>
  <i type="int" name="ISYM">     2</i>
  <i name="ENCUT">    243.33530000</i>
  <i type="int" name="ISMEAR">     0</i>
  <i name="SIGMA">      0.05000000</i>
  <i type="logical" name="LWAVE"> T  </i>
  <i type="logical" name="LCHARG"> T  </i>
 </incar>
 <primitive_cell>
  <structure name="primitive_cell" >
   <crystal>
    <varray name="basis" >
     <v>       2.51396000       2.51396000      -2.51396000 </v>
     <v>      -2.51396000       2.51396000       2.51396000 </v>
     <v>       2.51396000      -2.51396000       2.51396000 </v>
    </varray>
    <i name="volume">     63.55285733 </i>
    <varray name="rec_basis" >
     <v>       0.19888940       0.19888940      -0.00000000 </v>
     <v>      -0.00000000       0.19888940       0.19888940 </v>
     <v>       0.19888940      -0.00000000       0.19888940 </v>
    </varray>
   </crystal>
   <varray name="positions" >
    <v>       0.00000000       0.00000000       0.00000000 </v>
   </varray>
  </structure>
  <varray name="primitive_index" >
   <v type="int" >        1 </v>
  </varray>
 </primitive_cell>
 <kpoints>
  <generation param="Gamma">
   <v type="int" name="divisions">       8        8        8 </v>
   <v name="usershift">      0.00000000       0.00000000       0.00000000 </v>
   <v name="genvec1">      0.12500000       0.00000000       0.00000000 </v>
   <v name="genvec2">      0.00000000       0.12500000       0.00000000 </v>
   <v name="genvec3">      0.00000000      -0.00000000       0.12500000 </v>
   <v name="shift">      0.00000000       0.00000000       0.00000000 </v>
  </generation>
  <varray name="kpointlist" >
   <v>       0.00000000       0.00000000       0.00000000 </v>
   <v>       0.12500000       0.00000000       0.00000000 </v>
   <v>       0.25000000       0.00000000       0.00000000 </v>
   <v>       0.37500000       0.00000000       0.00000000 </v>
   <v>       0.50000000       0.00000000       0.00000000 </v>
   <v>       0.12500000       0.12500000       0.00000000 </v>
   <v>       0.25000000       0.12500000       0.00000000 </v>
   <v>       0.37500000       0.12500000       0.00000000 </v>
   <v>       0.50000000       0.12500000       0.00000000 </v>
   <v>       0.25000000       0.25000000       0.00000000 </v>
   <v>       0.37500000       0.25000000       0.00000000 </v>
   <v>       0.50000000       0.25000000       0.00000000 </v>
   <v>       0.37500000       0.37500000       0.00000000 </v>
   <v>       0.50000000       0.37500000       0.00000000 </v>
   <v>       0.50000000       0.50000000       0.00000000 </v>
   <v>       0.12500000       0.12500000       0.12500000 </v>
   <v>       0.25000000       0.12500000       0.12500000 </v>
   <v>       0.37500000       0.12500000       0.12500000 </v>
   <v>       0.50000000       0.12500000       0.12500000 </v>
   <v>       0.25000000       0.25000000       0.12500000 </v>
   <v>       0.37500000       0.25000000       0.12500000 </v>
   <v>       0.50000000       0.25000000       0.12500000 </v>
   <v>       0.37500000       0.37500000       0.12500000 </v>
   <v>       0.50000000       0.37500000       0.12500000 </v>
   <v>       0.50000000       0.50000000       0.12500000 </v>
   <v>       0.25000000       0.25000000       0.25000000 </v>
   <v>       0.37500000       0.25000000       0.25000000 </v>
   <v>       0.50000000       0.25000000       0.25000000 </v>
   <v>       0.37500000       0.37500000       0.25000000 </v>
   <v>       0.50000000       0.37500000       0.25000000 </v>
   <v>       0.50000000       0.50000000       0.25000000 </v>
   <v>       0.37500000       0.37500000       0.37500000 </v>
   <v>       0.50000000       0.37500000       0.37500000 </v>
   <v>       0.50000000       0.50000000       0.37500000 </v>
   <v>       0.50000000       0.50000000       0.50000000 </v>
  </varray>
  <varray name="weights" >
   <v>       0.00195312 </v>
   <v>       0.01171875 </v>
   <v>       0.01171875 </v>
   <v>       0.01171875 </v>
   <v>       0.00585938 </v>
   <v>       0.02343750 </v>
   <v>       0.04687500 </v>
   <v>       0.04687500 </v>
   <v>       0.02343750 </v>
   <v>       0.02343750 </v>
   <v>       0.04687500 </v>
   <v>       0.02343750 </v>
   <v>       0.02343750 </v>
   <v>       0.02343750 </v>
   <v>       0.00585938 </v>
   <v>       0.01562500 </v>
   <v>       0.04687500 </v>
   <v>       0.04687500 </v>
   <v>       0.02343750 </v>
   <v>       0.04687500 </v>
   <v>       0.09375000 </v>
   <v>       0.04687500 </v>
   <v>       0.04687500 </v>
   <v>       0.04687500 </v>
   <v>       0.01171875 </v>
   <v>       0.01562500 </v>
   <v>       0.04687500 </v>
   <v>       0.02343750 </v>
   <v>       0.04687500 </v>
   <v>       0.04687500 </v>
   <v>       0.01171875 </v>
   <v>       0.01562500 </v>
   <v>       0.02343750 </v>
   <v>       0.01171875 </v>
   <v>       0.00195312 </v>
  </varray>
 </kpoints>
 <parameters>
  <separator name="general" >
   <i type="string" name="SYSTEM">Ba</i>
   <i type="logical" name="LCOMPAT"> F  </i>
  </separator>
  <separator name="electronic" >
   <i type="string" name="PREC">normal</i>
   <i name="ENMAX">    243.33530000</i>
   <i name="ENAUG">    351.16500000</i>
   <i name="EDIFF">      0.00010000</i>
   <i type="int" name="IALGO">    38</i>
   <i type="int" name="IWAVPR">    10</i>
   <i type="int" name="NBANDS">    48</i>
   <i type="int" name="NBANDSLOW">    -1</i>
   <i type="int" name="NBANDSHIGH">    -1</i>
   <i name="NELECT">     20.00000000</i>
   <i type="int" name="TURBO">     0</i>
   <i type="int" name="IRESTART">     0</i>
   <i type="int" name="NREBOOT">     0</i>
   <i type="int" name="NMIN">     0</i>
   <i name="EREF">      0.00000000</i>
   <separator name="electronic smearing" >
    <i type="int" name="ISMEAR">     0</i>
    <i name="SIGMA">      0.05000000</i>
    <i name="KSPACING">      0.50000000</i>
    <i type="logical" name="KGAMMA"> T  </i>
    <i type="logical" name="KBLOWUP"> T  </i>
   </separator>
   <separator name="electronic projectors" >
    <i type="logical" name="LREAL"> F  </i>
    <v name="ROPT">      0.00000000</v>
    <i type="int" name="LMAXPAW">  -100</i>
    <i type="int" name="LMAXMIX">     2</i>
    <i type="logical" name="NLSPLINE"> F  </i>
   </separator>
   <separator name="electronic startup" >
    <i type="int" name="ISTART">     1</i>
    <i type="int" name="ICHARG">     0</i>
    <i type="int" name="INIWAV">     1</i>
   </separator>
   <separator name="electronic spin" >
    <i type="int" name="ISPIN">     1</i>
    <i type="logical" name="LNONCOLLINEAR"> F  </i>
    <v name="MAGMOM">      1.00000000      1.00000000</v>
    <i name="NUPDOWN">     -1.00000000</i>
    <i type="logical" name="LSORBIT"> F  </i>
    <v name="SAXIS">      0.00000000      0.00000000      1.00000000</v>
    <i type="logical" name="LSPIRAL"> F  </i>
    <v name="QSPIRAL">      0.00000000      0.00000000      0.00000000</v>
    <i type="logical" name="LZEROZ"> F  </i>
   </separator>
   <separator name="electronic exchange-correlation" >
    <i type="logical" name="LASPH"> F  </i>
   </separator>
   <separator name="electronic convergence" >
    <i type="int" name="NELM">    60</i>
    <i type="int" name="NELMDL">     0</i>
    <i type="int" name="NELMIN">     2</i>
    <i name="ENINI">    243.33530000</i>
    <separator name="electronic convergence detail" >
     <i type="logical" name="LDIAG"> T  </i>
     <i type="logical" name="LSUBROT"> F  </i>
     <i name="WEIMIN">      0.00000000</i>
     <i name="EBREAK">      0.00000052</i>
     <i name="DEPER">      0.30000000</i>
     <i type="int" name="NRMM">     4</i>
     <i name="TIME">      0.40000000</i>
    </separator>
   </separator>
   <separator name="electronic mixer" >
    <i name="AMIX">      0.40000000</i>
    <i name="BMIX">      1.00000000</i>
    <i name="AMIN">      0.10000000</i>
    <i name="AMIX_MAG">      1.60000000</i>
    <i name="BMIX_MAG">      1.00000000</i>
    <separator name="electronic mixer details" >
     <i type="int" name="IMIX">     4</i>
     <i type="logical" name="MIXFIRST"> F  </i>
     <i type="int" name="MAXMIX">   -45</i>
     <i name="WC">    100.00000000</i>
     <i type="int" name="INIMIX">     1</i>
     <i type="int" name="MIXPRE">     1</i>
     <i type="int" name="MREMOVE">     5</i>
    </separator>
   </separator>
   <separator name="electronic dipolcorrection" >
    <i type="logical" name="LDIPOL"> F  </i>
    <i type="logical" name="LMONO"> F  </i>
    <i type="int" name="IDIPOL">     0</i>
    <i name="EPSILON">      1.00000000</i>
    <v name="DIPOL">   -100.00000000   -100.00000000   -100.00000000</v>
    <i name="EFIELD">      0.00000000</i>
    <i type="logical" name="LVACPOTAV"> F  </i>
   </separator>
  </separator>
  <separator name="grids" >
   <i type="int" name="NGX">    20</i>
   <i type="int" name="NGY">    20</i>
   <i type="int" name="NGZ">    20</i>
   <i type="int" name="NGXF">    40</i>
   <i type="int" name="NGYF">    40</i>
   <i type="int" name="NGZF">    40</i>
   <i type="logical" name="ADDGRID"> F  </i>
  </separator>
  <separator name="ionic" >
   <i type="int" name="NSW">     0</i>
   <i type="int" name="IBRION">    -1</i>
   <i type="int" name="MDALGO">     0</i>
   <i type="int" name="ISIF">     2</i>
   <i name="PSTRESS">      0.00000000</i>
   <i name="EDIFFG">      0.00100000</i>
   <i type="int" name="NFREE">     0</i>
   <i name="POTIM">      0.50000000</i>
   <i name="SMASS">     -3.00000000</i>
   <i name="SCALEE">      1.00000000</i>
  </separator>
  <separator name="ionic md" >
   <i name="TEBEG">      0.00010000</i>
   <i name="TEEND">      0.00010000</i>
   <i type="int" name="NBLOCK">     1</i>
   <i type="int" name="KBLOCK">     1</i>
   <i type="int" name="NPACO">   256</i>
   <i name="APACO">     10.00000000</i>
  </separator>
  <separator name="symmetry" >
   <i type="int" name="ISYM">     2</i>
   <i name="SYMPREC">      0.00001000</i>
  </separator>
  <separator name="dos" >
   <i type="int" name="LORBIT">     0</i>
   <v name="RWIGS">     -1.00000000</v>
   <i type="int" name="NEDOS">   301</i>
   <i name="EMIN">     10.00000000</i>
   <i name="EMAX">    -10.00000000</i>
   <i name="EFERMI">      0.00000000</i>
  </separator>
  <separator name="writing" >
   <i type="int" name="NWRITE">     2</i>
   <i type="logical" name="LWAVE"> T  </i>
   <i type="logical" name="LDOWNSAMPLE"> F  </i>
   <i type="logical" name="LCHARG"> T  </i>
   <i type="logical" name="LPARD"> F  </i>
   <i type="logical" name="LVTOT"> F  </i>
   <i type="logical" name="LVHAR"> F  </i>
   <i type="logical" name="LELF"> F  </i>
   <i type="logical" name="LOPTICS"> F  </i>
   <v name="STM">      0.00000000      0.00000000      0.00000000      0.00000000      0.00000000      0.00000000      0.00000000</v>
  </separator>
  <separator name="performance" >
   <i type="int" name="NPAR">    48</i>
   <i type="int" name="NSIM">     4</i>
   <i type="int" name="NBLK">    -1</i>
   <i type="logical" name="LPLANE"> T  </i>
   <i type="logical" name="LSCALAPACK"> T  </i>
   <i type="logical" name="LSCAAWARE"> T  </i>
   <i type="logical" name="LSCALU"> F  </i>
   <i type="logical" name="LASYNC"> F  </i>
   <i type="logical" name="LORBITALREAL"> F  </i>
  </separator>
  <separator name="miscellaneous" >
   <i type="int" name="IDIOT">     3</i>
   <i type="int" name="PHON_NSTRUCT">    -1</i>
   <i type="logical" name="LMUSIC"> F  </i>
   <v name="POMASS">    137.32700000</v>
   <v name="DARWINR">      0.00000000</v>
   <v name="DARWINV">      1.00000000</v>
   <i type="logical" name="LCORR"> T  </i>
  </separator>
  <i type="logical" name="GGA_COMPAT"> T  </i>
  <i type="logical" name="LBERRY"> F  </i>
  <i type="int" name="ICORELEVEL">     0</i>
  <i type="logical" name="LDAU"> F  </i>
  <i type="int" name="I_CONSTRAINED_M">     0</i>
  <separator name="electronic exchange-correlation" >
   <i type="string" name="GGA    ">PE</i>
   <i type="string" name="XC_C">1</i>
   <i type="int" name="VOSKOWN">     0</i>
   <i type="logical" name="LHFCALC"> F  </i>
   <i type="string" name="PRECFOCK"></i>
   <i type="logical" name="LSYMGRAD"> F  </i>
   <i type="logical" name="LHFONE"> F  </i>
   <i type="logical" name="LRHFCALC"> F  </i>
   <i type="logical" name="LTHOMAS"> F  </i>
   <i type="logical" name="LMODELHF"> F  </i>
   <i type="logical" name="LFOCKACE"> F  </i>
   <i name="ENCUT4O">     -1.00000000</i>
   <i type="int" name="EXXOEP">     0</i>
   <i type="int" name="FOURORBIT">     0</i>
   <i name="AEXX">      0.00000000</i>
   <i name="HFALPHA">      0.00000000</i>
   <i name="MCALPHA">      0.00000000</i>
   <i name="ALDAX">      1.00000000</i>
   <i name="AGGAX">      1.00000000</i>
   <i name="AMGGAX">      1.00000000</i>
   <i name="ALDAC">      1.00000000</i>
   <i name="AGGAC">      1.00000000</i>
   <i name="AMGGAC">      1.00000000</i>
   <i type="int" name="NKREDX">     1</i>
   <i type="int" name="NKREDY">     1</i>
   <i type="int" name="NKREDZ">     1</i>
   <i type="logical" name="SHIFTRED"> F  </i>
   <i type="logical" name="ODDONLY"> F  </i>
   <i type="logical" name="EVENONLY"> F  </i>
   <i type="int" name="LMAXFOCK">     0</i>
   <i type="int" name="NMAXFOCKAE">     0</i>
   <i type="logical" name="LFOCKAEDFT"> F  </i>
   <i name="HFSCREEN">      0.00000000</i>
   <i name="HFSCREENC">      0.00000000</i>
   <i type="int" name="NBANDSGWLOW">     0</i>
  </separator>
  <separator name="vdW DFT" >
   <i type="logical" name="LUSE_VDW"> F  </i>
   <i type="int" name="IVDW_NL">    -1</i>
   <i type="logical" name="LSPIN_VDW"> F  </i>
   <i name="ZAB_VDW">     -0.84910000</i>
   <i name="GAMMA_VDW">      1.39626340</i>
   <i name="ALPHA_VDW">      0.00000000</i>
   <i name="PARAM1">      0.12340000</i>
   <i name="PARAM2">      1.00000000</i>
   <i name="BPARAM">      6.30000000</i>
   <i name="CPARAM">      0.00930000</i>
  </separator>
  <separator name="model GW" >
   <i type="int" name="MODEL_GW">     0</i>
   <i name="MODEL_EPS0">     38.13171440</i>
   <i name="MODEL_ALPHA">      1.00000000</i>
  </separator>
  <separator name="linear response parameters" >
   <i type="logical" name="LEPSILON"> F  </i>
   <i type="logical" name="LRPA"> F  </i>
   <i type="logical" name="LNABLA"> F  </i>
   <i type="logical" name="LVEL"> F  </i>
   <i name="CSHIFT">      0.10000000</i>
   <i name="OMEGAMAX">     -1.00000000</i>
   <i name="DEG_THRESHOLD">      0.00200000</i>
   <i name="RTIME">     -0.10000000</i>
   <i name="WPLASMAI">      0.00000000</i>
   <v name="DFIELD">      0.00000000      0.00000000      0.00000000</v>
   <v name="WPLASMA">      0.00000000      0.00000000      0.00000000      0.00000000      0.00000000      0.00000000      0.00000000      0.00000000      0.00000000</v>
  </separator>
  <separator name="orbital magnetization" >
   <i type="logical" name="NUCIND"> F  </i>
   <v name="MAGPOS">      0.00000000      0.00000000      0.00000000</v>
   <i type="logical" name="LNICSALL"> T  </i>
   <i type="logical" name="ORBITALMAG"> F  </i>
   <i type="logical" name="LMAGBLOCH"> F  </i>
   <i type="logical" name="LCHIMAG"> F  </i>
   <i type="logical" name="LGAUGE"> T  </i>
   <i type="int" name="MAGATOM">     0</i>
   <v name="MAGDIPOL">      0.00000000      0.00000000      0.00000000</v>
   <v name="AVECCONST">      0.00000000      0.00000000      0.00000000</v>
  </separator>
  <separator name="response functions" >
   <i type="logical" name="LALL_IN_ONE"> F  </i>
   <i type="int" name="IALL_IN_ONE">    -1</i>
   <i type="int" name="NBANDS_WAVE">    -1</i>
   <i type="logical" name="LFINITE_TEMPERATURE"> F  </i>
   <i type="logical" name="LADDER"> F  </i>
   <i type="logical" name="LRPAFORCE"> F  </i>
   <i type="logical" name="LFXC"> F  </i>
   <i type="logical" name="LHARTREE"> T  </i>
   <i type="int" name="IBSE">     0</i>
   <v type="int" name="KPOINT">    -1     0     0     0</v>
   <i type="logical" name="LTCTC"> F  </i>
   <i type="logical" name="LTCTE"> F  </i>
   <i type="logical" name="LTETE"> F  </i>
   <i type="logical" name="LTRIPLET"> F  </i>
   <i type="logical" name="LFXCEPS"> F  </i>
   <i type="logical" name="LFXHEG"> F  </i>
   <i type="int" name="NATURALO">     2</i>
   <i type="logical" name="LHOLEGF"> F  </i>
   <i type="logical" name="L2ORDER"> F  </i>
   <i type="logical" name="LDMP1"> F  </i>
   <i type="logical" name="LMP2LT"> F  </i>
   <i type="logical" name="LSMP2LT"> F  </i>
   <i type="logical" name="LGWLF"> F  </i>
   <i name="ENCUTGW">     -1.60000002</i>
   <i name="ENCUTGWSOFT">     -1.60000002</i>
   <i name="ENCUTLF">     -1.00000000</i>
   <i type="logical" name="ESF_SPLINES"> F  </i>
   <i name="ESF_CONV">      0.01000000</i>
   <i type="int" name="ESF_NINTER">    15</i>
   <i type="int" name="LMAXMP2">    -1</i>
   <i name="SCISSOR">      0.00000000</i>
   <i type="int" name="NOMEGA">     0</i>
   <i type="int" name="NOMEGAR">     0</i>
   <i type="int" name="NBANDSGW">    -1</i>
   <i type="int" name="NBANDSO">    -1</i>
   <i type="int" name="NBANDSV">    -1</i>
   <i type="int" name="NELMGW">     1</i>
   <i type="int" name="NELMHF">     1</i>
   <i type="int" name="DIM">     3</i>
   <i type="int" name="IESPILON">     4</i>
   <i type="int" name="ANTIRES">     0</i>
   <i name="OMEGAMAX">    -30.00000000</i>
   <i name="OMEGAMIN">    -30.00000000</i>
   <i name="OMEGATL">   -200.00000000</i>
   <i type="int" name="OMEGAGRID">     0</i>
   <i name="CSHIFT">     -0.10000000</i>
   <i type="logical" name="LSELFENERGY"> F  </i>
   <i type="logical" name="LSPECTRAL"> F  </i>
   <i type="logical" name="LSPECTRALGW"> F  </i>
   <i type="logical" name="LSINGLES"> F  </i>
   <i type="logical" name="LFERMIGW"> F  </i>
   <i type="logical" name="ODDONLYGW"> F  </i>
   <i type="logical" name="EVENONLYGW"> F  </i>
   <i type="int" name="NKREDLFX">     1</i>
   <i type="int" name="NKREDLFY">     1</i>
   <i type="int" name="NKREDLFZ">     1</i>
   <i type="int" name="MAXMEM">  2800</i>
   <i type="int" name="TELESCOPE">     0</i>
   <i type="int" name="NTAUPAR">    -1</i>
   <i type="int" name="NOMEGAPAR">    -1</i>
   <i name="DAMP_NEWTON">      0.80000001</i>
   <i name="LAMBDA">      1.00000000</i>
  </separator>
  <separator name="External order field" >
   <i name="OFIELD_KAPPA">      0.00000000</i>
   <v name="OFIELD_K">      0.00000000      0.00000000      0.00000000</v>
   <i name="OFIELD_Q6_NEAR">      0.00000000</i>
   <i name="OFIELD_Q6_FAR">      0.00000000</i>
   <i name="OFIELD_A">      0.00000000</i>
  </separator>
  <separator name="optional k-points parameters" >
   <i type="int" name="KPOINTS_OPT_MODE">     1</i>
   <i type="logical" name="LKPOINTS_OPT"> T  </i>
  </separator>
 </parameters>
 <atominfo>
  <atoms>       2 </atoms>
  <types>       1 </types>
  <array name="atoms" >
   <dimension dim="1">ion</dimension>
   <field type="string">element</field>
   <field type="int">atomtype</field>
   <set>
    <rc><c>Ba</c><c>   1</c></rc>
    <rc><c>Ba</c><c>   1</c></rc>
   </set>
  </array>
  <array name="atomtypes" >
   <dimension dim="1">type</dimension>
   <field type="int">atomspertype</field>
   <field type="string">element</field>
   <field>mass</field>
   <field>valence</field>
   <field type="string">pseudopotential</field>
   <set>
    <rc><c>   2</c><c>Ba</c><c>    137.32700000</c><c>     10.00000000</c><c>PAW_PBE Ba_sv 06Sep2000                 </c></rc>
   </set>
  </array>
 </atominfo>
 <structure name="initialpos" >
  <crystal>
   <varray name="basis" >
    <v>       5.02792000       0.00000000       0.00000000 </v>
    <v>       0.00000000       5.02792000       0.00000000 </v>
    <v>       0.00000000       0.00000000       5.02792000 </v>
   </varray>
   <i name="volume">    127.10571466 </i>
   <varray name="rec_basis" >
    <v>       0.19888940      -0.00000000       0.00000000 </v>
    <v>       0.00000000       0.19888940       0.00000000 </v>
    <v>      -0.00000000      -0.00000000       0.19888940 </v>
   </varray>
  </crystal>
  <varray name="positions" >
   <v>       0.00000000       0.00000000       0.00000000 </v>
   <v>       0.50000000       0.50000000       0.50000000 </v>
  </varray>
 </structure>
 <calculation>
  <scstep>
   <time name="dav">    0.38    0.38</time>
   <time name="total">    0.40    0.40</time>
   <energy>
    <i name="alphaZ">     82.58458896 </i>
    <i name="ewald">  -1042.26374757 </i>
    <i name="hartreedc">   -242.71835141 </i>
    <i name="XCdc">     48.87856786 </i>
    <i name="pawpsdc">   1166.48026282 </i>
    <i name="pawaedc">  -1163.83095416 </i>
    <i name="eentropy">     -0.00390370 </i>
    <i name="bandstr">   -254.64363482 </i>
    <i name="atom">   1401.69262872 </i>
    <i name="e_fr_energy">     -3.82454329 </i>
    <i name="e_wo_entrp">     -3.82063959 </i>
    <i name="e_0_energy">     -3.82259144 </i>
   </energy>
  </scstep>
  <scstep>
   <time name="dav">    0.25    0.25</time>
   <time name="total">    0.26    0.26</time>
   <energy>
    <i name="alphaZ">     82.58458896 </i>
    <i name="ewald">  -1042.26374757 </i>
    <i name="hartreedc">   -242.70939530 </i>
    <i name="XCdc">     48.87816480 </i>
    <i name="pawpsdc">   1166.48667976 </i>
    <i name="pawaedc">  -1163.83826388 </i>
    <i name="eentropy">     -0.00390336 </i>
    <i name="bandstr">   -254.65129476 </i>
    <i name="atom">   1401.69262872 </i>
    <i name="e_fr_energy">     -3.82454262 </i>
    <i name="e_wo_entrp">     -3.82063926 </i>
    <i name="e_0_energy">     -3.82259094 </i>
   </energy>
  </scstep>
  <structure>
   <crystal>
    <varray name="basis" >
     <v>       5.02792000       0.00000000       0.00000000 </v>
     <v>       0.00000000       5.02792000       0.00000000 </v>
     <v>       0.00000000       0.00000000       5.02792000 </v>
    </varray>
    <i name="volume">    127.10571466 </i>
    <varray name="rec_basis" >
     <v>       0.19888940      -0.00000000       0.00000000 </v>
     <v>       0.00000000       0.19888940       0.00000000 </v>
     <v>      -0.00000000      -0.00000000       0.19888940 </v>
    </varray>
   </crystal>
   <varray name="positions" >
    <v>       0.00000000       0.00000000       0.00000000 </v>
    <v>       0.50000000       0.50000000       0.50000000 </v>
   </varray>
  </structure>
  <varray name="forces" >
   <v>      -0.00000000       0.00000000       0.00000000 </v>
   <v>       0.00000000      -0.00000000      -0.00000000 </v>
  </varray>
  <varray name="stress" >
   <v>      -1.46310986       0.00000000      -0.00000000 </v>
   <v>      -0.00000000      -1.46310986      -0.00000000 </v>
   <v>       0.00000000       0.00000000      -1.46310986 </v>
  </varray>
  <energy>
   <i name="e_fr_energy">     -3.82454262 </i>
   <i name="e_wo_entrp">     -3.82063926 </i>
   <i name="e_0_energy">     -3.82259094 </i>
  </energy>
  <dos comment="kpoints_opt">
   <i name="efermi">      1.75133146 </i>
   <total>
    <array>
     <dimension dim="1">gridpoints</dimension>
     <dimension dim="2">spin</dimension>
     <field>energy</field>
     <field>total</field>
     <field>integrated</field>
     <set>
      <set comment="spin 1">
       <r>   -29.7919     0.0000     0.0000 </r>
       <r>   -29.6078     0.0000     0.0000 </r>
       <r>   -29.4238     0.0000     0.0000 </r>
       <r>   -29.2397     0.0000     0.0000 </r>
       <r>   -29.0556     0.0000     0.0000 </r>
       <r>   -28.8715     0.0000     0.0000 </r>
       <r>   -28.6874     0.0000     0.0000 </r>
       <r>   -28.5033     0.0000     0.0000 </r>
       <r>   -28.3192     0.0000     0.0000 </r>
       <r>   -28.1351     0.0000     0.0000 </r>
       <r>   -27.9510     0.0000     0.0000 </r>
       <r>   -27.7669     0.0000     0.0000 </r>
       <r>   -27.5828     0.0000     0.0000 </r>
       <r>   -27.3987     0.0012     0.0002 </r>
       <r>   -27.2146    16.3691     3.0137 </r>
       <r>   -27.0305     5.3578     4.0000 </r>
       <r>   -26.8465     0.0000     4.0000 </r>
       <r>   -26.6624     0.0000     4.0000 </r>
       <r>   -26.4783     0.0000     4.0000 </r>
       <r>   -26.2942     0.0000     4.0000 </r>
       <r>   -26.1101     0.0000     4.0000 </r>
       <r>   -25.9260     0.0000     4.0000 </r>
       <r>   -25.7419     0.0000     4.0000 </r>
       <r>   -25.5578     0.0000     4.0000 </r>
       <r>   -25.3737     0.0000     4.0000 </r>
       <r>   -25.1896     0.0000     4.0000 </r>
       <r>   -25.0055     0.0000     4.0000 </r>
       <r>   -24.8214     0.0000     4.0000 </r>
       <r>   -24.6373     0.0000     4.0000 </r>
       <r>   -24.4532     0.0000     4.0000 </r>
       <r>   -24.2691     0.0000     4.0000 </r>
       <r>   -24.0851     0.0000     4.0000 </r>
       <r>   -23.9010     0.0000     4.0000 </r>
       <r>   -23.7169     0.0000     4.0000 </r>
       <r>   -23.5328     0.0000     4.0000 </r>
       <r>   -23.3487     0.0000     4.0000 </r>
       <r>   -23.1646     0.0000     4.0000 </r>
       <r>   -22.9805     0.0000     4.0000 </r>
       <r>   -22.7964     0.0000     4.0000 </r>
       <r>   -22.6123     0.0000     4.0000 </r>
       <r>   -22.4282     0.0000     4.0000 </r>
       <r>   -22.2441     0.0000     4.0000 </r>
       <r>   -22.0600     0.0000     4.0000 </r>
       <r>   -21.8759     0.0000     4.0000 </r>
       <r>   -21.6918     0.0000     4.0000 </r>
       <r>   -21.5077     0.0000     4.0000 </r>
       <r>   -21.3237     0.0000     4.0000 </r>
       <r>   -21.1396     0.0000     4.0000 </r>
       <r>   -20.9555     0.0000     4.0000 </r>
       <r>   -20.7714     0.0000     4.0000 </r>
       <r>   -20.5873     0.0000     4.0000 </r>
       <r>   -20.4032     0.0000     4.0000 </r>
       <r>   -20.2191     0.0000     4.0000 </r>
       <r>   -20.0350     0.0000     4.0000 </r>
       <r>   -19.8509     0.0000     4.0000 </r>
       <r>   -19.6668     0.0000     4.0000 </r>
       <r>   -19.4827     0.0000     4.0000 </r>
       <r>   -19.2986     0.0000     4.0000 </r>
       <r>   -19.1145     0.0000     4.0000 </r>
       <r>   -18.9304     0.0000     4.0000 </r>
       <r>   -18.7464     0.0000     4.0000 </r>
       <r>   -18.5623     0.0000     4.0000 </r>
       <r>   -18.3782     0.0000     4.0000 </r>
       <r>   -18.1941     0.0000     4.0000 </r>
       <r>   -18.0100     0.0000     4.0000 </r>
       <r>   -17.8259     0.0000     4.0000 </r>
       <r>   -17.6418     0.0000     4.0000 </r>
       <r>   -17.4577     0.0000     4.0000 </r>
       <r>   -17.2736     0.0000     4.0000 </r>
       <r>   -17.0895     0.0000     4.0000 </r>
       <r>   -16.9054     0.0000     4.0000 </r>
       <r>   -16.7213     0.0000     4.0000 </r>
       <r>   -16.5372     0.0000     4.0000 </r>
       <r>   -16.3531     0.0000     4.0000 </r>
       <r>   -16.1690     0.0000     4.0000 </r>
       <r>   -15.9850     0.0000     4.0000 </r>
       <r>   -15.8009     0.0000     4.0000 </r>
       <r>   -15.6168     0.0000     4.0000 </r>
       <r>   -15.4327     0.0000     4.0000 </r>
       <r>   -15.2486     0.0000     4.0000 </r>
       <r>   -15.0645     0.0000     4.0000 </r>
       <r>   -14.8804     0.0000     4.0000 </r>
       <r>   -14.6963     0.0000     4.0000 </r>
       <r>   -14.5122     0.0000     4.0000 </r>
       <r>   -14.3281     0.0000     4.0000 </r>
       <r>   -14.1440     0.0000     4.0000 </r>
       <r>   -13.9599     0.0000     4.0000 </r>
       <r>   -13.7758     0.0000     4.0000 </r>
       <r>   -13.5917     0.0000     4.0000 </r>
       <r>   -13.4077     0.0000     4.0000 </r>
       <r>   -13.2236     0.0000     4.0000 </r>
       <r>   -13.0395     0.0000     4.0000 </r>
       <r>   -12.8554     0.0000     4.0000 </r>
       <r>   -12.6713     0.0572     4.0105 </r>
       <r>   -12.4872    22.9625     8.2378 </r>
       <r>   -12.3031    29.2188    13.6167 </r>
       <r>   -12.1190    12.9443    15.9997 </r>
       <r>   -11.9349     0.0016    16.0000 </r>
       <r>   -11.7508     0.0000    16.0000 </r>
       <r>   -11.5667     0.0000    16.0000 </r>
       <r>   -11.3826     0.0000    16.0000 </r>
       <r>   -11.1985     0.0000    16.0000 </r>
       <r>   -11.0144     0.0000    16.0000 </r>
       <r>   -10.8303     0.0000    16.0000 </r>
       <r>   -10.6463     0.0000    16.0000 </r>
       <r>   -10.4622     0.0000    16.0000 </r>
       <r>   -10.2781     0.0000    16.0000 </r>
       <r>   -10.0940     0.0000    16.0000 </r>
       <r>    -9.9099     0.0000    16.0000 </r>
       <r>    -9.7258     0.0000    16.0000 </r>
       <r>    -9.5417     0.0000    16.0000 </r>
       <r>    -9.3576     0.0000    16.0000 </r>
       <r>    -9.1735     0.0000    16.0000 </r>
       <r>    -8.9894     0.0000    16.0000 </r>
       <r>    -8.8053     0.0000    16.0000 </r>
       <r>    -8.6212     0.0000    16.0000 </r>
       <r>    -8.4371     0.0000    16.0000 </r>
       <r>    -8.2530     0.0000    16.0000 </r>
       <r>    -8.0690     0.0000    16.0000 </r>
       <r>    -7.8849     0.0000    16.0000 </r>
       <r>    -7.7008     0.0000    16.0000 </r>
       <r>    -7.5167     0.0000    16.0000 </r>
       <r>    -7.3326     0.0000    16.0000 </r>
       <r>    -7.1485     0.0000    16.0000 </r>
       <r>    -6.9644     0.0000    16.0000 </r>
       <r>    -6.7803     0.0000    16.0000 </r>
       <r>    -6.5962     0.0000    16.0000 </r>
       <r>    -6.4121     0.0000    16.0000 </r>
       <r>    -6.2280     0.0000    16.0000 </r>
       <r>    -6.0439     0.0000    16.0000 </r>
       <r>    -5.8598     0.0000    16.0000 </r>
       <r>    -5.6757     0.0000    16.0000 </r>
       <r>    -5.4916     0.0000    16.0000 </r>
       <r>    -5.3076     0.0000    16.0000 </r>
       <r>    -5.1235     0.0000    16.0000 </r>
       <r>    -4.9394     0.0000    16.0000 </r>
       <r>    -4.7553     0.0000    16.0000 </r>
       <r>    -4.5712     0.0000    16.0000 </r>
       <r>    -4.3871     0.0000    16.0000 </r>
       <r>    -4.2030     0.0000    16.0000 </r>
       <r>    -4.0189     0.0000    16.0000 </r>
       <r>    -3.8348     0.0000    16.0000 </r>
       <r>    -3.6507     0.0000    16.0000 </r>
       <r>    -3.4666     0.0000    16.0000 </r>
       <r>    -3.2825     0.0000    16.0000 </r>
       <r>    -3.0984     0.0000    16.0000 </r>
       <r>    -2.9143     0.0000    16.0000 </r>
       <r>    -2.7303     0.0000    16.0000 </r>
       <r>    -2.5462     0.0000    16.0000 </r>
       <r>    -2.3621     0.0000    16.0000 </r>
       <r>    -2.1780     0.0000    16.0000 </r>
       <r>    -1.9939     0.0000    16.0000 </r>
       <r>    -1.8098     0.0000    16.0000 </r>
       <r>    -1.6257     0.0000    16.0000 </r>
       <r>    -1.4416     0.0000    16.0000 </r>
       <r>    -1.2575     0.0000    16.0000 </r>
       <r>    -1.0734     0.8676    16.1597 </r>
       <r>    -0.8893     1.0056    16.3449 </r>
       <r>    -0.7052     0.6253    16.4600 </r>
       <r>    -0.5211     0.5125    16.5543 </r>
       <r>    -0.3370     0.4539    16.6379 </r>
       <r>    -0.1529     0.4186    16.7149 </r>
       <r>     0.0311     0.3948    16.7876 </r>
       <r>     0.2152     0.3795    16.8575 </r>
       <r>     0.3993     0.3733    16.9262 </r>
       <r>     0.5834     0.3758    16.9954 </r>
       <r>     0.7675     1.7273    17.3134 </r>
       <r>     0.9516     1.7602    17.6374 </r>
       <r>     1.1357     3.4001    18.2633 </r>
       <r>     1.3198     4.2685    19.0491 </r>
       <r>     1.5039     2.4716    19.5042 </r>
       <r>     1.6880     1.7674    19.8295 </r>
       <r>     1.8721     2.5727    20.3031 </r>
       <r>     2.0562     3.1697    20.8866 </r>
       <r>     2.2403    14.1365    23.4891 </r>
       <r>     2.4244     4.4658    24.3112 </r>
       <r>     2.6085     1.8269    24.6475 </r>
       <r>     2.7925     1.4834    24.9206 </r>
       <r>     2.9766     1.3643    25.1717 </r>
       <r>     3.1607     1.3300    25.4166 </r>
       <r>     3.3448     4.3055    26.2092 </r>
       <r>     3.5289     8.9410    27.8552 </r>
       <r>     3.7130     3.0905    28.4241 </r>
       <r>     3.8971     2.2496    28.8382 </r>
       <r>     4.0812     1.9473    29.1967 </r>
       <r>     4.2653     1.7858    29.5255 </r>
       <r>     4.4494     1.6924    29.8370 </r>
       <r>     4.6335     2.4110    30.2809 </r>
       <r>     4.8176     5.8498    31.3578 </r>
       <r>     5.0017     6.5512    32.5638 </r>
       <r>     5.1858     6.5408    33.7679 </r>
       <r>     5.3698     9.6474    35.5440 </r>
       <r>     5.5539    10.0292    37.3903 </r>
       <r>     5.7380     2.6061    37.8700 </r>
       <r>     5.9221     2.8951    38.4030 </r>
       <r>     6.1062     1.9066    38.7540 </r>
       <r>     6.2903     1.8360    39.0920 </r>
       <r>     6.4744     2.4398    39.5411 </r>
       <r>     6.6585     2.0788    39.9238 </r>
       <r>     6.8426     1.7176    40.2400 </r>
       <r>     7.0267     1.3403    40.4868 </r>
       <r>     7.2108     0.8801    40.6488 </r>
       <r>     7.3949     1.2518    40.8792 </r>
       <r>     7.5790     1.7677    41.2047 </r>
       <r>     7.7631     1.6098    41.5010 </r>
       <r>     7.9472     1.7691    41.8267 </r>
       <r>     8.1312     3.1975    42.4153 </r>
       <r>     8.3153     4.3473    43.2156 </r>
       <r>     8.4994     5.4037    44.2104 </r>
       <r>     8.6835     7.2628    45.5475 </r>
       <r>     8.8676     4.3277    46.3442 </r>
       <r>     9.0517     4.3070    47.1371 </r>
       <r>     9.2358     3.6170    47.8029 </r>
       <r>     9.4199     3.0757    48.3691 </r>
       <r>     9.6040     2.8746    48.8983 </r>
       <r>     9.7881     2.9443    49.4404 </r>
       <r>     9.9722     3.2129    50.0318 </r>
       <r>    10.1563     1.6671    50.3387 </r>
       <r>    10.3404     1.6328    50.6393 </r>
       <r>    10.5245     1.6241    50.9383 </r>
       <r>    10.7085     1.6962    51.2506 </r>
       <r>    10.8926     1.8834    51.5973 </r>
       <r>    11.0767     3.2025    52.1869 </r>
       <r>    11.2608     4.8757    53.0844 </r>
       <r>    11.4449     3.3679    53.7044 </r>
       <r>    11.6290     2.4387    54.1534 </r>
       <r>    11.8131     1.5348    54.4359 </r>
       <r>    11.9972     1.4295    54.6991 </r>
       <r>    12.1813     1.9669    55.0612 </r>
       <r>    12.3654     2.5666    55.5337 </r>
       <r>    12.5495     3.9800    56.2664 </r>
       <r>    12.7336     7.0253    57.5597 </r>
       <r>    12.9177     7.1628    58.8783 </r>
       <r>    13.1018     5.5424    59.8986 </r>
       <r>    13.2859     3.1838    60.4848 </r>
       <r>    13.4699     2.4503    60.9358 </r>
       <r>    13.6540     2.4358    61.3843 </r>
       <r>    13.8381     2.8642    61.9115 </r>
       <r>    14.0222     4.3007    62.7033 </r>
       <r>    14.2063     5.5963    63.7335 </r>
       <r>    14.3904     6.5642    64.9419 </r>
       <r>    14.5745     4.2805    65.7299 </r>
       <r>    14.7586     3.3749    66.3512 </r>
       <r>    14.9427     4.0824    67.1027 </r>
       <r>    15.1268     4.6354    67.9561 </r>
       <r>    15.3109     2.9326    68.4960 </r>
       <r>    15.4950     3.7894    69.1936 </r>
       <r>    15.6791     3.2983    69.8008 </r>
       <r>    15.8632     3.9036    70.5194 </r>
       <r>    16.0472     2.6792    71.0126 </r>
       <r>    16.2313     3.8999    71.7305 </r>
       <r>    16.4154     3.6399    72.4006 </r>
       <r>    16.5995     3.3188    73.0116 </r>
       <r>    16.7836     3.1449    73.5906 </r>
       <r>    16.9677     3.9853    74.3242 </r>
       <r>    17.1518     3.1655    74.9070 </r>
       <r>    17.3359     4.7851    75.7879 </r>
       <r>    17.5200     6.7937    77.0386 </r>
       <r>    17.7041     4.9144    77.9433 </r>
       <r>    17.8882     4.2323    78.7224 </r>
       <r>    18.0723     3.0141    79.2773 </r>
       <r>    18.2564     2.3466    79.7093 </r>
       <r>    18.4405     2.5061    80.1706 </r>
       <r>    18.6246     2.9114    80.7066 </r>
       <r>    18.8086     5.7596    81.7669 </r>
       <r>    18.9927     5.2739    82.7378 </r>
       <r>    19.1768     4.9000    83.6398 </r>
       <r>    19.3609     3.1615    84.2218 </r>
       <r>    19.5450     3.4321    84.8537 </r>
       <r>    19.7291     2.4383    85.3025 </r>
       <r>    19.9132     3.6712    85.9784 </r>
       <r>    20.0973     3.2751    86.5813 </r>
       <r>    20.2814     4.3195    87.3765 </r>
       <r>    20.4655     2.7921    87.8905 </r>
       <r>    20.6496     3.0825    88.4579 </r>
       <r>    20.8337     3.1843    89.0441 </r>
       <r>    21.0178     3.5483    89.6974 </r>
       <r>    21.2019     4.5550    90.5359 </r>
       <r>    21.3859     5.0313    91.4621 </r>
       <r>    21.5700     4.4700    92.2850 </r>
       <r>    21.7541     4.3042    93.0774 </r>
       <r>    21.9382     4.1969    93.8500 </r>
       <r>    22.1223     2.1561    94.2469 </r>
       <r>    22.3064     1.1408    94.4570 </r>
       <r>    22.4905     0.7437    94.5939 </r>
       <r>    22.6746     2.7114    95.0930 </r>
       <r>    22.8587     3.4430    95.7268 </r>
       <r>    23.0428     1.3389    95.9733 </r>
       <r>    23.2269     0.1449    96.0000 </r>
       <r>    23.4110     0.0000    96.0000 </r>
       <r>    23.5951     0.0000    96.0000 </r>
       <r>    23.7792     0.0000    96.0000 </r>
       <r>    23.9633     0.0000    96.0000 </r>
       <r>    24.1473     0.0000    96.0000 </r>
       <r>    24.3314     0.0000    96.0000 </r>
       <r>    24.5155     0.0000    96.0000 </r>
       <r>    24.6996     0.0000    96.0000 </r>
       <r>    24.8837     0.0000    96.0000 </r>
       <r>    25.0678     0.0000    96.0000 </r>
       <r>    25.2519     0.0000    96.0000 </r>
       <r>    25.4360     0.0000    96.0000 </r>
      </set>
     </set>
    </array>
   </total>
  </dos>
  <eigenvalues_kpoints_opt comment="kpoints_opt">
   <kpoints>
    <varray name="kpointlist" >
     <v>       0.00000000       0.00000000       0.00000000 </v>
     <v>       0.01041667      -0.01041667       0.01041667 </v>
     <v>       0.02083333      -0.02083333       0.02083333 </v>
     <v>       0.03125000      -0.03125000       0.03125000 </v>
     <v>       0.04166667      -0.04166667       0.04166667 </v>
     <v>       0.05208333      -0.05208333       0.05208333 </v>
     <v>       0.06250000      -0.06250000       0.06250000 </v>
     <v>       0.07291667      -0.07291667       0.07291667 </v>
     <v>       0.08333333      -0.08333333       0.08333333 </v>
     <v>       0.09375000      -0.09375000       0.09375000 </v>
     <v>       0.10416667      -0.10416667       0.10416667 </v>
     <v>       0.11458333      -0.11458333       0.11458333 </v>
     <v>       0.12500000      -0.12500000       0.12500000 </v>
     <v>       0.13541667      -0.13541667       0.13541667 </v>
     <v>       0.14583333      -0.14583333       0.14583333 </v>
     <v>       0.15625000      -0.15625000       0.15625000 </v>
     <v>       0.16666667      -0.16666667       0.16666667 </v>
     <v>       0.17708333      -0.17708333       0.17708333 </v>
     <v>       0.18750000      -0.18750000       0.18750000 </v>
     <v>       0.19791667      -0.19791667       0.19791667 </v>
     <v>       0.20833333      -0.20833333       0.20833333 </v>
     <v>       0.21875000      -0.21875000       0.21875000 </v>
     <v>       0.22916667      -0.22916667       0.22916667 </v>
     <v>       0.23958333      -0.23958333       0.23958333 </v>
     <v>       0.25000000      -0.25000000       0.25000000 </v>
     <v>       0.26041667      -0.26041667       0.26041667 </v>
     <v>       0.27083333      -0.27083333       0.27083333 </v>
     <v>       0.28125000      -0.28125000       0.28125000 </v>
     <v>       0.29166667      -0.29166667       0.29166667 </v>
     <v>       0.30208333      -0.30208333       0.30208333 </v>
     <v>       0.31250000      -0.31250000       0.31250000 </v>
     <v>       0.32291667      -0.32291667       0.32291667 </v>
     <v>       0.33333333      -0.33333333       0.33333333 </v>
     <v>       0.34375000      -0.34375000       0.34375000 </v>
     <v>       0.35416667      -0.35416667       0.35416667 </v>
     <v>       0.36458333      -0.36458333       0.36458333 </v>
     <v>       0.37500000      -0.37500000       0.37500000 </v>
     <v>       0.38541667      -0.38541667       0.38541667 </v>
     <v>       0.39583333      -0.39583333       0.39583333 </v>
     <v>       0.40625000      -0.40625000       0.40625000 </v>
     <v>       0.41666667      -0.41666667       0.41666667 </v>
     <v>       0.42708333      -0.42708333       0.42708333 </v>
     <v>       0.43750000      -0.43750000       0.43750000 </v>
     <v>       0.44791667      -0.44791667       0.44791667 </v>
     <v>       0.45833333      -0.45833333       0.45833333 </v>
     <v>       0.46875000      -0.46875000       0.46875000 </v>
     <v>       0.47916667      -0.47916667       0.47916667 </v>
     <v>       0.48958333      -0.48958333       0.48958333 </v>
     <v>       0.50000000      -0.50000000       0.50000000 </v>
     <v>       0.50000000      -0.50000000       0.50000000 </v>
     <v>       0.48958333      -0.48958333       0.50000000 </v>
     <v>       0.47916667      -0.47916667       0.50000000 </v>
     <v>       0.46875000      -0.46875000       0.50000000 </v>
     <v>       0.45833333      -0.45833333       0.50000000 </v>
     <v>       0.44791667      -0.44791667       0.50000000 </v>
     <v>       0.43750000      -0.43750000       0.50000000 </v>
     <v>       0.42708333      -0.42708333       0.50000000 </v>
     <v>       0.41666667      -0.41666667       0.50000000 </v>
     <v>       0.40625000      -0.40625000       0.50000000 </v>
     <v>       0.39583333      -0.39583333       0.50000000 </v>
     <v>       0.38541667      -0.38541667       0.50000000 </v>
     <v>       0.37500000      -0.37500000       0.50000000 </v>
     <v>       0.36458333      -0.36458333       0.50000000 </v>
     <v>       0.35416667      -0.35416667       0.50000000 </v>
     <v>       0.34375000      -0.34375000       0.50000000 </v>
     <v>       0.33333333      -0.33333333       0.50000000 </v>
     <v>       0.32291667      -0.32291667       0.50000000 </v>
     <v>       0.31250000      -0.31250000       0.50000000 </v>
     <v>       0.30208333      -0.30208333       0.50000000 </v>
     <v>       0.29166667      -0.29166667       0.50000000 </v>
     <v>       0.28125000      -0.28125000       0.50000000 </v>
     <v>       0.27083333      -0.27083333       0.50000000 </v>
     <v>       0.26041667      -0.26041667       0.50000000 </v>
     <v>       0.25000000      -0.25000000       0.50000000 </v>
     <v>       0.23958333      -0.23958333       0.50000000 </v>
     <v>       0.22916667      -0.22916667       0.50000000 </v>
     <v>       0.21875000      -0.21875000       0.50000000 </v>
     <v>       0.20833333      -0.20833333       0.50000000 </v>
     <v>       0.19791667      -0.19791667       0.50000000 </v>
     <v>       0.18750000      -0.18750000       0.50000000 </v>
     <v>       0.17708333      -0.17708333       0.50000000 </v>
     <v>       0.16666667      -0.16666667       0.50000000 </v>
     <v>       0.15625000      -0.15625000       0.50000000 </v>
     <v>       0.14583333      -0.14583333       0.50000000 </v>
     <v>       0.13541667      -0.13541667       0.50000000 </v>
     <v>       0.12500000      -0.12500000       0.50000000 </v>
     <v>       0.11458333      -0.11458333       0.50000000 </v>
     <v>       0.10416667      -0.10416667       0.50000000 </v>
     <v>       0.09375000      -0.09375000       0.50000000 </v>
     <v>       0.08333333      -0.08333333       0.50000000 </v>
     <v>       0.07291667      -0.07291667       0.50000000 </v>
     <v>       0.06250000      -0.06250000       0.50000000 </v>
     <v>       0.05208333      -0.05208333       0.50000000 </v>
     <v>       0.04166667      -0.04166667       0.50000000 </v>
     <v>       0.03125000      -0.03125000       0.50000000 </v>
     <v>       0.02083333      -0.02083333       0.50000000 </v>
     <v>       0.01041667      -0.01041667       0.50000000 </v>
     <v>       0.00000000      -0.00000000       0.50000000 </v>
     <v>       0.00000000       0.00000000       0.50000000 </v>
     <v>       0.00000000       0.00000000       0.48958333 </v>
     <v>       0.00000000       0.00000000       0.47916667 </v>
     <v>       0.00000000       0.00000000       0.46875000 </v>
     <v>       0.00000000       0.00000000       0.45833333 </v>
     <v>       0.00000000       0.00000000       0.44791667 </v>
     <v>       0.00000000       0.00000000       0.43750000 </v>
     <v>       0.00000000       0.00000000       0.42708333 </v>
     <v>       0.00000000       0.00000000       0.41666667 </v>
     <v>       0.00000000       0.00000000       0.40625000 </v>
     <v>       0.00000000       0.00000000       0.39583333 </v>
     <v>       0.00000000       0.00000000       0.38541667 </v>
     <v>       0.00000000       0.00000000       0.37500000 </v>
     <v>       0.00000000       0.00000000       0.36458333 </v>
     <v>       0.00000000       0.00000000       0.35416667 </v>
     <v>       0.00000000       0.00000000       0.34375000 </v>
     <v>       0.00000000       0.00000000       0.33333333 </v>
     <v>       0.00000000       0.00000000       0.32291667 </v>
     <v>       0.00000000       0.00000000       0.31250000 </v>
     <v>       0.00000000       0.00000000       0.30208333 </v>
     <v>       0.00000000       0.00000000       0.29166667 </v>
     <v>       0.00000000       0.00000000       0.28125000 </v>
     <v>       0.00000000       0.00000000       0.27083333 </v>
     <v>       0.00000000       0.00000000       0.26041667 </v>
     <v>       0.00000000       0.00000000       0.25000000 </v>
     <v>       0.00000000       0.00000000       0.23958333 </v>
     <v>       0.00000000       0.00000000       0.22916667 </v>
     <v>       0.00000000       0.00000000       0.21875000 </v>
     <v>       0.00000000       0.00000000       0.20833333 </v>
     <v>       0.00000000       0.00000000       0.19791667 </v>
     <v>       0.00000000       0.00000000       0.18750000 </v>
     <v>       0.00000000       0.00000000       0.17708333 </v>
     <v>       0.00000000       0.00000000       0.16666667 </v>
     <v>       0.00000000       0.00000000       0.15625000 </v>
     <v>       0.00000000       0.00000000       0.14583333 </v>
     <v>       0.00000000       0.00000000       0.13541667 </v>
     <v>       0.00000000       0.00000000       0.12500000 </v>
     <v>       0.00000000       0.00000000       0.11458333 </v>
     <v>       0.00000000       0.00000000       0.10416667 </v>
     <v>       0.00000000       0.00000000       0.09375000 </v>
     <v>       0.00000000       0.00000000       0.08333333 </v>
     <v>       0.00000000       0.00000000       0.07291667 </v>
     <v>       0.00000000       0.00000000       0.06250000 </v>
     <v>       0.00000000       0.00000000       0.05208333 </v>
     <v>       0.00000000       0.00000000       0.04166667 </v>
     <v>       0.00000000       0.00000000       0.03125000 </v>
     <v>       0.00000000       0.00000000       0.02083333 </v>
     <v>       0.00000000       0.00000000       0.01041667 </v>
     <v>       0.00000000       0.00000000       0.00000000 </v>
    </varray>
    <varray name="weights" >
     <v>       0.00680272 </v>
     <v>       0.00680272 </v>
     <v>       0.00680272 </v>
     <v>       0.00680272 </v>
     <v>       0.00680272 </v>
     <v>       0.00680272 </v>
     <v>       0.00680272 </v>
     <v>       0.00680272 </v>
     <v>       0.00680272 </v>
     <v>       0.00680272 </v>
     <v>       0.00680272 </v>
     <v>       0.00680272 </v>
     <v>       0.00680272 </v>
     <v>       0.00680272 </v>
     <v>       0.00680272 </v>
     <v>       0.00680272 </v>
     <v>       0.00680272 </v>
     <v>       0.00680272 </v>
     <v>       0.00680272 </v>
     <v>       0.00680272 </v>
     <v>       0.00680272 </v>
     <v>       0.00680272 </v>
     <v>       0.00680272 </v>
     <v>       0.00680272 </v>
     <v>       0.00680272 </v>
     <v>       0.00680272 </v>
     <v>       0.00680272 </v>
     <v>       0.00680272 </v>
     <v>       0.00680272 </v>
     <v>       0.00680272 </v>
     <v>       0.00680272 </v>
     <v>       0.00680272 </v>
     <v>       0.00680272 </v>
     <v>       0.00680272 </v>
     <v>       0.00680272 </v>
     <v>       0.00680272 </v>
     <v>       0.00680272 </v>
     <v>       0.00680272 </v>
     <v>       0.00680272 </v>
     <v>       0.00680272 </v>
     <v>       0.00680272 </v>
     <v>       0.00680272 </v>
     <v>       0.00680272 </v>
     <v>       0.00680272 </v>
     <v>       0.00680272 </v>
     <v>       0.00680272 </v>
     <v>       0.00680272 </v>
     <v>       0.00680272 </v>
     <v>       0.00680272 </v>
     <v>       0.00680272 </v>
     <v>       0.00680272 </v>
     <v>       0.00680272 </v>
     <v>       0.00680272 </v>
     <v>       0.00680272 </v>
     <v>       0.00680272 </v>
     <v>       0.00680272 </v>
     <v>       0.00680272 </v>
     <v>       0.00680272 </v>
     <v>       0.00680272 </v>
     <v>       0.00680272 </v>
     <v>       0.00680272 </v>
     <v>       0.00680272 </v>
     <v>       0.00680272 </v>
     <v>       0.00680272 </v>
     <v>       0.00680272 </v>
     <v>       0.00680272 </v>
     <v>       0.00680272 </v>
     <v>       0.00680272 </v>
     <v>       0.00680272 </v>
     <v>       0.00680272 </v>
     <v>       0.00680272 </v>
     <v>       0.00680272 </v>
     <v>       0.00680272 </v>
     <v>       0.00680272 </v>
     <v>       0.00680272 </v>
     <v>       0.00680272 </v>
     <v>       0.00680272 </v>
     <v>       0.00680272 </v>
     <v>       0.00680272 </v>
     <v>       0.00680272 </v>
     <v>       0.00680272 </v>
     <v>       0.00680272 </v>
     <v>       0.00680272 </v>
     <v>       0.00680272 </v>
     <v>       0.00680272 </v>
     <v>       0.00680272 </v>
     <v>       0.00680272 </v>
     <v>       0.00680272 </v>
     <v>       0.00680272 </v>
     <v>       0.00680272 </v>
     <v>       0.00680272 </v>
     <v>       0.00680272 </v>
     <v>       0.00680272 </v>
     <v>       0.00680272 </v>
     <v>       0.00680272 </v>
     <v>       0.00680272 </v>
     <v>       0.00680272 </v>
     <v>       0.00680272 </v>
     <v>       0.00680272 </v>
     <v>       0.00680272 </v>
     <v>       0.00680272 </v>
     <v>       0.00680272 </v>
     <v>       0.00680272 </v>
     <v>       0.00680272 </v>
     <v>       0.00680272 </v>
     <v>       0.00680272 </v>
     <v>       0.00680272 </v>
     <v>       0.00680272 </v>
     <v>       0.00680272 </v>
     <v>       0.00680272 </v>
     <v>       0.00680272 </v>
     <v>       0.00680272 </v>
     <v>       0.00680272 </v>
     <v>       0.00680272 </v>
     <v>       0.00680272 </v>
     <v>       0.00680272 </v>
     <v>       0.00680272 </v>
     <v>       0.00680272 </v>
     <v>       0.00680272 </v>
     <v>       0.00680272 </v>
     <v>       0.00680272 </v>
     <v>       0.00680272 </v>
     <v>       0.00680272 </v>
     <v>       0.00680272 </v>
     <v>       0.00680272 </v>
     <v>       0.00680272 </v>
     <v>       0.00680272 </v>
     <v>       0.00680272 </v>
     <v>       0.00680272 </v>
     <v>       0.00680272 </v>
     <v>       0.00680272 </v>
     <v>       0.00680272 </v>
     <v>       0.00680272 </v>
     <v>       0.00680272 </v>
     <v>       0.00680272 </v>
     <v>       0.00680272 </v>
     <v>       0.00680272 </v>
     <v>       0.00680272 </v>
     <v>       0.00680272 </v>
     <v>       0.00680272 </v>
     <v>       0.00680272 </v>
     <v>       0.00680272 </v>
     <v>       0.00680272 </v>
     <v>       0.00680272 </v>
     <v>       0.00680272 </v>
     <v>       0.00680272 </v>
     <v>       0.00680272 </v>
    </varray>
   </kpoints>
   <eigenvalues>
    <array>
     <dimension dim="1">band</dimension>
     <dimension dim="2">kpoint</dimension>
     <dimension dim="3">spin</dimension>
     <field>eigene</field>
     <set>
      <set comment="spin 1">
       <set comment="kpoint 1">
        <r>  -27.2823 </r>
        <r>  -27.2096 </r>
        <r>  -12.5465 </r>
        <r>  -12.5465 </r>
        <r>  -12.5465 </r>
        <r>  -12.2368 </r>
        <r>  -12.2368 </r>
        <r>  -12.2368 </r>
        <r>   -1.1278 </r>
        <r>    1.0841 </r>
        <r>    1.0841 </r>
        <r>    3.4389 </r>
        <r>    3.4389 </r>
        <r>    3.4389 </r>
        <r>    4.8266 </r>
        <r>    4.8266 </r>
        <r>    5.9344 </r>
        <r>    5.9344 </r>
        <r>    5.9344 </r>
        <r>    6.3072 </r>
        <r>    6.3072 </r>
        <r>    6.3072 </r>
        <r>    8.5269 </r>
        <r>    8.5269 </r>
        <r>    8.5269 </r>
        <r>    8.9561 </r>
        <r>   12.4604 </r>
        <r>   13.1124 </r>
        <r>   13.1124 </r>
        <r>   13.8335 </r>
        <r>   13.8335 </r>
        <r>   14.3717 </r>
        <r>   14.3717 </r>
        <r>   14.3717 </r>
        <r>   17.4017 </r>
        <r>   17.4017 </r>
        <r>   17.4017 </r>
        <r>   17.5987 </r>
        <r>   19.1705 </r>
        <r>   19.1705 </r>
        <r>   19.1705 </r>
        <r>   20.1145 </r>
        <r>   20.1145 </r>
        <r>   20.1145 </r>
        <r>   20.4585 </r>
        <r>   21.5643 </r>
        <r>   21.5656 </r>
        <r>   21.5680 </r>
       </set>
       <set comment="kpoint 2">
        <r>  -27.2822 </r>
        <r>  -27.2096 </r>
        <r>  -12.5468 </r>
        <r>  -12.5468 </r>
        <r>  -12.5463 </r>
        <r>  -12.2376 </r>
        <r>  -12.2369 </r>
        <r>  -12.2369 </r>
        <r>   -1.1247 </r>
        <r>    1.0860 </r>
        <r>    1.0860 </r>
        <r>    3.4368 </r>
        <r>    3.4368 </r>
        <r>    3.4425 </r>
        <r>    4.8239 </r>
        <r>    4.8239 </r>
        <r>    5.8579 </r>
        <r>    5.9159 </r>
        <r>    5.9159 </r>
        <r>    6.3277 </r>
        <r>    6.3277 </r>
        <r>    6.3723 </r>
        <r>    8.5288 </r>
        <r>    8.5365 </r>
        <r>    8.5365 </r>
        <r>    8.9685 </r>
        <r>   12.4667 </r>
        <r>   13.1053 </r>
        <r>   13.1053 </r>
        <r>   13.7708 </r>
        <r>   13.7708 </r>
        <r>   14.3526 </r>
        <r>   14.4377 </r>
        <r>   14.4377 </r>
        <r>   17.3731 </r>
        <r>   17.4077 </r>
        <r>   17.4077 </r>
        <r>   17.6152 </r>
        <r>   19.1360 </r>
        <r>   19.1627 </r>
        <r>   19.1627 </r>
        <r>   20.0884 </r>
        <r>   20.0884 </r>
        <r>   20.1198 </r>
        <r>   20.4778 </r>
        <r>   21.5601 </r>
        <r>   21.5922 </r>
        <r>   21.5950 </r>
       </set>
       <set comment="kpoint 3">
        <r>  -27.2820 </r>
        <r>  -27.2098 </r>
        <r>  -12.5471 </r>
        <r>  -12.5471 </r>
        <r>  -12.5445 </r>
        <r>  -12.2402 </r>
        <r>  -12.2371 </r>
        <r>  -12.2371 </r>
        <r>   -1.1156 </r>
        <r>    1.0917 </r>
        <r>    1.0917 </r>
        <r>    3.4304 </r>
        <r>    3.4304 </r>
        <r>    3.4533 </r>
        <r>    4.8161 </r>
        <r>    4.8161 </r>
        <r>    5.7001 </r>
        <r>    5.8695 </r>
        <r>    5.8695 </r>
        <r>    6.3801 </r>
        <r>    6.3801 </r>
        <r>    6.4957 </r>
        <r>    8.5345 </r>
        <r>    8.5653 </r>
        <r>    8.5653 </r>
        <r>    9.0063 </r>
        <r>   12.4856 </r>
        <r>   13.0842 </r>
        <r>   13.0842 </r>
        <r>   13.6327 </r>
        <r>   13.6327 </r>
        <r>   14.2967 </r>
        <r>   14.5856 </r>
        <r>   14.5856 </r>
        <r>   17.2907 </r>
        <r>   17.4256 </r>
        <r>   17.4256 </r>
        <r>   17.6621 </r>
        <r>   19.0394 </r>
        <r>   19.1398 </r>
        <r>   19.1398 </r>
        <r>   20.0161 </r>
        <r>   20.0161 </r>
        <r>   20.1306 </r>
        <r>   20.5379 </r>
        <r>   21.5429 </r>
        <r>   21.6471 </r>
        <r>   21.6486 </r>
       </set>
       <set comment="kpoint 4">
        <r>  -27.2817 </r>
        <r>  -27.2100 </r>
        <r>  -12.5475 </r>
        <r>  -12.5475 </r>
        <r>  -12.5413 </r>
        <r>  -12.2444 </r>
        <r>  -12.2375 </r>
        <r>  -12.2375 </r>
        <r>   -1.1003 </r>
        <r>    1.1012 </r>
        <r>    1.1012 </r>
        <r>    3.4196 </r>
        <r>    3.4196 </r>
        <r>    3.4713 </r>
        <r>    4.8037 </r>
        <r>    4.8037 </r>
        <r>    5.5167 </r>
        <r>    5.8089 </r>
        <r>    5.8089 </r>
        <r>    6.4508 </r>
        <r>    6.4508 </r>
        <r>    6.6215 </r>
        <r>    8.5441 </r>
        <r>    8.6123 </r>
        <r>    8.6123 </r>
        <r>    9.0696 </r>
        <r>   12.5171 </r>
        <r>   13.0496 </r>
        <r>   13.0496 </r>
        <r>   13.4706 </r>
        <r>   13.4706 </r>
        <r>   14.2074 </r>
        <r>   14.7640 </r>
        <r>   14.7640 </r>
        <r>   17.1627 </r>
        <r>   17.4547 </r>
        <r>   17.4547 </r>
        <r>   17.7304 </r>
        <r>   18.8989 </r>
        <r>   19.1029 </r>
        <r>   19.1029 </r>
        <r>   19.9102 </r>
        <r>   19.9102 </r>
        <r>   20.1378 </r>
        <r>   20.6397 </r>
        <r>   21.5157 </r>
        <r>   21.6843 </r>
        <r>   21.6855 </r>
       </set>
       <set comment="kpoint 5">
        <r>  -27.2812 </r>
        <r>  -27.2104 </r>
        <r>  -12.5479 </r>
        <r>  -12.5479 </r>
        <r>  -12.5370 </r>
        <r>  -12.2502 </r>
        <r>  -12.2381 </r>
        <r>  -12.2381 </r>
        <r>   -1.0791 </r>
        <r>    1.1144 </r>
        <r>    1.1144 </r>
        <r>    3.4044 </r>
        <r>    3.4044 </r>
        <r>    3.4965 </r>
        <r>    4.7878 </r>
        <r>    4.7878 </r>
        <r>    5.3230 </r>
        <r>    5.7425 </r>
        <r>    5.7425 </r>
        <r>    6.5312 </r>
        <r>    6.5312 </r>
        <r>    6.7346 </r>
        <r>    8.5574 </r>
        <r>    8.6765 </r>
        <r>    8.6765 </r>
        <r>    9.1580 </r>
        <r>   12.5611 </r>
        <r>   13.0024 </r>
        <r>   13.0024 </r>
        <r>   13.3026 </r>
        <r>   13.3026 </r>
        <r>   14.0894 </r>
        <r>   14.9546 </r>
        <r>   14.9546 </r>
        <r>   16.9990 </r>
        <r>   17.4940 </r>
        <r>   17.4940 </r>
        <r>   17.8009 </r>
        <r>   18.7441 </r>
        <r>   19.0542 </r>
        <r>   19.0542 </r>
        <r>   19.7835 </r>
        <r>   19.7835 </r>
        <r>   20.1377 </r>
        <r>   20.7777 </r>
        <r>   21.4775 </r>
        <r>   21.7352 </r>
        <r>   21.7382 </r>
       </set>
       <set comment="kpoint 6">
        <r>  -27.2806 </r>
        <r>  -27.2108 </r>
        <r>  -12.5484 </r>
        <r>  -12.5484 </r>
        <r>  -12.5316 </r>
        <r>  -12.2576 </r>
        <r>  -12.2388 </r>
        <r>  -12.2388 </r>
        <r>   -1.0519 </r>
        <r>    1.1312 </r>
        <r>    1.1312 </r>
        <r>    3.3845 </r>
        <r>    3.3845 </r>
        <r>    3.5289 </r>
        <r>    4.7697 </r>
        <r>    4.7697 </r>
        <r>    5.1246 </r>
        <r>    5.6743 </r>
        <r>    5.6743 </r>
        <r>    6.6173 </r>
        <r>    6.6173 </r>
        <r>    6.8302 </r>
        <r>    8.5746 </r>
        <r>    8.7564 </r>
        <r>    8.7564 </r>
        <r>    9.2705 </r>
        <r>   12.6176 </r>
        <r>   12.9435 </r>
        <r>   12.9435 </r>
        <r>   13.1356 </r>
        <r>   13.1356 </r>
        <r>   13.9475 </r>
        <r>   15.1504 </r>
        <r>   15.1504 </r>
        <r>   16.8092 </r>
        <r>   17.5419 </r>
        <r>   17.5419 </r>
        <r>   17.8322 </r>
        <r>   18.6240 </r>
        <r>   18.9959 </r>
        <r>   18.9959 </r>
        <r>   19.6455 </r>
        <r>   19.6455 </r>
        <r>   20.1310 </r>
        <r>   20.9422 </r>
        <r>   21.4281 </r>
        <r>   21.7959 </r>
        <r>   21.8045 </r>
       </set>
       <set comment="kpoint 7">
        <r>  -27.2799 </r>
        <r>  -27.2113 </r>
        <r>  -12.5492 </r>
        <r>  -12.5492 </r>
        <r>  -12.5250 </r>
        <r>  -12.2665 </r>
        <r>  -12.2398 </r>
        <r>  -12.2398 </r>
        <r>   -1.0189 </r>
        <r>    1.1516 </r>
        <r>    1.1516 </r>
        <r>    3.3599 </r>
        <r>    3.3599 </r>
        <r>    3.5685 </r>
        <r>    4.7506 </r>
        <r>    4.7506 </r>
        <r>    4.9246 </r>
        <r>    5.6063 </r>
        <r>    5.6063 </r>
        <r>    6.7070 </r>
        <r>    6.7070 </r>
        <r>    6.9067 </r>
        <r>    8.5957 </r>
        <r>    8.8500 </r>
        <r>    8.8500 </r>
        <r>    9.4052 </r>
        <r>   12.6866 </r>
        <r>   12.8742 </r>
        <r>   12.8742 </r>
        <r>   12.9727 </r>
        <r>   12.9727 </r>
        <r>   13.7863 </r>
        <r>   15.3479 </r>
        <r>   15.3479 </r>
        <r>   16.6012 </r>
        <r>   17.5965 </r>
        <r>   17.5965 </r>
        <r>   17.7650 </r>
        <r>   18.6035 </r>
        <r>   18.9308 </r>
        <r>   18.9308 </r>
        <r>   19.5031 </r>
        <r>   19.5031 </r>
        <r>   20.1198 </r>
        <r>   21.1244 </r>
        <r>   21.3666 </r>
        <r>   21.8666 </r>
        <r>   21.8679 </r>
       </set>
       <set comment="kpoint 8">
        <r>  -27.2791 </r>
        <r>  -27.2120 </r>
        <r>  -12.5499 </r>
        <r>  -12.5499 </r>
        <r>  -12.5173 </r>
        <r>  -12.2768 </r>
        <r>  -12.2409 </r>
        <r>  -12.2409 </r>
        <r>   -0.9803 </r>
        <r>    1.1755 </r>
        <r>    1.1755 </r>
        <r>    3.3304 </r>
        <r>    3.3304 </r>
        <r>    3.6152 </r>
        <r>    4.7247 </r>
        <r>    4.7318 </r>
        <r>    4.7318 </r>
        <r>    5.5397 </r>
        <r>    5.5397 </r>
        <r>    6.7990 </r>
        <r>    6.7990 </r>
        <r>    6.9648 </r>
        <r>    8.6205 </r>
        <r>    8.9552 </r>
        <r>    8.9552 </r>
        <r>    9.5591 </r>
        <r>   12.7680 </r>
        <r>   12.7959 </r>
        <r>   12.7959 </r>
        <r>   12.8161 </r>
        <r>   12.8161 </r>
        <r>   13.6094 </r>
        <r>   15.5442 </r>
        <r>   15.5442 </r>
        <r>   16.3810 </r>
        <r>   17.5929 </r>
        <r>   17.6553 </r>
        <r>   17.6553 </r>
        <r>   18.6925 </r>
        <r>   18.8620 </r>
        <r>   18.8620 </r>
        <r>   19.3613 </r>
        <r>   19.3613 </r>
        <r>   20.1060 </r>
        <r>   21.2928 </r>
        <r>   21.3172 </r>
        <r>   21.9382 </r>
        <r>   21.9437 </r>
       </set>
       <set comment="kpoint 9">
        <r>  -27.2782 </r>
        <r>  -27.2127 </r>
        <r>  -12.5507 </r>
        <r>  -12.5507 </r>
        <r>  -12.5087 </r>
        <r>  -12.2884 </r>
        <r>  -12.2422 </r>
        <r>  -12.2422 </r>
        <r>   -0.9363 </r>
        <r>    1.2026 </r>
        <r>    1.2026 </r>
        <r>    3.2961 </r>
        <r>    3.2961 </r>
        <r>    3.6691 </r>
        <r>    4.5266 </r>
        <r>    4.7147 </r>
        <r>    4.7147 </r>
        <r>    5.4751 </r>
        <r>    5.4751 </r>
        <r>    6.8925 </r>
        <r>    6.8925 </r>
        <r>    7.0061 </r>
        <r>    8.6492 </r>
        <r>    9.0695 </r>
        <r>    9.0695 </r>
        <r>    9.7284 </r>
        <r>   12.6680 </r>
        <r>   12.6680 </r>
        <r>   12.7099 </r>
        <r>   12.7099 </r>
        <r>   12.8620 </r>
        <r>   13.4199 </r>
        <r>   15.7367 </r>
        <r>   15.7367 </r>
        <r>   16.1535 </r>
        <r>   17.3617 </r>
        <r>   17.7149 </r>
        <r>   17.7149 </r>
        <r>   18.7928 </r>
        <r>   18.7928 </r>
        <r>   18.8476 </r>
        <r>   19.2247 </r>
        <r>   19.2247 </r>
        <r>   20.0912 </r>
        <r>   21.2060 </r>
        <r>   21.5160 </r>
        <r>   21.9360 </r>
        <r>   22.0260 </r>
       </set>
       <set comment="kpoint 10">
        <r>  -27.2771 </r>
        <r>  -27.2134 </r>
        <r>  -12.5516 </r>
        <r>  -12.5516 </r>
        <r>  -12.4991 </r>
        <r>  -12.3011 </r>
        <r>  -12.2437 </r>
        <r>  -12.2437 </r>
        <r>   -0.8869 </r>
        <r>    1.2329 </r>
        <r>    1.2329 </r>
        <r>    3.2571 </r>
        <r>    3.2571 </r>
        <r>    3.7300 </r>
        <r>    4.3312 </r>
        <r>    4.7001 </r>
        <r>    4.7001 </r>
        <r>    5.4130 </r>
        <r>    5.4130 </r>
        <r>    6.9868 </r>
        <r>    6.9868 </r>
        <r>    7.0325 </r>
        <r>    8.6816 </r>
        <r>    9.1903 </r>
        <r>    9.1903 </r>
        <r>    9.9091 </r>
        <r>   12.5302 </r>
        <r>   12.5302 </r>
        <r>   12.6177 </r>
        <r>   12.6177 </r>
        <r>   12.9686 </r>
        <r>   13.2199 </r>
        <r>   15.9224 </r>
        <r>   15.9224 </r>
        <r>   15.9225 </r>
        <r>   17.1041 </r>
        <r>   17.7704 </r>
        <r>   17.7704 </r>
        <r>   18.7271 </r>
        <r>   18.7271 </r>
        <r>   19.0375 </r>
        <r>   19.0983 </r>
        <r>   19.0983 </r>
        <r>   20.0769 </r>
        <r>   21.1053 </r>
        <r>   21.7174 </r>
        <r>   21.9138 </r>
        <r>   22.1136 </r>
       </set>
       <set comment="kpoint 11">
        <r>  -27.2760 </r>
        <r>  -27.2143 </r>
        <r>  -12.5525 </r>
        <r>  -12.5525 </r>
        <r>  -12.4888 </r>
        <r>  -12.3148 </r>
        <r>  -12.2453 </r>
        <r>  -12.2453 </r>
        <r>   -0.8325 </r>
        <r>    1.2662 </r>
        <r>    1.2662 </r>
        <r>    3.2138 </r>
        <r>    3.2138 </r>
        <r>    3.7979 </r>
        <r>    4.1395 </r>
        <r>    4.6889 </r>
        <r>    4.6889 </r>
        <r>    5.3537 </r>
        <r>    5.3537 </r>
        <r>    7.0465 </r>
        <r>    7.0815 </r>
        <r>    7.0815 </r>
        <r>    8.7179 </r>
        <r>    9.3141 </r>
        <r>    9.3141 </r>
        <r>   10.0970 </r>
        <r>   12.4054 </r>
        <r>   12.4054 </r>
        <r>   12.5206 </r>
        <r>   12.5206 </r>
        <r>   13.0111 </r>
        <r>   13.0878 </r>
        <r>   15.6913 </r>
        <r>   16.0974 </r>
        <r>   16.0974 </r>
        <r>   16.8355 </r>
        <r>   17.8153 </r>
        <r>   17.8153 </r>
        <r>   18.6693 </r>
        <r>   18.6693 </r>
        <r>   18.9883 </r>
        <r>   18.9883 </r>
        <r>   19.2478 </r>
        <r>   20.0641 </r>
        <r>   20.9902 </r>
        <r>   21.8723 </r>
        <r>   21.9201 </r>
        <r>   21.9724 </r>
       </set>
       <set comment="kpoint 12">
        <r>  -27.2748 </r>
        <r>  -27.2152 </r>
        <r>  -12.5535 </r>
        <r>  -12.5535 </r>
        <r>  -12.4777 </r>
        <r>  -12.3294 </r>
        <r>  -12.2471 </r>
        <r>  -12.2471 </r>
        <r>   -0.7731 </r>
        <r>    1.3023 </r>
        <r>    1.3023 </r>
        <r>    3.1666 </r>
        <r>    3.1666 </r>
        <r>    3.8728 </r>
        <r>    3.9522 </r>
        <r>    4.6816 </r>
        <r>    4.6816 </r>
        <r>    5.2976 </r>
        <r>    5.2976 </r>
        <r>    7.0499 </r>
        <r>    7.1760 </r>
        <r>    7.1760 </r>
        <r>    8.7580 </r>
        <r>    9.4372 </r>
        <r>    9.4372 </r>
        <r>   10.2876 </r>
        <r>   12.2967 </r>
        <r>   12.2967 </r>
        <r>   12.4201 </r>
        <r>   12.4201 </r>
        <r>   12.7948 </r>
        <r>   13.2197 </r>
        <r>   15.4626 </r>
        <r>   16.2567 </r>
        <r>   16.2567 </r>
        <r>   16.5637 </r>
        <r>   17.8405 </r>
        <r>   17.8405 </r>
        <r>   18.6248 </r>
        <r>   18.6248 </r>
        <r>   18.9032 </r>
        <r>   18.9032 </r>
        <r>   19.4716 </r>
        <r>   20.0539 </r>
        <r>   20.8601 </r>
        <r>   21.7852 </r>
        <r>   21.7856 </r>
        <r>   21.8184 </r>
       </set>
       <set comment="kpoint 13">
        <r>  -27.2734 </r>
        <r>  -27.2161 </r>
        <r>  -12.5545 </r>
        <r>  -12.5545 </r>
        <r>  -12.4660 </r>
        <r>  -12.3447 </r>
        <r>  -12.2492 </r>
        <r>  -12.2492 </r>
        <r>   -0.7091 </r>
        <r>    1.3409 </r>
        <r>    1.3409 </r>
        <r>    3.1159 </r>
        <r>    3.1159 </r>
        <r>    3.7701 </r>
        <r>    3.9546 </r>
        <r>    4.6784 </r>
        <r>    4.6784 </r>
        <r>    5.2447 </r>
        <r>    5.2447 </r>
        <r>    7.0448 </r>
        <r>    7.2697 </r>
        <r>    7.2697 </r>
        <r>    8.8020 </r>
        <r>    9.5549 </r>
        <r>    9.5549 </r>
        <r>   10.4768 </r>
        <r>   12.2080 </r>
        <r>   12.2080 </r>
        <r>   12.3175 </r>
        <r>   12.3175 </r>
        <r>   12.5720 </r>
        <r>   13.3645 </r>
        <r>   15.2393 </r>
        <r>   16.2932 </r>
        <r>   16.3944 </r>
        <r>   16.3944 </r>
        <r>   17.8363 </r>
        <r>   17.8363 </r>
        <r>   18.5998 </r>
        <r>   18.5998 </r>
        <r>   18.8518 </r>
        <r>   18.8518 </r>
        <r>   19.7046 </r>
        <r>   20.0474 </r>
        <r>   20.7147 </r>
        <r>   21.5949 </r>
        <r>   21.5949 </r>
        <r>   21.7524 </r>
       </set>
       <set comment="kpoint 14">
        <r>  -27.2721 </r>
        <r>  -27.2171 </r>
        <r>  -12.5554 </r>
        <r>  -12.5554 </r>
        <r>  -12.4538 </r>
        <r>  -12.3607 </r>
        <r>  -12.2515 </r>
        <r>  -12.2515 </r>
        <r>   -0.6407 </r>
        <r>    1.3819 </r>
        <r>    1.3819 </r>
        <r>    3.0625 </r>
        <r>    3.0625 </r>
        <r>    3.5936 </r>
        <r>    4.0431 </r>
        <r>    4.6795 </r>
        <r>    4.6795 </r>
        <r>    5.1955 </r>
        <r>    5.1955 </r>
        <r>    7.0325 </r>
        <r>    7.3622 </r>
        <r>    7.3622 </r>
        <r>    8.8497 </r>
        <r>    9.6620 </r>
        <r>    9.6620 </r>
        <r>   10.6601 </r>
        <r>   12.1439 </r>
        <r>   12.1439 </r>
        <r>   12.2143 </r>
        <r>   12.2143 </r>
        <r>   12.3434 </r>
        <r>   13.5220 </r>
        <r>   15.0243 </r>
        <r>   16.0268 </r>
        <r>   16.5043 </r>
        <r>   16.5043 </r>
        <r>   17.7965 </r>
        <r>   17.7965 </r>
        <r>   18.6006 </r>
        <r>   18.6006 </r>
        <r>   18.8394 </r>
        <r>   18.8394 </r>
        <r>   19.9440 </r>
        <r>   20.0455 </r>
        <r>   20.5543 </r>
        <r>   21.4080 </r>
        <r>   21.4080 </r>
        <r>   21.6789 </r>
       </set>
       <set comment="kpoint 15">
        <r>  -27.2706 </r>
        <r>  -27.2182 </r>
        <r>  -12.5564 </r>
        <r>  -12.5564 </r>
        <r>  -12.4413 </r>
        <r>  -12.3769 </r>
        <r>  -12.2540 </r>
        <r>  -12.2540 </r>
        <r>   -0.5681 </r>
        <r>    1.4248 </r>
        <r>    1.4248 </r>
        <r>    3.0068 </r>
        <r>    3.0068 </r>
        <r>    3.4231 </r>
        <r>    4.1383 </r>
        <r>    4.6848 </r>
        <r>    4.6848 </r>
        <r>    5.1500 </r>
        <r>    5.1500 </r>
        <r>    7.0145 </r>
        <r>    7.4528 </r>
        <r>    7.4528 </r>
        <r>    8.9013 </r>
        <r>    9.7527 </r>
        <r>    9.7527 </r>
        <r>   10.8330 </r>
        <r>   12.1095 </r>
        <r>   12.1098 </r>
        <r>   12.1098 </r>
        <r>   12.1116 </r>
        <r>   12.1116 </r>
        <r>   13.6920 </r>
        <r>   14.8209 </r>
        <r>   15.7666 </r>
        <r>   16.5806 </r>
        <r>   16.5806 </r>
        <r>   17.7223 </r>
        <r>   17.7223 </r>
        <r>   18.6325 </r>
        <r>   18.6325 </r>
        <r>   18.8636 </r>
        <r>   18.8636 </r>
        <r>   20.0492 </r>
        <r>   20.1867 </r>
        <r>   20.3794 </r>
        <r>   21.2280 </r>
        <r>   21.2280 </r>
        <r>   21.6005 </r>
       </set>
       <set comment="kpoint 16">
        <r>  -27.2691 </r>
        <r>  -27.2192 </r>
        <r>  -12.5573 </r>
        <r>  -12.5573 </r>
        <r>  -12.4284 </r>
        <r>  -12.3936 </r>
        <r>  -12.2568 </r>
        <r>  -12.2568 </r>
        <r>   -0.4916 </r>
        <r>    1.4695 </r>
        <r>    1.4695 </r>
        <r>    2.9497 </r>
        <r>    2.9497 </r>
        <r>    3.2593 </r>
        <r>    4.2400 </r>
        <r>    4.6942 </r>
        <r>    4.6942 </r>
        <r>    5.1085 </r>
        <r>    5.1085 </r>
        <r>    6.9916 </r>
        <r>    7.5410 </r>
        <r>    7.5410 </r>
        <r>    8.9567 </r>
        <r>    9.8216 </r>
        <r>    9.8216 </r>
        <r>   10.9906 </r>
        <r>   11.8709 </r>
        <r>   12.0110 </r>
        <r>   12.0110 </r>
        <r>   12.1104 </r>
        <r>   12.1104 </r>
        <r>   13.8739 </r>
        <r>   14.6334 </r>
        <r>   15.5141 </r>
        <r>   16.6207 </r>
        <r>   16.6207 </r>
        <r>   17.6208 </r>
        <r>   17.6208 </r>
        <r>   18.6975 </r>
        <r>   18.6975 </r>
        <r>   18.9165 </r>
        <r>   18.9165 </r>
        <r>   20.0595 </r>
        <r>   20.1911 </r>
        <r>   20.4287 </r>
        <r>   21.0571 </r>
        <r>   21.0571 </r>
        <r>   21.5219 </r>
       </set>
       <set comment="kpoint 17">
        <r>  -27.2676 </r>
        <r>  -27.2203 </r>
        <r>  -12.5581 </r>
        <r>  -12.5581 </r>
        <r>  -12.4155 </r>
        <r>  -12.4105 </r>
        <r>  -12.2597 </r>
        <r>  -12.2597 </r>
        <r>   -0.4114 </r>
        <r>    1.5155 </r>
        <r>    1.5155 </r>
        <r>    2.8917 </r>
        <r>    2.8917 </r>
        <r>    3.1024 </r>
        <r>    4.3480 </r>
        <r>    4.7074 </r>
        <r>    4.7074 </r>
        <r>    5.0711 </r>
        <r>    5.0711 </r>
        <r>    6.9649 </r>
        <r>    7.6260 </r>
        <r>    7.6260 </r>
        <r>    9.0158 </r>
        <r>    9.8646 </r>
        <r>    9.8646 </r>
        <r>   11.1278 </r>
        <r>   11.6280 </r>
        <r>   11.9136 </r>
        <r>   11.9136 </r>
        <r>   12.1495 </r>
        <r>   12.1495 </r>
        <r>   14.0649 </r>
        <r>   14.4681 </r>
        <r>   15.2705 </r>
        <r>   16.6252 </r>
        <r>   16.6252 </r>
        <r>   17.4998 </r>
        <r>   17.4998 </r>
        <r>   18.7935 </r>
        <r>   18.7935 </r>
        <r>   18.9890 </r>
        <r>   18.9890 </r>
        <r>   19.9907 </r>
        <r>   20.0772 </r>
        <r>   20.6609 </r>
        <r>   20.8971 </r>
        <r>   20.8971 </r>
        <r>   21.4526 </r>
       </set>
       <set comment="kpoint 18">
        <r>  -27.2660 </r>
        <r>  -27.2215 </r>
        <r>  -12.5588 </r>
        <r>  -12.5588 </r>
        <r>  -12.4272 </r>
        <r>  -12.4025 </r>
        <r>  -12.2629 </r>
        <r>  -12.2629 </r>
        <r>   -0.3278 </r>
        <r>    1.5626 </r>
        <r>    1.5626 </r>
        <r>    2.8335 </r>
        <r>    2.8335 </r>
        <r>    2.9527 </r>
        <r>    4.4621 </r>
        <r>    4.7240 </r>
        <r>    4.7240 </r>
        <r>    5.0381 </r>
        <r>    5.0381 </r>
        <r>    6.9349 </r>
        <r>    7.7072 </r>
        <r>    7.7072 </r>
        <r>    9.0788 </r>
        <r>    9.8806 </r>
        <r>    9.8806 </r>
        <r>   11.2389 </r>
        <r>   11.3813 </r>
        <r>   11.8208 </r>
        <r>   11.8208 </r>
        <r>   12.2278 </r>
        <r>   12.2278 </r>
        <r>   14.2341 </r>
        <r>   14.3603 </r>
        <r>   15.0367 </r>
        <r>   16.5984 </r>
        <r>   16.5984 </r>
        <r>   17.3655 </r>
        <r>   17.3655 </r>
        <r>   18.9142 </r>
        <r>   18.9142 </r>
        <r>   19.0740 </r>
        <r>   19.0740 </r>
        <r>   19.7799 </r>
        <r>   20.1034 </r>
        <r>   20.7491 </r>
        <r>   20.7491 </r>
        <r>   20.8571 </r>
        <r>   21.4191 </r>
       </set>
       <set comment="kpoint 19">
        <r>  -27.2644 </r>
        <r>  -27.2226 </r>
        <r>  -12.5595 </r>
        <r>  -12.5595 </r>
        <r>  -12.4438 </r>
        <r>  -12.3897 </r>
        <r>  -12.2664 </r>
        <r>  -12.2664 </r>
        <r>   -0.2409 </r>
        <r>    1.6104 </r>
        <r>    1.6104 </r>
        <r>    2.7755 </r>
        <r>    2.7755 </r>
        <r>    2.8106 </r>
        <r>    4.5821 </r>
        <r>    4.7439 </r>
        <r>    4.7439 </r>
        <r>    5.0096 </r>
        <r>    5.0096 </r>
        <r>    6.9021 </r>
        <r>    7.7838 </r>
        <r>    7.7838 </r>
        <r>    9.1456 </r>
        <r>    9.8712 </r>
        <r>    9.8712 </r>
        <r>   11.1313 </r>
        <r>   11.3186 </r>
        <r>   11.7339 </r>
        <r>   11.7339 </r>
        <r>   12.3435 </r>
        <r>   12.3435 </r>
        <r>   14.1851 </r>
        <r>   14.5103 </r>
        <r>   14.8135 </r>
        <r>   16.5459 </r>
        <r>   16.5459 </r>
        <r>   17.2221 </r>
        <r>   17.2221 </r>
        <r>   19.0502 </r>
        <r>   19.0502 </r>
        <r>   19.1663 </r>
        <r>   19.1663 </r>
        <r>   19.5603 </r>
        <r>   20.1393 </r>
        <r>   20.6142 </r>
        <r>   20.6142 </r>
        <r>   20.9557 </r>
        <r>   21.4833 </r>
       </set>
       <set comment="kpoint 20">
        <r>  -27.2628 </r>
        <r>  -27.2237 </r>
        <r>  -12.5600 </r>
        <r>  -12.5600 </r>
        <r>  -12.4601 </r>
        <r>  -12.3773 </r>
        <r>  -12.2701 </r>
        <r>  -12.2701 </r>
        <r>   -0.1512 </r>
        <r>    1.6584 </r>
        <r>    1.6584 </r>
        <r>    2.6764 </r>
        <r>    2.7184 </r>
        <r>    2.7184 </r>
        <r>    4.7076 </r>
        <r>    4.7667 </r>
        <r>    4.7667 </r>
        <r>    4.9857 </r>
        <r>    4.9857 </r>
        <r>    6.8671 </r>
        <r>    7.8550 </r>
        <r>    7.8550 </r>
        <r>    9.2162 </r>
        <r>    9.8401 </r>
        <r>    9.8401 </r>
        <r>   10.8785 </r>
        <r>   11.3623 </r>
        <r>   11.6541 </r>
        <r>   11.6541 </r>
        <r>   12.4924 </r>
        <r>   12.4924 </r>
        <r>   14.1088 </r>
        <r>   14.6014 </r>
        <r>   14.7304 </r>
        <r>   16.4734 </r>
        <r>   16.4734 </r>
        <r>   17.0724 </r>
        <r>   17.0724 </r>
        <r>   19.1893 </r>
        <r>   19.1893 </r>
        <r>   19.2621 </r>
        <r>   19.2621 </r>
        <r>   19.3337 </r>
        <r>   20.1858 </r>
        <r>   20.4936 </r>
        <r>   20.4936 </r>
        <r>   20.9384 </r>
        <r>   21.6639 </r>
       </set>
       <set comment="kpoint 21">
        <r>  -27.2611 </r>
        <r>  -27.2248 </r>
        <r>  -12.5603 </r>
        <r>  -12.5603 </r>
        <r>  -12.4760 </r>
        <r>  -12.3652 </r>
[...]
       <r>   18.2754    0.0000 </r>
       <r>   18.2754    0.0000 </r>
       <r>   19.0879    0.0000 </r>
       <r>   19.0879    0.0000 </r>
       <r>   19.5020    0.0000 </r>
       <r>   19.5020    0.0000 </r>
       <r>   21.0514    0.0000 </r>
       <r>   21.0514    0.0000 </r>
       <r>   21.8137    0.0000 </r>
       <r>   21.8137    0.0000 </r>
      </set>
      <set comment="kpoint 34">
       <r>  -27.2375    1.0000 </r>
       <r>  -27.2375    1.0000 </r>
       <r>  -12.5456    1.0000 </r>
       <r>  -12.5456    1.0000 </r>
       <r>  -12.4488    1.0000 </r>
       <r>  -12.4488    1.0000 </r>
       <r>  -12.3755    1.0000 </r>
       <r>  -12.3755    1.0000 </r>
       <r>    1.8452    0.0000 </r>
       <r>    1.8452    0.0000 </r>
       <r>    2.0878    0.0000 </r>
       <r>    2.0878    0.0000 </r>
       <r>    2.2887    0.0000 </r>
       <r>    2.2887    0.0000 </r>
       <r>    5.3226    0.0000 </r>
       <r>    5.3226    0.0000 </r>
       <r>    5.4526    0.0000 </r>
       <r>    5.4526    0.0000 </r>
       <r>    5.7707    0.0000 </r>
       <r>    5.7707    0.0000 </r>
       <r>    7.8682    0.0000 </r>
       <r>    7.8682    0.0000 </r>
       <r>    8.4546    0.0000 </r>
       <r>    8.4546    0.0000 </r>
       <r>    8.6486    0.0000 </r>
       <r>    8.6486    0.0000 </r>
       <r>   12.1438    0.0000 </r>
       <r>   12.1438    0.0000 </r>
       <r>   13.0748    0.0000 </r>
       <r>   13.0748    0.0000 </r>
       <r>   13.1239    0.0000 </r>
       <r>   13.1239    0.0000 </r>
       <r>   14.2659    0.0000 </r>
       <r>   14.2659    0.0000 </r>
       <r>   14.7871    0.0000 </r>
       <r>   14.7871    0.0000 </r>
       <r>   15.7241    0.0000 </r>
       <r>   15.7241    0.0000 </r>
       <r>   18.9344    0.0000 </r>
       <r>   18.9344    0.0000 </r>
       <r>   19.7668    0.0000 </r>
       <r>   19.7668    0.0000 </r>
       <r>   20.0173    0.0000 </r>
       <r>   20.0173    0.0000 </r>
       <r>   20.1848    0.0000 </r>
       <r>   20.1848    0.0000 </r>
       <r>   21.3769    0.0000 </r>
       <r>   21.3769    0.0000 </r>
      </set>
      <set comment="kpoint 35">
       <r>  -27.2371    1.0000 </r>
       <r>  -27.2371    1.0000 </r>
       <r>  -12.4605    1.0000 </r>
       <r>  -12.4605    1.0000 </r>
       <r>  -12.4605    1.0000 </r>
       <r>  -12.4605    1.0000 </r>
       <r>  -12.4605    1.0000 </r>
       <r>  -12.4605    1.0000 </r>
       <r>    2.1314    0.0000 </r>
       <r>    2.1314    0.0000 </r>
       <r>    2.1314    0.0000 </r>
       <r>    2.1314    0.0000 </r>
       <r>    2.1314    0.0000 </r>
       <r>    2.1314    0.0000 </r>
       <r>    5.3735    0.0000 </r>
       <r>    5.3735    0.0000 </r>
       <r>    5.4674    0.0000 </r>
       <r>    5.4674    0.0000 </r>
       <r>    5.4674    0.0000 </r>
       <r>    5.4674    0.0000 </r>
       <r>    8.3389    0.0000 </r>
       <r>    8.3389    0.0000 </r>
       <r>    8.3389    0.0000 </r>
       <r>    8.3389    0.0000 </r>
       <r>    8.3389    0.0000 </r>
       <r>    8.3389    0.0000 </r>
       <r>   12.9031    0.0000 </r>
       <r>   12.9031    0.0000 </r>
       <r>   12.9031    0.0000 </r>
       <r>   12.9031    0.0000 </r>
       <r>   12.9031    0.0000 </r>
       <r>   12.9031    0.0000 </r>
       <r>   14.5173    0.0000 </r>
       <r>   14.5173    0.0000 </r>
       <r>   14.5173    0.0000 </r>
       <r>   14.5173    0.0000 </r>
       <r>   14.5173    0.0000 </r>
       <r>   14.5173    0.0000 </r>
       <r>   18.6596    0.0000 </r>
       <r>   18.6596    0.0000 </r>
       <r>   21.3101    0.0000 </r>
       <r>   21.3101    0.0000 </r>
       <r>   21.3101    0.0000 </r>
       <r>   21.3101    0.0000 </r>
       <r>   21.5580    0.0000 </r>
       <r>   21.5580    0.0000 </r>
       <r>   21.5580    0.0000 </r>
       <r>   21.5580    0.0000 </r>
      </set>
     </set>
    </set>
   </array>
  </eigenvalues>
  <separator name="orbital magnetization" >
   <v name="MAGDIPOLOUT">      0.00000000      0.00000000      0.00000000</v>
  </separator>
  <dos>
   <i name="efermi">      1.57344026 </i>
   <total>
    <array>
     <dimension dim="1">gridpoints</dimension>
     <dimension dim="2">spin</dimension>
     <field>energy</field>
     <field>total</field>
     <field>integrated</field>
     <set>
      <set comment="spin 1">
       <r>   -29.7919     0.0000     0.0000 </r>
       <r>   -29.6078     0.0000     0.0000 </r>
       <r>   -29.4238     0.0000     0.0000 </r>
       <r>   -29.2397     0.0000     0.0000 </r>
       <r>   -29.0556     0.0000     0.0000 </r>
       <r>   -28.8715     0.0000     0.0000 </r>
       <r>   -28.6874     0.0000     0.0000 </r>
       <r>   -28.5033     0.0000     0.0000 </r>
       <r>   -28.3192     0.0000     0.0000 </r>
       <r>   -28.1351     0.0000     0.0000 </r>
       <r>   -27.9510     0.0000     0.0000 </r>
       <r>   -27.7669     0.0000     0.0000 </r>
       <r>   -27.5828     0.0000     0.0000 </r>
       <r>   -27.3987     0.0004     0.0001 </r>
       <r>   -27.2146    16.5094     3.0393 </r>
       <r>   -27.0305     5.2183     4.0000 </r>
       <r>   -26.8465     0.0000     4.0000 </r>
       <r>   -26.6624     0.0000     4.0000 </r>
       <r>   -26.4783     0.0000     4.0000 </r>
       <r>   -26.2942     0.0000     4.0000 </r>
       <r>   -26.1101     0.0000     4.0000 </r>
       <r>   -25.9260     0.0000     4.0000 </r>
       <r>   -25.7419     0.0000     4.0000 </r>
       <r>   -25.5578     0.0000     4.0000 </r>
       <r>   -25.3737     0.0000     4.0000 </r>
       <r>   -25.1896     0.0000     4.0000 </r>
       <r>   -25.0055     0.0000     4.0000 </r>
       <r>   -24.8214     0.0000     4.0000 </r>
       <r>   -24.6373     0.0000     4.0000 </r>
       <r>   -24.4532     0.0000     4.0000 </r>
       <r>   -24.2691     0.0000     4.0000 </r>
       <r>   -24.0851     0.0000     4.0000 </r>
       <r>   -23.9010     0.0000     4.0000 </r>
       <r>   -23.7169     0.0000     4.0000 </r>
       <r>   -23.5328     0.0000     4.0000 </r>
       <r>   -23.3487     0.0000     4.0000 </r>
       <r>   -23.1646     0.0000     4.0000 </r>
       <r>   -22.9805     0.0000     4.0000 </r>
       <r>   -22.7964     0.0000     4.0000 </r>
       <r>   -22.6123     0.0000     4.0000 </r>
       <r>   -22.4282     0.0000     4.0000 </r>
       <r>   -22.2441     0.0000     4.0000 </r>
       <r>   -22.0600     0.0000     4.0000 </r>
       <r>   -21.8759     0.0000     4.0000 </r>
       <r>   -21.6918     0.0000     4.0000 </r>
       <r>   -21.5077     0.0000     4.0000 </r>
       <r>   -21.3237     0.0000     4.0000 </r>
       <r>   -21.1396     0.0000     4.0000 </r>
       <r>   -20.9555     0.0000     4.0000 </r>
       <r>   -20.7714     0.0000     4.0000 </r>
       <r>   -20.5873     0.0000     4.0000 </r>
       <r>   -20.4032     0.0000     4.0000 </r>
       <r>   -20.2191     0.0000     4.0000 </r>
       <r>   -20.0350     0.0000     4.0000 </r>
       <r>   -19.8509     0.0000     4.0000 </r>
       <r>   -19.6668     0.0000     4.0000 </r>
       <r>   -19.4827     0.0000     4.0000 </r>
       <r>   -19.2986     0.0000     4.0000 </r>
       <r>   -19.1145     0.0000     4.0000 </r>
       <r>   -18.9304     0.0000     4.0000 </r>
       <r>   -18.7464     0.0000     4.0000 </r>
       <r>   -18.5623     0.0000     4.0000 </r>
       <r>   -18.3782     0.0000     4.0000 </r>
       <r>   -18.1941     0.0000     4.0000 </r>
       <r>   -18.0100     0.0000     4.0000 </r>
       <r>   -17.8259     0.0000     4.0000 </r>
       <r>   -17.6418     0.0000     4.0000 </r>
       <r>   -17.4577     0.0000     4.0000 </r>
       <r>   -17.2736     0.0000     4.0000 </r>
       <r>   -17.0895     0.0000     4.0000 </r>
       <r>   -16.9054     0.0000     4.0000 </r>
       <r>   -16.7213     0.0000     4.0000 </r>
       <r>   -16.5372     0.0000     4.0000 </r>
       <r>   -16.3531     0.0000     4.0000 </r>
       <r>   -16.1690     0.0000     4.0000 </r>
       <r>   -15.9850     0.0000     4.0000 </r>
       <r>   -15.8009     0.0000     4.0000 </r>
       <r>   -15.6168     0.0000     4.0000 </r>
       <r>   -15.4327     0.0000     4.0000 </r>
       <r>   -15.2486     0.0000     4.0000 </r>
       <r>   -15.0645     0.0000     4.0000 </r>
       <r>   -14.8804     0.0000     4.0000 </r>
       <r>   -14.6963     0.0000     4.0000 </r>
       <r>   -14.5122     0.0000     4.0000 </r>
       <r>   -14.3281     0.0000     4.0000 </r>
       <r>   -14.1440     0.0000     4.0000 </r>
       <r>   -13.9599     0.0000     4.0000 </r>
       <r>   -13.7758     0.0000     4.0000 </r>
       <r>   -13.5917     0.0000     4.0000 </r>
       <r>   -13.4077     0.0000     4.0000 </r>
       <r>   -13.2236     0.0000     4.0000 </r>
       <r>   -13.0395     0.0000     4.0000 </r>
       <r>   -12.8554     0.0000     4.0000 </r>
       <r>   -12.6713     1.2493     4.2300 </r>
       <r>   -12.4872    21.0471     8.1046 </r>
       <r>   -12.3031    28.4363    13.3395 </r>
       <r>   -12.1190    14.4509    15.9999 </r>
       <r>   -11.9349     0.0008    16.0000 </r>
       <r>   -11.7508     0.0000    16.0000 </r>
       <r>   -11.5667     0.0000    16.0000 </r>
       <r>   -11.3826     0.0000    16.0000 </r>
       <r>   -11.1985     0.0000    16.0000 </r>
       <r>   -11.0144     0.0000    16.0000 </r>
       <r>   -10.8303     0.0000    16.0000 </r>
       <r>   -10.6463     0.0000    16.0000 </r>
       <r>   -10.4622     0.0000    16.0000 </r>
       <r>   -10.2781     0.0000    16.0000 </r>
       <r>   -10.0940     0.0000    16.0000 </r>
       <r>    -9.9099     0.0000    16.0000 </r>
       <r>    -9.7258     0.0000    16.0000 </r>
       <r>    -9.5417     0.0000    16.0000 </r>
       <r>    -9.3576     0.0000    16.0000 </r>
       <r>    -9.1735     0.0000    16.0000 </r>
       <r>    -8.9894     0.0000    16.0000 </r>
       <r>    -8.8053     0.0000    16.0000 </r>
       <r>    -8.6212     0.0000    16.0000 </r>
       <r>    -8.4371     0.0000    16.0000 </r>
       <r>    -8.2530     0.0000    16.0000 </r>
       <r>    -8.0690     0.0000    16.0000 </r>
       <r>    -7.8849     0.0000    16.0000 </r>
       <r>    -7.7008     0.0000    16.0000 </r>
       <r>    -7.5167     0.0000    16.0000 </r>
       <r>    -7.3326     0.0000    16.0000 </r>
       <r>    -7.1485     0.0000    16.0000 </r>
       <r>    -6.9644     0.0000    16.0000 </r>
       <r>    -6.7803     0.0000    16.0000 </r>
       <r>    -6.5962     0.0000    16.0000 </r>
       <r>    -6.4121     0.0000    16.0000 </r>
       <r>    -6.2280     0.0000    16.0000 </r>
       <r>    -6.0439     0.0000    16.0000 </r>
       <r>    -5.8598     0.0000    16.0000 </r>
       <r>    -5.6757     0.0000    16.0000 </r>
       <r>    -5.4916     0.0000    16.0000 </r>
       <r>    -5.3076     0.0000    16.0000 </r>
       <r>    -5.1235     0.0000    16.0000 </r>
       <r>    -4.9394     0.0000    16.0000 </r>
       <r>    -4.7553     0.0000    16.0000 </r>
       <r>    -4.5712     0.0000    16.0000 </r>
       <r>    -4.3871     0.0000    16.0000 </r>
       <r>    -4.2030     0.0000    16.0000 </r>
       <r>    -4.0189     0.0000    16.0000 </r>
       <r>    -3.8348     0.0000    16.0000 </r>
       <r>    -3.6507     0.0000    16.0000 </r>
       <r>    -3.4666     0.0000    16.0000 </r>
       <r>    -3.2825     0.0000    16.0000 </r>
       <r>    -3.0984     0.0000    16.0000 </r>
       <r>    -2.9143     0.0000    16.0000 </r>
       <r>    -2.7303     0.0000    16.0000 </r>
       <r>    -2.5462     0.0000    16.0000 </r>
       <r>    -2.3621     0.0000    16.0000 </r>
       <r>    -2.1780     0.0000    16.0000 </r>
       <r>    -1.9939     0.0000    16.0000 </r>
       <r>    -1.8098     0.0000    16.0000 </r>
       <r>    -1.6257     0.0000    16.0000 </r>
       <r>    -1.4416     0.0000    16.0000 </r>
       <r>    -1.2575     0.0000    16.0000 </r>
       <r>    -1.0734     0.0206    16.0038 </r>
       <r>    -0.8893     0.1527    16.0319 </r>
       <r>    -0.7052     0.3222    16.0912 </r>
       <r>    -0.5211     0.2083    16.1296 </r>
       <r>    -0.3370     0.7272    16.2634 </r>
       <r>    -0.1529     0.3428    16.3265 </r>
       <r>     0.0311     0.6784    16.4514 </r>
       <r>     0.2152     0.9167    16.6202 </r>
       <r>     0.3993     0.9967    16.8037 </r>
       <r>     0.5834     1.1632    17.0178 </r>
       <r>     0.7675     1.7525    17.3404 </r>
       <r>     0.9516     3.6139    18.0057 </r>
       <r>     1.1357     1.4377    18.2704 </r>
       <r>     1.3198     4.0552    19.0169 </r>
       <r>     1.5039     3.7382    19.7051 </r>
       <r>     1.6880     2.2498    20.1193 </r>
       <r>     1.8721     2.4917    20.5780 </r>
       <r>     2.0562     1.9836    20.9432 </r>
       <r>     2.2403     6.6606    22.1693 </r>
       <r>     2.4244     8.5177    23.7374 </r>
       <r>     2.6085     6.5902    24.9506 </r>
       <r>     2.7925     6.7115    26.1861 </r>
       <r>     2.9766     2.4665    26.6402 </r>
       <r>     3.1607     3.2628    27.2409 </r>
       <r>     3.3448     1.6218    27.5394 </r>
       <r>     3.5289     1.6241    27.8384 </r>
       <r>     3.7130     1.4030    28.0967 </r>
       <r>     3.8971     2.4602    28.5496 </r>
       <r>     4.0812     2.6597    29.0392 </r>
       <r>     4.2653     2.8961    29.5724 </r>
       <r>     4.4494     3.5082    30.2182 </r>
       <r>     4.6335     4.0529    30.9643 </r>
       <r>     4.8176     4.3210    31.7598 </r>
       <r>     5.0017     5.4806    32.7688 </r>
       <r>     5.1858     5.1484    33.7165 </r>
       <r>     5.3698    11.4175    35.8184 </r>
       <r>     5.5539     6.3289    36.9835 </r>
       <r>     5.7380     1.6738    37.2917 </r>
       <r>     5.9221     0.8091    37.4406 </r>
       <r>     6.1062     3.7796    38.1364 </r>
       <r>     6.2903     0.8331    38.2898 </r>
       <r>     6.4744     0.9772    38.4697 </r>
       <r>     6.6585     3.2034    39.0594 </r>
       <r>     6.8426     3.2665    39.6607 </r>
       <r>     7.0267     1.0809    39.8597 </r>
       <r>     7.2108     1.3963    40.1168 </r>
       <r>     7.3949     2.7428    40.6217 </r>
       <r>     7.5790     2.9153    41.1584 </r>
       <r>     7.7631     3.8055    41.8589 </r>
       <r>     7.9472     1.3532    42.1081 </r>
       <r>     8.1312     4.4779    42.9324 </r>
       <r>     8.3153     3.0587    43.4955 </r>
       <r>     8.4994     5.5673    44.5204 </r>
       <r>     8.6835     3.6935    45.2003 </r>
       <r>     8.8676     2.4165    45.6452 </r>
       <r>     9.0517     0.9265    45.8158 </r>
       <r>     9.2358     4.9788    46.7323 </r>
       <r>     9.4199     5.9449    47.8268 </r>
       <r>     9.6040     3.1215    48.4014 </r>
       <r>     9.7881     4.6116    49.2504 </r>
       <r>     9.9722     2.1839    49.6524 </r>
       <r>    10.1563     3.3385    50.2670 </r>
       <r>    10.3404     1.7231    50.5842 </r>
       <r>    10.5245     3.0839    51.1520 </r>
       <r>    10.7085     2.8128    51.6698 </r>
       <r>    10.8926     2.7747    52.1806 </r>
       <r>    11.0767     1.6572    52.4857 </r>
       <r>    11.2608     2.4080    52.9290 </r>
       <r>    11.4449     5.3046    53.9055 </r>
       <r>    11.6290     3.0104    54.4597 </r>
       <r>    11.8131     4.7036    55.3256 </r>
       <r>    11.9972     2.6155    55.8071 </r>
       <r>    12.1813     2.9031    56.3415 </r>
       <r>    12.3654     2.0416    56.7174 </r>
       <r>    12.5495     3.4650    57.3552 </r>
       <r>    12.7336     5.3400    58.3383 </r>
       <r>    12.9177     4.6948    59.2026 </r>
       <r>    13.1018     4.3658    60.0063 </r>
       <r>    13.2859     1.1398    60.2161 </r>
       <r>    13.4699     0.9720    60.3951 </r>
       <r>    13.6540     3.1862    60.9816 </r>
       <r>    13.8381     3.9835    61.7149 </r>
       <r>    14.0222     5.7966    62.7821 </r>
       <r>    14.2063     4.4435    63.6001 </r>
       <r>    14.3904     6.1032    64.7236 </r>
       <r>    14.5745     3.4652    65.3616 </r>
       <r>    14.7586     2.7794    65.8732 </r>
       <r>    14.9427     4.2819    66.6615 </r>
       <r>    15.1268     4.6177    67.5116 </r>
       <r>    15.3109     3.2446    68.1089 </r>
       <r>    15.4950     3.3871    68.7324 </r>
       <r>    15.6791     2.7785    69.2439 </r>
       <r>    15.8632     3.9811    69.9768 </r>
       <r>    16.0472     2.9913    70.5275 </r>
       <r>    16.2313     2.9447    71.0696 </r>
       <r>    16.4154     3.8882    71.7854 </r>
       <r>    16.5995     5.4642    72.7913 </r>
       <r>    16.7836     3.3779    73.4132 </r>
       <r>    16.9677     4.5773    74.2558 </r>
       <r>    17.1518     6.2509    75.4065 </r>
       <r>    17.3359     4.5737    76.2485 </r>
       <r>    17.5200     5.4005    77.2427 </r>
       <r>    17.7041     4.0438    77.9872 </r>
       <r>    17.8882     3.4298    78.6186 </r>
       <r>    18.0723     3.4812    79.2594 </r>
       <r>    18.2564     2.9929    79.8104 </r>
       <r>    18.4405     5.6260    80.8461 </r>
       <r>    18.6246     6.0727    81.9640 </r>
       <r>    18.8086     3.2390    82.5603 </r>
       <r>    18.9927     3.6926    83.2401 </r>
       <r>    19.1768     6.5309    84.4424 </r>
       <r>    19.3609     4.1610    85.2084 </r>
       <r>    19.5450     4.3809    86.0149 </r>
       <r>    19.7291     3.7807    86.7109 </r>
       <r>    19.9132     5.6941    87.7592 </r>
       <r>    20.0973     3.6784    88.4363 </r>
       <r>    20.2814     3.6948    89.1165 </r>
       <r>    20.4655     2.8471    89.6406 </r>
       <r>    20.6496     2.8843    90.1716 </r>
       <r>    20.8337     3.8770    90.8853 </r>
       <r>    21.0178     3.0888    91.4540 </r>
       <r>    21.2019     4.8148    92.3403 </r>
       <r>    21.3859     5.7326    93.3957 </r>
       <r>    21.5700     4.6743    94.2562 </r>
       <r>    21.7541     4.1562    95.0213 </r>
       <r>    21.9382     2.2264    95.4312 </r>
       <r>    22.1223     0.9530    95.6066 </r>
       <r>    22.3064     0.1819    95.6401 </r>
       <r>    22.4905     0.7965    95.7867 </r>
       <r>    22.6746     0.6435    95.9052 </r>
       <r>    22.8587     0.3913    95.9772 </r>
       <r>    23.0428     0.1236    96.0000 </r>
       <r>    23.2269     0.0001    96.0000 </r>
       <r>    23.4110     0.0000    96.0000 </r>
       <r>    23.5951     0.0000    96.0000 </r>
       <r>    23.7792     0.0000    96.0000 </r>
       <r>    23.9633     0.0000    96.0000 </r>
       <r>    24.1473     0.0000    96.0000 </r>
       <r>    24.3314     0.0000    96.0000 </r>
       <r>    24.5155     0.0000    96.0000 </r>
       <r>    24.6996     0.0000    96.0000 </r>
       <r>    24.8837     0.0000    96.0000 </r>
       <r>    25.0678     0.0000    96.0000 </r>
       <r>    25.2519     0.0000    96.0000 </r>
       <r>    25.4360     0.0000    96.0000 </r>
      </set>
     </set>
    </array>
   </total>
  </dos>
 </calculation>
 <structure name="finalpos" >
  <crystal>
   <varray name="basis" >
    <v>       5.02792000       0.00000000       0.00000000 </v>
    <v>       0.00000000       5.02792000       0.00000000 </v>
    <v>       0.00000000       0.00000000       5.02792000 </v>
   </varray>
   <i name="volume">    127.10571466 </i>
   <varray name="rec_basis" >
    <v>       0.19888940      -0.00000000       0.00000000 </v>
    <v>       0.00000000       0.19888940       0.00000000 </v>
    <v>      -0.00000000      -0.00000000       0.19888940 </v>
   </varray>
  </crystal>
  <varray name="positions" >
   <v>       0.00000000       0.00000000       0.00000000 </v>
   <v>       0.50000000       0.50000000       0.50000000 </v>
  </varray>
 </structure>
</modeling>
