Ba                                      
           1
     5.027920    0.000000    0.000000
     0.000000    5.027920    0.000000
     0.000000    0.000000    5.027920
   Ba
     2
Direct configuration=     1
   0.00000000  0.00000000  0.00000000
   0.50000000  0.50000000  0.50000000
