Xe                                      
   1.00000000000000     
     7.054820    0.000000    0.000000
     0.000000    7.054820    0.000000
     0.000000    0.000000    7.054820
   Xe
     4
Direct
  0.000000  0.000000  0.000000
  0.000000  0.500000  0.500000
  0.500000  0.000000  0.500000
  0.500000  0.500000  0.000000
 
   48   48   48
 -284.88     -217.40     -48.920      141.54      278.80      328.28      299.86      228.11      150.37      91.991    
  54.810      32.391      19.059      11.070      6.4169      3.8625      2.3862      1.3986     0.82442     0.63029    
 0.54546     0.39025     0.30058     0.38596     0.46642     0.38596     0.30058     0.39025     0.54546     0.63029    
 0.82442      1.3986      2.3862      3.8625      6.4169      11.070      19.059      32.391      54.810      91.991    
  150.37      228.11      299.86      328.28      278.80      141.54     -48.920     -217.40     -217.40     -155.90    
 -2.7891      168.87      289.77      328.49      295.02      222.38      146.02      89.440      53.397      31.619    
  18.639      10.848      6.3034      3.7992      2.3492      1.3822     0.81663     0.61354     0.51441     0.34938    
 0.24763     0.31510     0.38596     0.31510     0.24763     0.34938     0.51441     0.61354     0.81663      1.3822    
  2.3492      3.7992      6.3034      10.848      18.639      31.619      53.397      89.440      146.02      222.38    
  295.02      328.49      289.77      168.87     -2.7891     -155.90     -48.920     -2.7891      110.77      234.17    
  313.32      324.97      279.39      205.47      133.72      82.256      49.405      29.431      17.441      10.215    
  5.9772      3.6182      2.2454      1.3401     0.80645     0.59403     0.47828     0.31402     0.20735     0.24763    
 0.30058     0.24763     0.20735     0.31402     0.47828     0.59403     0.80645      1.3401      2.2454      3.6182    
  5.9772      10.215      17.441      29.431      49.405      82.256      133.72      205.47      279.39      324.97    
  313.32      234.17      110.77     -2.7891      141.54      168.87      234.17      299.04      328.33      308.85    
  251.17      178.84      115.64      71.690      43.497      26.164      15.642      9.2539      5.4784      3.3439    
  2.0936      1.2855     0.81147     0.61134     0.50783     0.38595     0.31402     0.34938     0.39025     0.34938    
 0.31402     0.38595     0.50783     0.61134     0.81147      1.2855      2.0936      3.3439      5.4784      9.2539    
  15.642      26.164      43.497      71.690      115.64      178.84      251.17      308.85      328.33      299.04    
  234.17      168.87      278.80      289.77      313.32      328.33      316.61      273.97      211.00      145.95    
  94.678      59.403      36.552      22.277      13.478      8.0858      4.8660      3.0121      1.9188      1.2297    
 0.83108     0.65686     0.57763     0.50783     0.47828     0.51441     0.54546     0.51441     0.47828     0.50783    
 0.57763     0.65686     0.83108      1.2297      1.9188      3.0121      4.8660      8.0858      13.478      22.277    
  36.552      59.403      94.678      145.95      211.00      273.97      316.61      328.33      313.32      289.77    
  328.28      328.49      324.97      308.85      273.97      222.34      164.02      112.32      73.722      47.011    
  29.434      18.228      11.197      6.8399      4.2085      2.6659      1.7518      1.1910     0.87095     0.72332    
 0.65686     0.61134     0.59403     0.61354     0.63029     0.61354     0.59403     0.61134     0.65686     0.72332    
 0.87095      1.1910      1.7518      2.6659      4.2085      6.8399      11.197      18.228      29.434      47.011    
  73.722      112.32      164.02      222.34      273.97      308.85      324.97      328.49      299.86      295.02    
  279.39      251.17      211.00      164.02      118.98      82.300      54.931      35.725      22.817      14.394    
  9.0101      5.6349      3.5751      2.3522      1.6306      1.2054     0.97401     0.87095     0.83108     0.81147    
 0.80645     0.81663     0.82442     0.81663     0.80645     0.81147     0.83108     0.87095     0.97401      1.2054    
  1.6306      2.3522      3.5751      5.6349      9.0101      14.394      22.817      35.725      54.931      82.300    
  118.98      164.02      211.00      251.17      279.39      295.02      228.11      222.38      205.47      178.84    
  145.95      112.32      82.300      57.897      39.445      26.222      17.112      11.027      7.0702      4.5658    
  3.0292      2.1183      1.5983      1.3221      1.2054      1.1910      1.2297      1.2855      1.3401      1.3822    
  1.3986      1.3822      1.3401      1.2855      1.2297      1.1910      1.2054      1.3221      1.5983      2.1183    
  3.0292      4.5658      7.0702      11.027      17.112      26.222      39.445      57.897      82.300      112.32    
  145.95      178.84      205.47      222.38      150.37      146.02      133.72      115.64      94.678      73.722    
  54.931      39.445      27.485      18.694      12.486      8.2547      5.4681      3.6990      2.6241      2.0116    
  1.7035      1.5983      1.6306      1.7518      1.9188      2.0936      2.2454      2.3492      2.3862      2.3492    
  2.2454      2.0936      1.9188      1.7518      1.6306      1.5983      1.7035      2.0116      2.6241      3.6990    
  5.4681      8.2547      12.486      18.694      27.485      39.445      54.931      73.722      94.678      115.64    
  133.72      146.02      91.991      89.440      82.256      71.690      59.403      47.011      35.725      26.222    
  18.694      13.022      8.9325      6.1067      4.2409      3.0748      2.4049      2.0841      2.0116      2.1183    
  2.3522      2.6659      3.0121      3.3439      3.6182      3.7992      3.8625      3.7992      3.6182      3.3439    
  3.0121      2.6659      2.3522      2.1183      2.0116      2.0841      2.4049      3.0748      4.2409      6.1067    
  8.9325      13.022      18.694      26.222      35.725      47.011      59.403      71.690      82.256      89.440    
  54.810      53.397      49.405      43.497      36.552      29.434      22.817      17.112      12.486      8.9325    
  6.3385      4.5458      3.3880      2.7170      2.4168      2.4049      2.6241      3.0292      3.5751      4.2085    
  4.8660      5.4784      5.9772      6.3034      6.4169      6.3034      5.9772      5.4784      4.8660      4.2085    
  3.5751      3.0292      2.6241      2.4049      2.4168      2.7170      3.3880      4.5458      6.3385      8.9325    
  12.486      17.112      22.817      29.434      36.552      43.497      49.405      53.397      32.391      31.619    
  29.431      26.164      22.277      18.228      14.394      11.027      8.2547      6.1067      4.5458      3.5004    
  2.8901      2.6454      2.7170      3.0748      3.6990      4.5658      5.6349      6.8399      8.0858      9.2539    
  10.215      10.848      11.070      10.848      10.215      9.2539      8.0858      6.8399      5.6349      4.5658    
  3.6990      3.0748      2.7170      2.6454      2.8901      3.5004      4.5458      6.1067      8.2547      11.027    
  14.394      18.228      22.277      26.164      29.431      31.619      19.059      18.639      17.441      15.642    
  13.478      11.197      9.0101      7.0702      5.4681      4.2409      3.3880      2.8901      2.7270      2.8901    
  3.3880      4.2409      5.4681      7.0702      9.0101      11.197      13.478      15.642      17.441      18.639    
  19.059      18.639      17.441      15.642      13.478      11.197      9.0101      7.0702      5.4681      4.2409    
  3.3880      2.8901      2.7270      2.8901      3.3880      4.2409      5.4681      7.0702      9.0101      11.197    
  13.478      15.642      17.441      18.639      11.070      10.848      10.215      9.2539      8.0858      6.8399    
  5.6349      4.5658      3.6990      3.0748      2.7170      2.6454      2.8901      3.5004      4.5458      6.1067    
  8.2547      11.027      14.394      18.228      22.277      26.164      29.431      31.619      32.391      31.619    
  29.431      26.164      22.277      18.228      14.394      11.027      8.2547      6.1067      4.5458      3.5004    
  2.8901      2.6454      2.7170      3.0748      3.6990      4.5658      5.6349      6.8399      8.0858      9.2539    
  10.215      10.848      6.4169      6.3034      5.9772      5.4784      4.8660      4.2085      3.5751      3.0292    
  2.6241      2.4049      2.4168      2.7170      3.3880      4.5458      6.3385      8.9325      12.486      17.112    
  22.817      29.434      36.552      43.497      49.405      53.397      54.810      53.397      49.405      43.497    
  36.552      29.434      22.817      17.112      12.486      8.9325      6.3385      4.5458      3.3880      2.7170    
  2.4168      2.4049      2.6241      3.0292      3.5751      4.2085      4.8660      5.4784      5.9772      6.3034    
  3.8625      3.7992      3.6182      3.3439      3.0121      2.6659      2.3522      2.1183      2.0116      2.0841    
  2.4049      3.0748      4.2409      6.1067      8.9325      13.022      18.694      26.222      35.725      47.011    
  59.403      71.690      82.256      89.440      91.991      89.440      82.256      71.690      59.403      47.011    
  35.725      26.222      18.694      13.022      8.9325      6.1067      4.2409      3.0748      2.4049      2.0841    
  2.0116      2.1183      2.3522      2.6659      3.0121      3.3439      3.6182      3.7992      2.3862      2.3492    
  2.2454      2.0936      1.9188      1.7518      1.6306      1.5983      1.7035      2.0116      2.6241      3.6990    
  5.4681      8.2547      12.486      18.694      27.485      39.445      54.931      73.722      94.678      115.64    
  133.72      146.02      150.37      146.02      133.72      115.64      94.678      73.722      54.931      39.445    
  27.485      18.694      12.486      8.2547      5.4681      3.6990      2.6241      2.0116      1.7035      1.5983    
  1.6306      1.7518      1.9188      2.0936      2.2454      2.3492      1.3986      1.3822      1.3401      1.2855    
  1.2297      1.1910      1.2054      1.3221      1.5983      2.1183      3.0292      4.5658      7.0702      11.027    
  17.112      26.222      39.445      57.897      82.300      112.32      145.95      178.84      205.47      222.38    
  228.11      222.38      205.47      178.84      145.95      112.32      82.300      57.897      39.445      26.222    
  17.112      11.027      7.0702      4.5658      3.0292      2.1183      1.5983      1.3221      1.2054      1.1910    
  1.2297      1.2855      1.3401      1.3822     0.82442     0.81663     0.80645     0.81147     0.83108     0.87095    
 0.97401      1.2054      1.6306      2.3522      3.5751      5.6349      9.0101      14.394      22.817      35.725    
  54.931      82.300      118.98      164.02      211.00      251.17      279.39      295.02      299.86      295.02    
  279.39      251.17      211.00      164.02      118.98      82.300      54.931      35.725      22.817      14.394    
  9.0101      5.6349      3.5751      2.3522      1.6306      1.2054     0.97401     0.87095     0.83108     0.81147    
 0.80645     0.81663     0.63029     0.61354     0.59403     0.61134     0.65686     0.72332     0.87095      1.1910    
  1.7518      2.6659      4.2085      6.8399      11.197      18.228      29.434      47.011      73.722      112.32    
  164.02      222.34      273.97      308.85      324.97      328.49      328.28      328.49      324.97      308.85    
  273.97      222.34      164.02      112.32      73.722      47.011      29.434      18.228      11.197      6.8399    
  4.2085      2.6659      1.7518      1.1910     0.87095     0.72332     0.65686     0.61134     0.59403     0.61354    
 0.54546     0.51441     0.47828     0.50783     0.57763     0.65686     0.83108      1.2297      1.9188      3.0121    
  4.8660      8.0858      13.478      22.277      36.552      59.403      94.678      145.95      211.00      273.97    
  316.61      328.33      313.32      289.77      278.80      289.77      313.32      328.33      316.61      273.97    
  211.00      145.95      94.678      59.403      36.552      22.277      13.478      8.0858      4.8660      3.0121    
  1.9188      1.2297     0.83108     0.65686     0.57763     0.50783     0.47828     0.51441     0.39025     0.34938    
 0.31402     0.38595     0.50783     0.61134     0.81147      1.2855      2.0936      3.3439      5.4784      9.2539    
  15.642      26.164      43.497      71.690      115.64      178.84      251.17      308.85      328.33      299.04    
  234.17      168.87      141.54      168.87      234.17      299.04      328.33      308.85      251.17      178.84    
  115.64      71.690      43.497      26.164      15.642      9.2539      5.4784      3.3439      2.0936      1.2855    
 0.81147     0.61134     0.50783     0.38595     0.31402     0.34938     0.30058     0.24763     0.20735     0.31402    
 0.47828     0.59403     0.80645      1.3401      2.2454      3.6182      5.9772      10.215      17.441      29.431    
  49.405      82.256      133.72      205.47      279.39      324.97      313.32      234.17      110.77     -2.7891    
 -48.920     -2.7891      110.77      234.17      313.32      324.97      279.39      205.47      133.72      82.256    
  49.405      29.431      17.441      10.215      5.9772      3.6182      2.2454      1.3401     0.80645     0.59403    
 0.47828     0.31402     0.20735     0.24763     0.38596     0.31510     0.24763     0.34938     0.51441     0.61354    
 0.81663      1.3822      2.3492      3.7992      6.3034      10.848      18.639      31.619      53.397      89.440    
  146.02      222.38      295.02      328.49      289.77      168.87     -2.7891     -155.90     -217.40     -155.90    
 -2.7891      168.87      289.77      328.49      295.02      222.38      146.02      89.440      53.397      31.619    
  18.639      10.848      6.3034      3.7992      2.3492      1.3822     0.81663     0.61354     0.51441     0.34938    
 0.24763     0.31510     0.46642     0.38596     0.30058     0.39025     0.54546     0.63029     0.82442      1.3986    
  2.3862      3.8625      6.4169      11.070      19.059      32.391      54.810      91.991      150.37      228.11    
  299.86      328.28      278.80      141.54     -48.920     -217.40     -284.88     -217.40     -48.920      141.54    
  278.80      328.28      299.86      228.11      150.37      91.991      54.810      32.391      19.059      11.070    
  6.4169      3.8625      2.3862      1.3986     0.82442     0.63029     0.54546     0.39025     0.30058     0.38596    
 0.38596     0.31510     0.24763     0.34938     0.51441     0.61354     0.81663      1.3822      2.3492      3.7992    
  6.3034      10.848      18.639      31.619      53.397      89.440      146.02      222.38      295.02      328.49    
  289.77      168.87     -2.7891     -155.90     -217.40     -155.90     -2.7891      168.87      289.77      328.49    
  295.02      222.38      146.02      89.440      53.397      31.619      18.639      10.848      6.3034      3.7992    
  2.3492      1.3822     0.81663     0.61354     0.51441     0.34938     0.24763     0.31510     0.30058     0.24763    
 0.20735     0.31402     0.47828     0.59403     0.80645      1.3401      2.2454      3.6182      5.9772      10.215    
  17.441      29.431      49.405      82.256      133.72      205.47      279.39      324.97      313.32      234.17    
  110.77     -2.7891     -48.920     -2.7891      110.77      234.17      313.32      324.97      279.39      205.47    
  133.72      82.256      49.405      29.431      17.441      10.215      5.9772      3.6182      2.2454      1.3401    
 0.80645     0.59403     0.47828     0.31402     0.20735     0.24763     0.39025     0.34938     0.31402     0.38595    
 0.50783     0.61134     0.81147      1.2855      2.0936      3.3439      5.4784      9.2539      15.642      26.164    
  43.497      71.690      115.64      178.84      251.17      308.85      328.33      299.04      234.17      168.87    
  141.54      168.87      234.17      299.04      328.33      308.85      251.17      178.84      115.64      71.690    
  43.497      26.164      15.642      9.2539      5.4784      3.3439      2.0936      1.2855     0.81147     0.61134    
 0.50783     0.38595     0.31402     0.34938     0.54546     0.51441     0.47828     0.50783     0.57763     0.65686    
 0.83108      1.2297      1.9188      3.0121      4.8660      8.0858      13.478      22.277      36.552      59.403    
  94.678      145.95      211.00      273.97      316.61      328.33      313.32      289.77      278.80      289.77    
  313.32      328.33      316.61      273.97      211.00      145.95      94.678      59.403      36.552      22.277    
  13.478      8.0858      4.8660      3.0121      1.9188      1.2297     0.83108     0.65686     0.57763     0.50783    
 0.47828     0.51441     0.63029     0.61354     0.59403     0.61134     0.65686     0.72332     0.87095      1.1910    
  1.7518      2.6659      4.2085      6.8399      11.197      18.228      29.434      47.011      73.722      112.32    
  164.02      222.34      273.97      308.85      324.97      328.49      328.28      328.49      324.97      308.85    
  273.97      222.34      164.02      112.32      73.722      47.011      29.434      18.228      11.197      6.8399    
  4.2085      2.6659      1.7518      1.1910     0.87095     0.72332     0.65686     0.61134     0.59403     0.61354    
 0.82442     0.81663     0.80645     0.81147     0.83108     0.87095     0.97401      1.2054      1.6306      2.3522    
  3.5751      5.6349      9.0101      14.394      22.817      35.725      54.931      82.300      118.98      164.02    
  211.00      251.17      279.39      295.02      299.86      295.02      279.39      251.17      211.00      164.02    
  118.98      82.300      54.931      35.725      22.817      14.394      9.0101      5.6349      3.5751      2.3522    
  1.6306      1.2054     0.97401     0.87095     0.83108     0.81147     0.80645     0.81663      1.3986      1.3822    
  1.3401      1.2855      1.2297      1.1910      1.2054      1.3221      1.5983      2.1183      3.0292      4.5658    
  7.0702      11.027      17.112      26.222      39.445      57.897      82.300      112.32      145.95      178.84    
  205.47      222.38      228.11      222.38      205.47      178.84      145.95      112.32      82.300      57.897    
  39.445      26.222      17.112      11.027      7.0702      4.5658      3.0292      2.1183      1.5983      1.3221    
  1.2054      1.1910      1.2297      1.2855      1.3401      1.3822      2.3862      2.3492      2.2454      2.0936    
  1.9188      1.7518      1.6306      1.5983      1.7035      2.0116      2.6241      3.6990      5.4681      8.2547    
  12.486      18.694      27.485      39.445      54.931      73.722      94.678      115.64      133.72      146.02    
  150.37      146.02      133.72      115.64      94.678      73.722      54.931      39.445      27.485      18.694    
  12.486      8.2547      5.4681      3.6990      2.6241      2.0116      1.7035      1.5983      1.6306      1.7518    
  1.9188      2.0936      2.2454      2.3492      3.8625      3.7992      3.6182      3.3439      3.0121      2.6659    
  2.3522      2.1183      2.0116      2.0841      2.4049      3.0748      4.2409      6.1067      8.9325      13.022    
  18.694      26.222      35.725      47.011      59.403      71.690      82.256      89.440      91.991      89.440    
  82.256      71.690      59.403      47.011      35.725      26.222      18.694      13.022      8.9325      6.1067    
  4.2409      3.0748      2.4049      2.0841      2.0116      2.1183      2.3522      2.6659      3.0121      3.3439    
  3.6182      3.7992      6.4169      6.3034      5.9772      5.4784      4.8660      4.2085      3.5751      3.0292    
  2.6241      2.4049      2.4168      2.7170      3.3880      4.5458      6.3385      8.9325      12.486      17.112    
  22.817      29.434      36.552      43.497      49.405      53.397      54.810      53.397      49.405      43.497    
  36.552      29.434      22.817      17.112      12.486      8.9325      6.3385      4.5458      3.3880      2.7170    
  2.4168      2.4049      2.6241      3.0292      3.5751      4.2085      4.8660      5.4784      5.9772      6.3034    
  11.070      10.848      10.215      9.2539      8.0858      6.8399      5.6349      4.5658      3.6990      3.0748    
  2.7170      2.6454      2.8901      3.5004      4.5458      6.1067      8.2547      11.027      14.394      18.228    
  22.277      26.164      29.431      31.619      32.391      31.619      29.431      26.164      22.277      18.228    
  14.394      11.027      8.2547      6.1067      4.5458      3.5004      2.8901      2.6454      2.7170      3.0748    
  3.6990      4.5658      5.6349      6.8399      8.0858      9.2539      10.215      10.848      19.059      18.639    
  17.441      15.642      13.478      11.197      9.0101      7.0702      5.4681      4.2409      3.3880      2.8901    
  2.7270      2.8901      3.3880      4.2409      5.4681      7.0702      9.0101      11.197      13.478      15.642    
  17.441      18.639      19.059      18.639      17.441      15.642      13.478      11.197      9.0101      7.0702    
  5.4681      4.2409      3.3880      2.8901      2.7270      2.8901      3.3880      4.2409      5.4681      7.0702    
  9.0101      11.197      13.478      15.642      17.441      18.639      32.391      31.619      29.431      26.164    
  22.277      18.228      14.394      11.027      8.2547      6.1067      4.5458      3.5004      2.8901      2.6454    
  2.7170      3.0748      3.6990      4.5658      5.6349      6.8399      8.0858      9.2539      10.215      10.848    
  11.070      10.848      10.215      9.2539      8.0858      6.8399      5.6349      4.5658      3.6990      3.0748    
  2.7170      2.6454      2.8901      3.5004      4.5458      6.1067      8.2547      11.027      14.394      18.228    
  22.277      26.164      29.431      31.619      54.810      53.397      49.405      43.497      36.552      29.434    
  22.817      17.112      12.486      8.9325      6.3385      4.5458      3.3880      2.7170      2.4168      2.4049    
  2.6241      3.0292      3.5751      4.2085      4.8660      5.4784      5.9772      6.3034      6.4169      6.3034    
  5.9772      5.4784      4.8660      4.2085      3.5751      3.0292      2.6241      2.4049      2.4168      2.7170    
  3.3880      4.5458      6.3385      8.9325      12.486      17.112      22.817      29.434      36.552      43.497    
  49.405      53.397      91.991      89.440      82.256      71.690      59.403      47.011      35.725      26.222    
  18.694      13.022      8.9325      6.1067      4.2409      3.0748      2.4049      2.0841      2.0116      2.1183    
  2.3522      2.6659      3.0121      3.3439      3.6182      3.7992      3.8625      3.7992      3.6182      3.3439    
  3.0121      2.6659      2.3522      2.1183      2.0116      2.0841      2.4049      3.0748      4.2409      6.1067    
  8.9325      13.022      18.694      26.222      35.725      47.011      59.403      71.690      82.256      89.440    
  150.37      146.02      133.72      115.64      94.678      73.722      54.931      39.445      27.485      18.694    
  12.486      8.2547      5.4681      3.6990      2.6241      2.0116      1.7035      1.5983      1.6306      1.7518    
  1.9188      2.0936      2.2454      2.3492      2.3862      2.3492      2.2454      2.0936      1.9188      1.7518    
  1.6306      1.5983      1.7035      2.0116      2.6241      3.6990      5.4681      8.2547      12.486      18.694    
  27.485      39.445      54.931      73.722      94.678      115.64      133.72      146.02      228.11      222.38    
  205.47      178.84      145.95      112.32      82.300      57.897      39.445      26.222      17.112      11.027    
  7.0702      4.5658      3.0292      2.1183      1.5983      1.3221      1.2054      1.1910      1.2297      1.2855    
  1.3401      1.3822      1.3986      1.3822      1.3401      1.2855      1.2297      1.1910      1.2054      1.3221    
  1.5983      2.1183      3.0292      4.5658      7.0702      11.027      17.112      26.222      39.445      57.897    
  82.300      112.32      145.95      178.84      205.47      222.38      299.86      295.02      279.39      251.17    
  211.00      164.02      118.98      82.300      54.931      35.725      22.817      14.394      9.0101      5.6349    
  3.5751      2.3522      1.6306      1.2054     0.97401     0.87095     0.83108     0.81147     0.80645     0.81663    
 0.82442     0.81663     0.80645     0.81147     0.83108     0.87095     0.97401      1.2054      1.6306      2.3522    
  3.5751      5.6349      9.0101      14.394      22.817      35.725      54.931      82.300      118.98      164.02    
  211.00      251.17      279.39      295.02      328.28      328.49      324.97      308.85      273.97      222.34    
  164.02      112.32      73.722      47.011      29.434      18.228      11.197      6.8399      4.2085      2.6659    
  1.7518      1.1910     0.87095     0.72332     0.65686     0.61134     0.59403     0.61354     0.63029     0.61354    
 0.59403     0.61134     0.65686     0.72332     0.87095      1.1910      1.7518      2.6659      4.2085      6.8399    
  11.197      18.228      29.434      47.011      73.722      112.32      164.02      222.34      273.97      308.85    
  324.97      328.49      278.80      289.77      313.32      328.33      316.61      273.97      211.00      145.95    
  94.678      59.403      36.552      22.277      13.478      8.0858      4.8660      3.0121      1.9188      1.2297    
 0.83108     0.65686     0.57763     0.50783     0.47828     0.51441     0.54546     0.51441     0.47828     0.50783    
 0.57763     0.65686     0.83108      1.2297      1.9188      3.0121      4.8660      8.0858      13.478      22.277    
  36.552      59.403      94.678      145.95      211.00      273.97      316.61      328.33      313.32      289.77    
  141.54      168.87      234.17      299.04      328.33      308.85      251.17      178.84      115.64      71.690    
  43.497      26.164      15.642      9.2539      5.4784      3.3439      2.0936      1.2855     0.81147     0.61134    
 0.50783     0.38595     0.31402     0.34938     0.39025     0.34938     0.31402     0.38595     0.50783     0.61134    
 0.81147      1.2855      2.0936      3.3439      5.4784      9.2539      15.642      26.164      43.497      71.690    
  115.64      178.84      251.17      308.85      328.33      299.04      234.17      168.87     -48.920     -2.7891    
  110.77      234.17      313.32      324.97      279.39      205.47      133.72      82.256      49.405      29.431    
  17.441      10.215      5.9772      3.6182      2.2454      1.3401     0.80645     0.59403     0.47828     0.31402    
 0.20735     0.24763     0.30058     0.24763     0.20735     0.31402     0.47828     0.59403     0.80645      1.3401    
  2.2454      3.6182      5.9772      10.215      17.441      29.431      49.405      82.256      133.72      205.47    
  279.39      324.97      313.32      234.17      110.77     -2.7891     -217.40     -155.90     -2.7891      168.87    
  289.77      328.49      295.02      222.38      146.02      89.440      53.397      31.619      18.639      10.848    
  6.3034      3.7992      2.3492      1.3822     0.81663     0.61354     0.51441     0.34938     0.24763     0.31510    
 0.38596     0.31510     0.24763     0.34938     0.51441     0.61354     0.81663      1.3822      2.3492      3.7992    
  6.3034      10.848      18.639      31.619      53.397      89.440      146.02      222.38      295.02      328.49    
  289.77      168.87     -2.7891     -155.90     -217.40     -155.90     -2.7891      168.87      289.77      328.49    
  295.02      222.38      146.02      89.440      53.397      31.619      18.639      10.848      6.3034      3.7992    
  2.3492      1.3822     0.81663     0.61354     0.51441     0.34938     0.24763     0.31510     0.38596     0.31510    
 0.24763     0.34938     0.51441     0.61354     0.81663      1.3822      2.3492      3.7992      6.3034      10.848    
  18.639      31.619      53.397      89.440      146.02      222.38      295.02      328.49      289.77      168.87    
 -2.7891     -155.90     -155.90     -99.921      38.970      193.25      299.08      327.95      289.97      216.68    
  141.79      86.969      52.026      30.869      18.229      10.632      6.1921      3.7372      2.3131      1.3663    
 0.80955     0.59882     0.48716     0.31393     0.20177     0.25304     0.31510     0.25304     0.20177     0.31393    
 0.48716     0.59882     0.80955      1.3663      2.3131      3.7372      6.1921      10.632      18.229      30.869    
  52.026      86.969      141.79      216.68      289.97      327.95      299.08      193.25      38.970     -99.921    
 -2.7891      38.970      141.30      251.03      318.45      322.62      273.90      199.97      129.87      80.007    
  48.151      28.740      17.062      10.012      5.8723      3.5598      2.2118      1.3253     0.80048     0.58300    
 0.45816     0.28843     0.17424     0.20177     0.24763     0.20177     0.17424     0.28843     0.45816     0.58300    
 0.80048      1.3253      2.2118      3.5598      5.8723      10.012      17.062      28.740      48.151      80.007    
  129.87      199.97      273.90      322.62      318.45      251.03      141.30      38.970      168.87      193.25    