Xe                                      
   1.00000000000000     
     7.054820    0.000000    0.000000
     0.000000    7.054820    0.000000
     0.000000    0.000000    7.054820
   Xe
     4
Direct
  0.000000  0.000000  0.000000
  0.000000  0.500000  0.500000
  0.500000  0.000000  0.500000
  0.500000  0.500000  0.000000
 
   48   48   48
 -.28487775107E+03 -.21740401991E+03 -.48920357518E+02 0.14154363493E+03 0.27880029548E+03
 0.32828386990E+03 0.29986037095E+03 0.22811242425E+03 0.15036589428E+03 0.91990718036E+02
 0.54809727735E+02 0.32391101661E+02 0.19059212464E+02 0.11070075408E+02 0.64169413358E+01
 0.38624512792E+01 0.23861863306E+01 0.13985587632E+01 0.82442444761E+00 0.63028679744E+00
 0.54546266848E+00 0.39024887431E+00 0.30057791144E+00 0.38596046803E+00 0.46641638393E+00
 0.38596046803E+00 0.30057791144E+00 0.39024887431E+00 0.54546266848E+00 0.63028679744E+00
 0.82442444761E+00 0.13985587632E+01 0.23861863306E+01 0.38624512792E+01 0.64169413358E+01
 0.11070075408E+02 0.19059212464E+02 0.32391101661E+02 0.54809727735E+02 0.91990718036E+02
 0.15036589428E+03 0.22811242425E+03 0.29986037095E+03 0.32828386990E+03 0.27880029548E+03
 0.14154363493E+03 -.48920357518E+02 -.21740401991E+03 -.21740401991E+03 -.15589990845E+03
 -.27890830381E+01 0.16886795902E+03 0.28976567749E+03 0.32848640012E+03 0.29501776592E+03
 0.22237505305E+03 0.14601551431E+03 0.89440352903E+02 0.53396853356E+02 0.31619468442E+02
 0.18638714776E+02 0.10848449269E+02 0.63034105781E+01 0.37991783037E+01 0.23491651949E+01
 0.13821883567E+01 0.81662578679E+00 0.61354298102E+00 0.51441336221E+00 0.34938384725E+00
 0.24763190755E+00 0.31510197118E+00 0.38596046803E+00 0.31510197118E+00 0.24763190755E+00
 0.34938384725E+00 0.51441336221E+00 0.61354298102E+00 0.81662578679E+00 0.13821883567E+01
 0.23491651949E+01 0.37991783037E+01 0.63034105781E+01 0.10848449269E+02 0.18638714776E+02
 0.31619468442E+02 0.53396853356E+02 0.89440352903E+02 0.14601551431E+03 0.22237505305E+03
 0.29501776592E+03 0.32848640012E+03 0.28976567749E+03 0.16886795902E+03 -.27890830381E+01
 -.15589990845E+03 -.48920357518E+02 -.27890830381E+01 0.11077297685E+03 0.23416732770E+03
 0.31332263168E+03 0.32496945580E+03 0.27938901337E+03 0.20547458527E+03 0.13372043586E+03
 0.82255731175E+02 0.49405140258E+02 0.29430598944E+02 0.17441497325E+02 0.10214622039E+02
 0.59771725640E+01 0.36181806128E+01 0.22454305901E+01 0.13401043940E+01 0.80644927429E+00
 0.59403292750E+00 0.47827741918E+00 0.31401905194E+00 0.20734751607E+00 0.24763190755E+00
 0.30057791144E+00 0.24763190755E+00 0.20734751607E+00 0.31401905194E+00 0.47827741918E+00
 0.59403292750E+00 0.80644927429E+00 0.13401043940E+01 0.22454305901E+01 0.36181806128E+01
 0.59771725640E+01 0.10214622039E+02 0.17441497325E+02 0.29430598944E+02 0.49405140258E+02
 0.82255731175E+02 0.13372043586E+03 0.20547458527E+03 0.27938901337E+03 0.32496945580E+03
 0.31332263168E+03 0.23416732770E+03 0.11077297685E+03 -.27890830381E+01 0.14154363493E+03
 0.16886795902E+03 0.23416732770E+03 0.29904144259E+03 0.32832854799E+03 0.30885200582E+03
 0.25117089105E+03 0.17883968745E+03 0.11563643882E+03 0.71689816592E+02 0.43497064747E+02
 0.26164215021E+02 0.15642016553E+02 0.92539043800E+01 0.54784387533E+01 0.33439057797E+01
 0.20936313272E+01 0.12855106184E+01 0.81147481528E+00 0.61134300477E+00 0.50782937488E+00
 0.38594998944E+00 0.31401905194E+00 0.34938384725E+00 0.39024887431E+00 0.34938384725E+00
 0.31401905194E+00 0.38594998944E+00 0.50782937488E+00 0.61134300477E+00 0.81147481528E+00
 0.12855106184E+01 0.20936313272E+01 0.33439057797E+01 0.54784387533E+01 0.92539043800E+01
 0.15642016553E+02 0.26164215021E+02 0.43497064747E+02 0.71689816592E+02 0.11563643882E+03
 0.17883968745E+03 0.25117089105E+03 0.30885200582E+03 0.32832854799E+03 0.29904144259E+03
 0.23416732770E+03 0.16886795902E+03 0.27880029548E+03 0.28976567749E+03 0.31332263168E+03
 0.32832854799E+03 0.31660533301E+03 0.27397310884E+03 0.21100481337E+03 0.14594954719E+03
 0.94677916433E+02 0.59403434219E+02 0.36551930177E+02 0.22276660687E+02 0.13478310114E+02
 0.80858176577E+01 0.48660396451E+01 0.30121247871E+01 0.19187786179E+01 0.12297384948E+01
 0.83107966144E+00 0.65686249252E+00 0.57763222839E+00 0.50782937488E+00 0.47827741918E+00
 0.51441336221E+00 0.54546266848E+00 0.51441336221E+00 0.47827741918E+00 0.50782937488E+00
 0.57763222839E+00 0.65686249252E+00 0.83107966144E+00 0.12297384948E+01 0.19187786179E+01
 0.30121247871E+01 0.48660396451E+01 0.80858176577E+01 0.13478310114E+02 0.22276660687E+02
 0.36551930177E+02 0.59403434219E+02 0.94677916433E+02 0.14594954719E+03 0.21100481337E+03
 0.27397310884E+03 0.31660533301E+03 0.32832854799E+03 0.31332263168E+03 0.28976567749E+03
 0.32828386990E+03 0.32848640012E+03 0.32496945580E+03 0.30885200582E+03 0.27397310884E+03
 0.22233933640E+03 0.16402047774E+03 0.11232101496E+03 0.73721653248E+02 0.47010523481E+02
 0.29433978142E+02 0.18227829522E+02 0.11197122271E+02 0.68398783707E+01 0.42084502079E+01
 0.26659229361E+01 0.17518055855E+01 0.11909832779E+01 0.87094607665E+00 0.72331595795E+00
 0.65686249252E+00 0.61134300477E+00 0.59403292750E+00 0.61354298102E+00 0.63028679744E+00
 0.61354298102E+00 0.59403292750E+00 0.61134300477E+00 0.65686249252E+00 0.72331595795E+00
 0.87094607665E+00 0.11909832779E+01 0.17518055855E+01 0.26659229361E+01 0.42084502079E+01
 0.68398783707E+01 0.11197122271E+02 0.18227829522E+02 0.29433978142E+02 0.47010523481E+02
 0.73721653248E+02 0.11232101496E+03 0.16402047774E+03 0.22233933640E+03 0.27397310884E+03
 0.30885200582E+03 0.32496945580E+03 0.32848640012E+03 0.29986037095E+03 0.29501776592E+03
 0.27938901337E+03 0.25117089105E+03 0.21100481337E+03 0.16402047774E+03 0.11897682207E+03
 0.82300223443E+02 0.54931116541E+02 0.35725442190E+02 0.22817018393E+02 0.14394004004E+02
 0.90100542418E+01 0.56348862164E+01 0.35750841330E+01 0.23521960254E+01 0.16306379935E+01
 0.12053748166E+01 0.97401389306E+00 0.87094607665E+00 0.83107966144E+00 0.81147481528E+00
 0.80644927429E+00 0.81662578679E+00 0.82442444761E+00 0.81662578679E+00 0.80644927429E+00
 0.81147481528E+00 0.83107966144E+00 0.87094607665E+00 0.97401389306E+00 0.12053748166E+01
 0.16306379935E+01 0.23521960254E+01 0.35750841330E+01 0.56348862164E+01 0.90100542418E+01
 0.14394004004E+02 0.22817018393E+02 0.35725442190E+02 0.54931116541E+02 0.82300223443E+02
 0.11897682207E+03 0.16402047774E+03 0.21100481337E+03 0.25117089105E+03 0.27938901337E+03
 0.29501776592E+03 0.22811242425E+03 0.22237505305E+03 0.20547458527E+03 0.17883968745E+03
 0.14594954719E+03 0.11232101496E+03 0.82300223443E+02 0.57896921917E+02 0.39445431333E+02
 0.26221948425E+02 0.17111921999E+02 0.11026952192E+02 0.70701968001E+01 0.45658032813E+01
 0.30291793376E+01 0.21183478130E+01 0.15983298712E+01 0.13221335897E+01 0.12053748166E+01
 0.11909832779E+01 0.12297384948E+01 0.12855106184E+01 0.13401043940E+01 0.13821883567E+01
 0.13985587632E+01 0.13821883567E+01 0.13401043940E+01 0.12855106184E+01 0.12297384948E+01
 0.11909832779E+01 0.12053748166E+01 0.13221335897E+01 0.15983298712E+01 0.21183478130E+01
 0.30291793376E+01 0.45658032813E+01 0.70701968001E+01 0.11026952192E+02 0.17111921999E+02
 0.26221948425E+02 0.39445431333E+02 0.57896921917E+02 0.82300223443E+02 0.11232101496E+03
 0.14594954719E+03 0.17883968745E+03 0.20547458527E+03 0.22237505305E+03 0.15036589428E+03
 0.14601551431E+03 0.13372043586E+03 0.11563643882E+03 0.94677916433E+02 0.73721653248E+02
 0.54931116541E+02 0.39445431333E+02 0.27484878405E+02 0.18694421942E+02 0.12486420164E+02
 0.82547428634E+01 0.54681118324E+01 0.36989571344E+01 0.26240704155E+01 0.20115687443E+01
 0.17035380587E+01 0.15983298712E+01 0.16306379935E+01 0.17518055855E+01 0.19187786179E+01
 0.20936313272E+01 0.22454305901E+01 0.23491651949E+01 0.23861863306E+01 0.23491651949E+01
 0.22454305901E+01 0.20936313272E+01 0.19187786179E+01 0.17518055855E+01 0.16306379935E+01
 0.15983298712E+01 0.17035380587E+01 0.20115687443E+01 0.26240704155E+01 0.36989571344E+01
 0.54681118324E+01 0.82547428634E+01 0.12486420164E+02 0.18694421942E+02 0.27484878405E+02
 0.39445431333E+02 0.54931116541E+02 0.73721653248E+02 0.94677916433E+02 0.11563643882E+03
 0.13372043586E+03 0.14601551431E+03 0.91990718036E+02 0.89440352903E+02 0.82255731175E+02
 0.71689816592E+02 0.59403434219E+02 0.47010523481E+02 0.35725442190E+02 0.26221948425E+02
 0.18694421942E+02 0.13022407666E+02 0.89324990188E+01 0.61066656069E+01 0.42408574675E+01
 0.30748020823E+01 0.24049427954E+01 0.20841120438E+01 0.20115687443E+01 0.21183478130E+01
 0.23521960254E+01 0.26659229361E+01 0.30121247871E+01 0.33439057797E+01 0.36181806128E+01
 0.37991783037E+01 0.38624512792E+01 0.37991783037E+01 0.36181806128E+01 0.33439057797E+01
 0.30121247871E+01 0.26659229361E+01 0.23521960254E+01 0.21183478130E+01 0.20115687443E+01
 0.20841120438E+01 0.24049427954E+01 0.30748020823E+01 0.42408574675E+01 0.61066656069E+01
 0.89324990188E+01 0.13022407666E+02 0.18694421942E+02 0.26221948425E+02 0.35725442190E+02
 0.47010523481E+02 0.59403434219E+02 0.71689816592E+02 0.82255731175E+02 0.89440352903E+02
 0.54809727735E+02 0.53396853356E+02 0.49405140258E+02 0.43497064747E+02 0.36551930177E+02
 0.29433978142E+02 0.22817018393E+02 0.17111921999E+02 0.12486420164E+02 0.89324990188E+01
 0.63385379740E+01 0.45458180239E+01 0.33879673801E+01 0.27169676757E+01 0.24168089952E+01
 0.24049427954E+01 0.26240704155E+01 0.30291793376E+01 0.35750841330E+01 0.42084502079E+01
 0.48660396451E+01 0.54784387533E+01 0.59771725640E+01 0.63034105781E+01 0.64169413358E+01
 0.63034105781E+01 0.59771725640E+01 0.54784387533E+01 0.48660396451E+01 0.42084502079E+01
 0.35750841330E+01 0.30291793376E+01 0.26240704155E+01 0.24049427954E+01 0.24168089952E+01
 0.27169676757E+01 0.33879673801E+01 0.45458180239E+01 0.63385379740E+01 0.89324990188E+01
 0.12486420164E+02 0.17111921999E+02 0.22817018393E+02 0.29433978142E+02 0.36551930177E+02
 0.43497064747E+02 0.49405140258E+02 0.53396853356E+02 0.32391101661E+02 0.31619468442E+02
 0.29430598944E+02 0.26164215021E+02 0.22276660687E+02 0.18227829522E+02 0.14394004004E+02
 0.11026952192E+02 0.82547428634E+01 0.61066656069E+01 0.45458180239E+01 0.35003995405E+01
 0.28901300259E+01 0.26454260995E+01 0.27169676757E+01 0.30748020823E+01 0.36989571344E+01
 0.45658032813E+01 0.56348862164E+01 0.68398783707E+01 0.80858176577E+01 0.92539043800E+01
 0.10214622039E+02 0.10848449269E+02 0.11070075408E+02 0.10848449269E+02 0.10214622039E+02
 0.92539043800E+01 0.80858176577E+01 0.68398783707E+01 0.56348862164E+01 0.45658032813E+01
 0.36989571344E+01 0.30748020823E+01 0.27169676757E+01 0.26454260995E+01 0.28901300259E+01
 0.35003995405E+01 0.45458180239E+01 0.61066656069E+01 0.82547428634E+01 0.11026952192E+02
 0.14394004004E+02 0.18227829522E+02 0.22276660687E+02 0.26164215021E+02 0.29430598944E+02
 0.31619468442E+02 0.19059212464E+02 0.18638714776E+02 0.17441497325E+02 0.15642016553E+02
 0.13478310114E+02 0.11197122271E+02 0.90100542418E+01 0.70701968001E+01 0.54681118324E+01
 0.42408574675E+01 0.33879673801E+01 0.28901300259E+01 0.27269815363E+01 0.28901300259E+01
 0.33879673801E+01 0.42408574675E+01 0.54681118324E+01 0.70701968001E+01 0.90100542418E+01
 0.11197122271E+02 0.13478310114E+02 0.15642016553E+02 0.17441497325E+02 0.18638714776E+02
 0.19059212464E+02 0.18638714776E+02 0.17441497325E+02 0.15642016553E+02 0.13478310114E+02
 0.11197122271E+02 0.90100542418E+01 0.70701968001E+01 0.54681118324E+01 0.42408574675E+01
 0.33879673801E+01 0.28901300259E+01 0.27269815363E+01 0.28901300259E+01 0.33879673801E+01
 0.42408574675E+01 0.54681118324E+01 0.70701968001E+01 0.90100542418E+01 0.11197122271E+02
 0.13478310114E+02 0.15642016553E+02 0.17441497325E+02 0.18638714776E+02 0.11070075408E+02
 0.10848449269E+02 0.10214622039E+02 0.92539043800E+01 0.80858176577E+01 0.68398783707E+01
 0.56348862164E+01 0.45658032813E+01 0.36989571344E+01 0.30748020823E+01 0.27169676757E+01
 0.26454260995E+01 0.28901300259E+01 0.35003995405E+01 0.45458180239E+01 0.61066656069E+01
 0.82547428634E+01 0.11026952192E+02 0.14394004004E+02 0.18227829522E+02 0.22276660687E+02
 0.26164215021E+02 0.29430598944E+02 0.31619468442E+02 0.32391101661E+02 0.31619468442E+02
 0.29430598944E+02 0.26164215021E+02 0.22276660687E+02 0.18227829522E+02 0.14394004004E+02
 0.11026952192E+02 0.82547428634E+01 0.61066656069E+01 0.45458180239E+01 0.35003995405E+01
 0.28901300259E+01 0.26454260995E+01 0.27169676757E+01 0.30748020823E+01 0.36989571344E+01
 0.45658032813E+01 0.56348862164E+01 0.68398783707E+01 0.80858176577E+01 0.92539043800E+01
 0.10214622039E+02 0.10848449269E+02 0.64169413358E+01 0.63034105781E+01 0.59771725640E+01
 0.54784387533E+01 0.48660396451E+01 0.42084502079E+01 0.35750841330E+01 0.30291793376E+01
 0.26240704155E+01 0.24049427954E+01 0.24168089952E+01 0.27169676757E+01 0.33879673801E+01
 0.45458180239E+01 0.63385379740E+01 0.89324990188E+01 0.12486420164E+02 0.17111921999E+02
 0.22817018393E+02 0.29433978142E+02 0.36551930177E+02 0.43497064747E+02 0.49405140258E+02
 0.53396853356E+02 0.54809727735E+02 0.53396853356E+02 0.49405140258E+02 0.43497064747E+02
 0.36551930177E+02 0.29433978142E+02 0.22817018393E+02 0.17111921999E+02 0.12486420164E+02
 0.89324990188E+01 0.63385379740E+01 0.45458180239E+01 0.33879673801E+01 0.27169676757E+01
 0.24168089952E+01 0.24049427954E+01 0.26240704155E+01 0.30291793376E+01 0.35750841330E+01
 0.42084502079E+01 0.48660396451E+01 0.54784387533E+01 0.59771725640E+01 0.63034105781E+01
 0.38624512792E+01 0.37991783037E+01 0.36181806128E+01 0.33439057797E+01 0.30121247871E+01
 0.26659229361E+01 0.23521960254E+01 0.21183478130E+01 0.20115687443E+01 0.20841120438E+01
 0.24049427954E+01 0.30748020823E+01 0.42408574675E+01 0.61066656069E+01 0.89324990188E+01
 0.13022407666E+02 0.18694421942E+02 0.26221948425E+02 0.35725442190E+02 0.47010523481E+02
 0.59403434219E+02 0.71689816592E+02 0.82255731175E+02 0.89440352903E+02 0.91990718036E+02
 0.89440352903E+02 0.82255731175E+02 0.71689816592E+02 0.59403434219E+02 0.47010523481E+02
 0.35725442190E+02 0.26221948425E+02 0.18694421942E+02 0.13022407666E+02 0.89324990188E+01
 0.61066656069E+01 0.42408574675E+01 0.30748020823E+01 0.24049427954E+01 0.20841120438E+01
 0.20115687443E+01 0.21183478130E+01 0.23521960254E+01 0.26659229361E+01 0.30121247871E+01
 0.33439057797E+01 0.36181806128E+01 0.37991783037E+01 0.23861863306E+01 0.23491651949E+01
 0.22454305901E+01 0.20936313272E+01 0.19187786179E+01 0.17518055855E+01 0.16306379935E+01
 0.15983298712E+01 0.17035380587E+01 0.20115687443E+01 0.26240704155E+01 0.36989571344E+01
 0.54681118324E+01 0.82547428634E+01 0.12486420164E+02 0.18694421942E+02 0.27484878405E+02
 0.39445431333E+02 0.54931116541E+02 0.73721653248E+02 0.94677916433E+02 0.11563643882E+03
 0.13372043586E+03 0.14601551431E+03 0.15036589428E+03 0.14601551431E+03 0.13372043586E+03
 0.11563643882E+03 0.94677916433E+02 0.73721653248E+02 0.54931116541E+02 0.39445431333E+02
 0.27484878405E+02 0.18694421942E+02 0.12486420164E+02 0.82547428634E+01 0.54681118324E+01
 0.36989571344E+01 0.26240704155E+01 0.20115687443E+01 0.17035380587E+01 0.15983298712E+01
 0.16306379935E+01 0.17518055855E+01 0.19187786179E+01 0.20936313272E+01 0.22454305901E+01
 0.23491651949E+01 0.13985587632E+01 0.13821883567E+01 0.13401043940E+01 0.12855106184E+01
 0.12297384948E+01 0.11909832779E+01 0.12053748166E+01 0.13221335897E+01 0.15983298712E+01
 0.21183478130E+01 0.30291793376E+01 0.45658032813E+01 0.70701968001E+01 0.11026952192E+02
 0.17111921999E+02 0.26221948425E+02 0.39445431333E+02 0.57896921917E+02 0.82300223443E+02
 0.11232101496E+03 0.14594954719E+03 0.17883968745E+03 0.20547458527E+03 0.22237505305E+03
 0.22811242425E+03 0.22237505305E+03 0.20547458527E+03 0.17883968745E+03 0.14594954719E+03
 0.11232101496E+03 0.82300223443E+02 0.57896921917E+02 0.39445431333E+02 0.26221948425E+02
 0.17111921999E+02 0.11026952192E+02 0.70701968001E+01 0.45658032813E+01 0.30291793376E+01
 0.21183478130E+01 0.15983298712E+01 0.13221335897E+01 0.12053748166E+01 0.11909832779E+01
 0.12297384948E+01 0.12855106184E+01 0.13401043940E+01 0.13821883567E+01 0.82442444761E+00
 0.81662578679E+00 0.80644927429E+00 0.81147481528E+00 0.83107966144E+00 0.87094607665E+00
 0.97401389306E+00 0.12053748166E+01 0.16306379935E+01 0.23521960254E+01 0.35750841330E+01
 0.56348862164E+01 0.90100542418E+01 0.14394004004E+02 0.22817018393E+02 0.35725442190E+02
 0.54931116541E+02 0.82300223443E+02 0.11897682207E+03 0.16402047774E+03 0.21100481337E+03
 0.25117089105E+03 0.27938901337E+03 0.29501776592E+03 0.29986037095E+03 0.29501776592E+03
 0.27938901337E+03 0.25117089105E+03 0.21100481337E+03 0.16402047774E+03 0.11897682207E+03
 0.82300223443E+02 0.54931116541E+02 0.35725442190E+02 0.22817018393E+02 0.14394004004E+02
 0.90100542418E+01 0.56348862164E+01 0.35750841330E+01 0.23521960254E+01 0.16306379935E+01
 0.12053748166E+01 0.97401389306E+00 0.87094607665E+00 0.83107966144E+00 0.81147481528E+00
 0.80644927429E+00 0.81662578679E+00 0.63028679744E+00 0.61354298102E+00 0.59403292750E+00
 0.61134300477E+00 0.65686249252E+00 0.72331595795E+00 0.87094607665E+00 0.11909832779E+01
 0.17518055855E+01 0.26659229361E+01 0.42084502079E+01 0.68398783707E+01 0.11197122271E+02
 0.18227829522E+02 0.29433978142E+02 0.47010523481E+02 0.73721653248E+02 0.11232101496E+03
 0.16402047774E+03 0.22233933640E+03 0.27397310884E+03 0.30885200582E+03 0.32496945580E+03
 0.32848640012E+03 0.32828386990E+03 0.32848640012E+03 0.32496945580E+03 0.30885200582E+03
 0.27397310884E+03 0.22233933640E+03 0.16402047774E+03 0.11232101496E+03 0.73721653248E+02
 0.47010523481E+02 0.29433978142E+02 0.18227829522E+02 0.11197122271E+02 0.68398783707E+01
 0.42084502079E+01 0.26659229361E+01 0.17518055855E+01 0.11909832779E+01 0.87094607665E+00
 0.72331595795E+00 0.65686249252E+00 0.61134300477E+00 0.59403292750E+00 0.61354298102E+00
 0.54546266848E+00 0.51441336221E+00 0.47827741918E+00 0.50782937488E+00 0.57763222839E+00
 0.65686249252E+00 0.83107966144E+00 0.12297384948E+01 0.19187786179E+01 0.30121247871E+01
 0.48660396451E+01 0.80858176577E+01 0.13478310114E+02 0.22276660687E+02 0.36551930177E+02
 0.59403434219E+02 0.94677916433E+02 0.14594954719E+03 0.21100481337E+03 0.27397310884E+03
 0.31660533301E+03 0.32832854799E+03 0.31332263168E+03 0.28976567749E+03 0.27880029548E+03
 0.28976567749E+03 0.31332263168E+03 0.32832854799E+03 0.31660533301E+03 0.27397310884E+03
 0.21100481337E+03 0.14594954719E+03 0.94677916433E+02 0.59403434219E+02 0.36551930177E+02
 0.22276660687E+02 0.13478310114E+02 0.80858176577E+01 0.48660396451E+01 0.30121247871E+01
 0.19187786179E+01 0.12297384948E+01 0.83107966144E+00 0.65686249252E+00 0.57763222839E+00
 0.50782937488E+00 0.47827741918E+00 0.51441336221E+00 0.39024887431E+00 0.34938384725E+00
 0.31401905194E+00 0.38594998944E+00 0.50782937488E+00 0.61134300477E+00 0.81147481528E+00
 0.12855106184E+01 0.20936313272E+01 0.33439057797E+01 0.54784387533E+01 0.92539043800E+01
 0.15642016553E+02 0.26164215021E+02 0.43497064747E+02 0.71689816592E+02 0.11563643882E+03
 0.17883968745E+03 0.25117089105E+03 0.30885200582E+03 0.32832854799E+03 0.29904144259E+03
 0.23416732770E+03 0.16886795902E+03 0.14154363493E+03 0.16886795902E+03 0.23416732770E+03
 0.29904144259E+03 0.32832854799E+03 0.30885200582E+03 0.25117089105E+03 0.17883968745E+03
 0.11563643882E+03 0.71689816592E+02 0.43497064747E+02 0.26164215021E+02 0.15642016553E+02
 0.92539043800E+01 0.54784387533E+01 0.33439057797E+01 0.20936313272E+01 0.12855106184E+01
 0.81147481528E+00 0.61134300477E+00 0.50782937488E+00 0.38594998944E+00 0.31401905194E+00
 0.34938384725E+00 0.30057791144E+00 0.24763190755E+00 0.20734751607E+00 0.31401905194E+00
 0.47827741918E+00 0.59403292750E+00 0.80644927429E+00 0.13401043940E+01 0.22454305901E+01
 0.36181806128E+01 0.59771725640E+01 0.10214622039E+02 0.17441497325E+02 0.29430598944E+02
 0.49405140258E+02 0.82255731175E+02 0.13372043586E+03 0.20547458527E+03 0.27938901337E+03
 0.32496945580E+03 0.31332263168E+03 0.23416732770E+03 0.11077297685E+03 -.27890830381E+01
 -.48920357518E+02 -.27890830381E+01 0.11077297685E+03 0.23416732770E+03 0.31332263168E+03
 0.32496945580E+03 0.27938901337E+03 0.20547458527E+03 0.13372043586E+03 0.82255731175E+02
 0.49405140258E+02 0.29430598944E+02 0.17441497325E+02 0.10214622039E+02 0.59771725640E+01
 0.36181806128E+01 0.22454305901E+01 0.13401043940E+01 0.80644927429E+00 0.59403292750E+00
 0.47827741918E+00 0.31401905194E+00 0.20734751607E+00 0.24763190755E+00 0.38596046803E+00
 0.31510197118E+00 0.24763190755E+00 0.34938384725E+00 0.51441336221E+00 0.61354298102E+00
 0.81662578679E+00 0.13821883567E+01 0.23491651949E+01 0.37991783037E+01 0.63034105781E+01
 0.10848449269E+02 0.18638714776E+02 0.31619468442E+02 0.53396853356E+02 0.89440352903E+02
 0.14601551431E+03 0.22237505305E+03 0.29501776592E+03 0.32848640012E+03 0.28976567749E+03
 0.16886795902E+03 -.27890830381E+01 -.15589990845E+03 -.21740401991E+03 -.15589990845E+03
 -.27890830381E+01 0.16886795902E+03 0.28976567749E+03 0.32848640012E+03 0.29501776592E+03
 0.22237505305E+03 0.14601551431E+03 0.89440352903E+02 0.53396853356E+02 0.31619468442E+02
 0.18638714776E+02 0.10848449269E+02 0.63034105781E+01 0.37991783037E+01 0.23491651949E+01
 0.13821883567E+01 0.81662578679E+00 0.61354298102E+00 0.51441336221E+00 0.34938384725E+00
 0.24763190755E+00 0.31510197118E+00 0.46641638393E+00 0.38596046803E+00 0.30057791144E+00
 0.39024887431E+00 0.54546266848E+00 0.63028679744E+00 0.82442444761E+00 0.13985587632E+01
 0.23861863306E+01 0.38624512792E+01 0.64169413358E+01 0.11070075408E+02 0.19059212464E+02
 0.32391101661E+02 0.54809727735E+02 0.91990718036E+02 0.15036589428E+03 0.22811242425E+03
 0.29986037095E+03 0.32828386990E+03 0.27880029548E+03 0.14154363493E+03 -.48920357518E+02
 -.21740401991E+03 -.28487775107E+03 -.21740401991E+03 -.48920357518E+02 0.14154363493E+03
 0.27880029548E+03 0.32828386990E+03 0.29986037095E+03 0.22811242425E+03 0.15036589428E+03
 0.91990718036E+02 0.54809727735E+02 0.32391101661E+02 0.19059212464E+02 0.11070075408E+02
 0.64169413358E+01 0.38624512792E+01 0.23861863306E+01 0.13985587632E+01 0.82442444761E+00
 0.63028679744E+00 0.54546266848E+00 0.39024887431E+00 0.30057791144E+00 0.38596046803E+00
 0.38596046803E+00 0.31510197118E+00 0.24763190755E+00 0.34938384725E+00 0.51441336221E+00
 0.61354298102E+00 0.81662578679E+00 0.13821883567E+01 0.23491651949E+01 0.37991783037E+01
 0.63034105781E+01 0.10848449269E+02 0.18638714776E+02 0.31619468442E+02 0.53396853356E+02
 0.89440352903E+02 0.14601551431E+03 0.22237505305E+03 0.29501776592E+03 0.32848640012E+03
 0.28976567749E+03 0.16886795902E+03 -.27890830381E+01 -.15589990845E+03 -.21740401991E+03
 -.15589990845E+03 -.27890830381E+01 0.16886795902E+03 0.28976567749E+03 0.32848640012E+03
 0.29501776592E+03 0.22237505305E+03 0.14601551431E+03 0.89440352903E+02 0.53396853356E+02
 0.31619468442E+02 0.18638714776E+02 0.10848449269E+02 0.63034105781E+01 0.37991783037E+01
 0.23491651949E+01 0.13821883567E+01 0.81662578679E+00 0.61354298102E+00 0.51441336221E+00
 0.34938384725E+00 0.24763190755E+00 0.31510197118E+00 0.30057791144E+00 0.24763190755E+00
 0.20734751607E+00 0.31401905194E+00 0.47827741918E+00 0.59403292750E+00 0.80644927429E+00
 0.13401043940E+01 0.22454305901E+01 0.36181806128E+01 0.59771725640E+01 0.10214622039E+02
 0.17441497325E+02 0.29430598944E+02 0.49405140258E+02 0.82255731175E+02 0.13372043586E+03
 0.20547458527E+03 0.27938901337E+03 0.32496945580E+03 0.31332263168E+03 0.23416732770E+03
 0.11077297685E+03 -.27890830381E+01 -.48920357518E+02 -.27890830381E+01 0.11077297685E+03
 0.23416732770E+03 0.31332263168E+03 0.32496945580E+03 0.27938901337E+03 0.20547458527E+03
 0.13372043586E+03 0.82255731175E+02 0.49405140258E+02 0.29430598944E+02 0.17441497325E+02
 0.10214622039E+02 0.59771725640E+01 0.36181806128E+01 0.22454305901E+01 0.13401043940E+01
 0.80644927429E+00 0.59403292750E+00 0.47827741918E+00 0.31401905194E+00 0.20734751607E+00
 0.24763190755E+00 0.39024887431E+00 0.34938384725E+00 0.31401905194E+00 0.38594998944E+00
 0.50782937488E+00 0.61134300477E+00 0.81147481528E+00 0.12855106184E+01 0.20936313272E+01
 0.33439057797E+01 0.54784387533E+01 0.92539043800E+01 0.15642016553E+02 0.26164215021E+02
 0.43497064747E+02 0.71689816592E+02 0.11563643882E+03 0.17883968745E+03 0.25117089105E+03
 0.30885200582E+03 0.32832854799E+03 0.29904144259E+03 0.23416732770E+03 0.16886795902E+03
 0.14154363493E+03 0.16886795902E+03 0.23416732770E+03 0.29904144259E+03 0.32832854799E+03
 0.30885200582E+03 0.25117089105E+03 0.17883968745E+03 0.11563643882E+03 0.71689816592E+02
 0.43497064747E+02 0.26164215021E+02 0.15642016553E+02 0.92539043800E+01 0.54784387533E+01
 0.33439057797E+01 0.20936313272E+01 0.12855106184E+01 0.81147481528E+00 0.61134300477E+00
 0.50782937488E+00 0.38594998944E+00 0.31401905194E+00 0.34938384725E+00 0.54546266848E+00
 0.51441336221E+00 0.47827741918E+00 0.50782937488E+00 0.57763222839E+00 0.65686249252E+00
 0.83107966144E+00 0.12297384948E+01 0.19187786179E+01 0.30121247871E+01 0.48660396451E+01
 0.80858176577E+01 0.13478310114E+02 0.22276660687E+02 0.36551930177E+02 0.59403434219E+02
 0.94677916433E+02 0.14594954719E+03 0.21100481337E+03 0.27397310884E+03 0.31660533301E+03
 0.32832854799E+03 0.31332263168E+03 0.28976567749E+03 0.27880029548E+03 0.28976567749E+03
 0.31332263168E+03 0.32832854799E+03 0.31660533301E+03 0.27397310884E+03 0.21100481337E+03
 0.14594954719E+03 0.94677916433E+02 0.59403434219E+02 0.36551930177E+02 0.22276660687E+02
 0.13478310114E+02 0.80858176577E+01 0.48660396451E+01 0.30121247871E+01 0.19187786179E+01
 0.12297384948E+01 0.83107966144E+00 0.65686249252E+00 0.57763222839E+00 0.50782937488E+00
 0.47827741918E+00 0.51441336221E+00 0.63028679744E+00 0.61354298102E+00 0.59403292750E+00
 0.61134300477E+00 0.65686249252E+00 0.72331595795E+00 0.87094607665E+00 0.11909832779E+01
 0.17518055855E+01 0.26659229361E+01 0.42084502079E+01 0.68398783707E+01 0.11197122271E+02
 0.18227829522E+02 0.29433978142E+02 0.47010523481E+02 0.73721653248E+02 0.11232101496E+03
 0.16402047774E+03 0.22233933640E+03 0.27397310884E+03 0.30885200582E+03 0.32496945580E+03
 0.32848640012E+03 0.32828386990E+03 0.32848640012E+03 0.32496945580E+03 0.30885200582E+03
 0.27397310884E+03 0.22233933640E+03 0.16402047774E+03 0.11232101496E+03 0.73721653248E+02
 0.47010523481E+02 0.29433978142E+02 0.18227829522E+02 0.11197122271E+02 0.68398783707E+01
 0.42084502079E+01 0.26659229361E+01 0.17518055855E+01 0.11909832779E+01 0.87094607665E+00
 0.72331595795E+00 0.65686249252E+00 0.61134300477E+00 0.59403292750E+00 0.61354298102E+00
 0.82442444761E+00 0.81662578679E+00 0.80644927429E+00 0.81147481528E+00 0.83107966144E+00
 0.87094607665E+00 0.97401389306E+00 0.12053748166E+01 0.16306379935E+01 0.23521960254E+01
 0.35750841330E+01 0.56348862164E+01 0.90100542418E+01 0.14394004004E+02 0.22817018393E+02
 0.35725442190E+02 0.54931116541E+02 0.82300223443E+02 0.11897682207E+03 0.16402047774E+03
 0.21100481337E+03 0.25117089105E+03 0.27938901337E+03 0.29501776592E+03 0.29986037095E+03
 0.29501776592E+03 0.27938901337E+03 0.25117089105E+03 0.21100481337E+03 0.16402047774E+03
 0.11897682207E+03 0.82300223443E+02 0.54931116541E+02 0.35725442190E+02 0.22817018393E+02
 0.14394004004E+02 0.90100542418E+01 0.56348862164E+01 0.35750841330E+01 0.23521960254E+01
 0.16306379935E+01 0.12053748166E+01 0.97401389306E+00 0.87094607665E+00 0.83107966144E+00
 0.81147481528E+00 0.80644927429E+00 0.81662578679E+00 0.13985587632E+01 0.13821883567E+01
 0.13401043940E+01 0.12855106184E+01 0.12297384948E+01 0.11909832779E+01 0.12053748166E+01
 0.13221335897E+01 0.15983298712E+01 0.21183478130E+01 0.30291793376E+01 0.45658032813E+01
 0.70701968001E+01 0.11026952192E+02 0.17111921999E+02 0.26221948425E+02 0.39445431333E+02
 0.57896921917E+02 0.82300223443E+02 0.11232101496E+03 0.14594954719E+03 0.17883968745E+03
 0.20547458527E+03 0.22237505305E+03 0.22811242425E+03 0.22237505305E+03 0.20547458527E+03
 0.17883968745E+03 0.14594954719E+03 0.11232101496E+03 0.82300223443E+02 0.57896921917E+02
 0.39445431333E+02 0.26221948425E+02 0.17111921999E+02 0.11026952192E+02 0.70701968001E+01
 0.45658032813E+01 0.30291793376E+01 0.21183478130E+01 0.15983298712E+01 0.13221335897E+01
 0.12053748166E+01 0.11909832779E+01 0.12297384948E+01 0.12855106184E+01 0.13401043940E+01
 0.13821883567E+01 0.23861863306E+01 0.23491651949E+01 0.22454305901E+01 0.20936313272E+01
 0.19187786179E+01 0.17518055855E+01 0.16306379935E+01 0.15983298712E+01 0.17035380587E+01
 0.20115687443E+01 0.26240704155E+01 0.36989571344E+01 0.54681118324E+01 0.82547428634E+01
 0.12486420164E+02 0.18694421942E+02 0.27484878405E+02 0.39445431333E+02 0.54931116541E+02
 0.73721653248E+02 0.94677916433E+02 0.11563643882E+03 0.13372043586E+03 0.14601551431E+03
 0.15036589428E+03 0.14601551431E+03 0.13372043586E+03 0.11563643882E+03 0.94677916433E+02
 0.73721653248E+02 0.54931116541E+02 0.39445431333E+02 0.27484878405E+02 0.18694421942E+02
 0.12486420164E+02 0.82547428634E+01 0.54681118324E+01 0.36989571344E+01 0.26240704155E+01
 0.20115687443E+01 0.17035380587E+01 0.15983298712E+01 0.16306379935E+01 0.17518055855E+01
 0.19187786179E+01 0.20936313272E+01 0.22454305901E+01 0.23491651949E+01 0.38624512792E+01
 0.37991783037E+01 0.36181806128E+01 0.33439057797E+01 0.30121247871E+01 0.26659229361E+01
 0.23521960254E+01 0.21183478130E+01 0.20115687443E+01 0.20841120438E+01 0.24049427954E+01
 0.30748020823E+01 0.42408574675E+01 0.61066656069E+01 0.89324990188E+01 0.13022407666E+02
 0.18694421942E+02 0.26221948425E+02 0.35725442190E+02 0.47010523481E+02 0.59403434219E+02
 0.71689816592E+02 0.82255731175E+02 0.89440352903E+02 0.91990718036E+02 0.89440352903E+02
 0.82255731175E+02 0.71689816592E+02 0.59403434219E+02 0.47010523481E+02 0.35725442190E+02
 0.26221948425E+02 0.18694421942E+02 0.13022407666E+02 0.89324990188E+01 0.61066656069E+01
 0.42408574675E+01 0.30748020823E+01 0.24049427954E+01 0.20841120438E+01 0.20115687443E+01