   4   4   0   0
  0.8778045E+02  0.7054820E-09  0.7054820E-09  0.7054820E-09  0.5000000E-15
  1.000000000000000E-004
  CAR 
 Xe                                      
     10.54001490    -20.24931832  301     -6.79181393      1.00000000
    -20.249  0.0000E+00  0.0000E+00
    -20.147  0.0000E+00  0.0000E+00
    -20.044  0.0000E+00  0.0000E+00
    -19.941  0.0000E+00  0.0000E+00
    -19.839  0.0000E+00  0.0000E+00
    -19.736  0.0000E+00  0.0000E+00
    -19.634  0.0000E+00  0.0000E+00
    -19.531  0.0000E+00  0.0000E+00
    -19.428  0.0000E+00  0.0000E+00
    -19.326  0.0000E+00  0.0000E+00
    -19.223  0.0000E+00  0.0000E+00
    -19.120  0.5386E-14  0.5527E-15
    -19.018  0.1140E-05  0.1170E-06
    -18.915  0.1267E+00  0.1300E-01
    -18.812  0.2793E+02  0.2880E+01
    -18.710  0.4921E+02  0.7930E+01
    -18.607  0.6781E+00  0.8000E+01
    -18.505  0.7754E-05  0.8000E+01
    -18.402  0.2966E-13  0.8000E+01
    -18.299  0.0000E+00  0.8000E+01
    -18.197  0.0000E+00  0.8000E+01
    -18.094  0.0000E+00  0.8000E+01
    -17.991  0.0000E+00  0.8000E+01
    -17.889  0.0000E+00  0.8000E+01
    -17.786  0.0000E+00  0.8000E+01
    -17.684  0.0000E+00  0.8000E+01
    -17.581  0.0000E+00  0.8000E+01
    -17.478  0.0000E+00  0.8000E+01
    -17.376  0.0000E+00  0.8000E+01
    -17.273  0.0000E+00  0.8000E+01
    -17.170  0.0000E+00  0.8000E+01
    -17.068  0.0000E+00  0.8000E+01
    -16.965  0.0000E+00  0.8000E+01
    -16.862  0.0000E+00  0.8000E+01
    -16.760  0.0000E+00  0.8000E+01
    -16.657  0.0000E+00  0.8000E+01
    -16.555  0.0000E+00  0.8000E+01
    -16.452  0.0000E+00  0.8000E+01
    -16.349  0.0000E+00  0.8000E+01
    -16.247  0.0000E+00  0.8000E+01
    -16.144  0.0000E+00  0.8000E+01
    -16.041  0.0000E+00  0.8000E+01
    -15.939  0.0000E+00  0.8000E+01
    -15.836  0.0000E+00  0.8000E+01
    -15.734  0.0000E+00  0.8000E+01
    -15.631  0.0000E+00  0.8000E+01
    -15.528  0.0000E+00  0.8000E+01
    -15.426  0.0000E+00  0.8000E+01
    -15.323  0.0000E+00  0.8000E+01
    -15.220  0.0000E+00  0.8000E+01
    -15.118  0.0000E+00  0.8000E+01
    -15.015  0.0000E+00  0.8000E+01
    -14.913  0.0000E+00  0.8000E+01
    -14.810  0.0000E+00  0.8000E+01
    -14.707  0.0000E+00  0.8000E+01
    -14.605  0.0000E+00  0.8000E+01
    -14.502  0.0000E+00  0.8000E+01
    -14.399  0.0000E+00  0.8000E+01
    -14.297  0.0000E+00  0.8000E+01
    -14.194  0.0000E+00  0.8000E+01
    -14.091  0.0000E+00  0.8000E+01
    -13.989  0.0000E+00  0.8000E+01
    -13.886  0.0000E+00  0.8000E+01
    -13.784  0.0000E+00  0.8000E+01
    -13.681  0.0000E+00  0.8000E+01
    -13.578  0.0000E+00  0.8000E+01
    -13.476  0.0000E+00  0.8000E+01
    -13.373  0.0000E+00  0.8000E+01
    -13.270  0.0000E+00  0.8000E+01
    -13.168  0.0000E+00  0.8000E+01
    -13.065  0.0000E+00  0.8000E+01
    -12.963  0.0000E+00  0.8000E+01
    -12.860  0.0000E+00  0.8000E+01
    -12.757  0.0000E+00  0.8000E+01
    -12.655  0.0000E+00  0.8000E+01
    -12.552  0.0000E+00  0.8000E+01
    -12.449  0.0000E+00  0.8000E+01
    -12.347  0.0000E+00  0.8000E+01
    -12.244  0.0000E+00  0.8000E+01
    -12.141  0.0000E+00  0.8000E+01
    -12.039  0.0000E+00  0.8000E+01
    -11.936  0.0000E+00  0.8000E+01
    -11.834  0.0000E+00  0.8000E+01
    -11.731  0.0000E+00  0.8000E+01
    -11.628  0.0000E+00  0.8000E+01
    -11.526  0.0000E+00  0.8000E+01
    -11.423  0.0000E+00  0.8000E+01
    -11.320  0.0000E+00  0.8000E+01
    -11.218  0.0000E+00  0.8000E+01
    -11.115  0.0000E+00  0.8000E+01
    -11.013  0.0000E+00  0.8000E+01
    -10.910  0.0000E+00  0.8000E+01
    -10.807  0.0000E+00  0.8000E+01
    -10.705  0.0000E+00  0.8000E+01
    -10.602  0.0000E+00  0.8000E+01
    -10.499  0.0000E+00  0.8000E+01
    -10.397  0.0000E+00  0.8000E+01
    -10.294  0.0000E+00  0.8000E+01
    -10.191  0.0000E+00  0.8000E+01
    -10.089  0.0000E+00  0.8000E+01
     -9.986  0.0000E+00  0.8000E+01
     -9.884  0.0000E+00  0.8000E+01
     -9.781  0.0000E+00  0.8000E+01
     -9.678  0.0000E+00  0.8000E+01
     -9.576  0.0000E+00  0.8000E+01
     -9.473  0.0000E+00  0.8000E+01
     -9.370  0.0000E+00  0.8000E+01
     -9.268  0.0000E+00  0.8000E+01
     -9.165  0.0000E+00  0.8000E+01
     -9.063  0.0000E+00  0.8000E+01
     -8.960  0.0000E+00  0.8000E+01
     -8.857  0.0000E+00  0.8000E+01
     -8.755  0.0000E+00  0.8000E+01
     -8.652  0.0000E+00  0.8000E+01
     -8.549  0.0000E+00  0.8000E+01
     -8.447  0.0000E+00  0.8000E+01
     -8.344  0.0000E+00  0.8000E+01
     -8.241  0.0000E+00  0.8000E+01
     -8.139  0.0000E+00  0.8000E+01
     -8.036  0.0000E+00  0.8000E+01
     -7.934  0.1938E-13  0.8000E+01
     -7.831  0.1256E-05  0.8000E+01
     -7.728  0.5031E-01  0.8005E+01
     -7.626  0.5601E+01  0.8580E+01
     -7.523  0.3465E+02  0.1214E+02
     -7.420  0.2833E+02  0.1504E+02
     -7.318  0.2416E+02  0.1752E+02
     -7.215  0.4354E+02  0.2199E+02
     -7.113  0.6402E+02  0.2856E+02
     -7.010  0.3207E+02  0.3185E+02
     -6.907  0.1427E+01  0.3200E+02
     -6.805  0.4043E-03  0.3200E+02
     -6.702  0.8258E-10  0.3200E+02
     -6.599  0.0000E+00  0.3200E+02
     -6.497  0.0000E+00  0.3200E+02
     -6.394  0.0000E+00  0.3200E+02
     -6.291  0.0000E+00  0.3200E+02
     -6.189  0.0000E+00  0.3200E+02
     -6.086  0.0000E+00  0.3200E+02
     -5.984  0.0000E+00  0.3200E+02
     -5.881  0.0000E+00  0.3200E+02
     -5.778  0.0000E+00  0.3200E+02
     -5.676  0.0000E+00  0.3200E+02
     -5.573  0.0000E+00  0.3200E+02
     -5.470  0.0000E+00  0.3200E+02
     -5.368  0.0000E+00  0.3200E+02
     -5.265  0.0000E+00  0.3200E+02
     -5.163  0.0000E+00  0.3200E+02
     -5.060  0.0000E+00  0.3200E+02
     -4.957  0.0000E+00  0.3200E+02
     -4.855  0.0000E+00  0.3200E+02
     -4.752  0.0000E+00  0.3200E+02
     -4.649  0.0000E+00  0.3200E+02
     -4.547  0.0000E+00  0.3200E+02
     -4.444  0.0000E+00  0.3200E+02
     -4.341  0.0000E+00  0.3200E+02
     -4.239  0.0000E+00  0.3200E+02
     -4.136  0.0000E+00  0.3200E+02
     -4.034  0.0000E+00  0.3200E+02
     -3.931  0.0000E+00  0.3200E+02
     -3.828  0.0000E+00  0.3200E+02
     -3.726  0.0000E+00  0.3200E+02
     -3.623  0.0000E+00  0.3200E+02
     -3.520  0.0000E+00  0.3200E+02
     -3.418  0.0000E+00  0.3200E+02
     -3.315  0.0000E+00  0.3200E+02
     -3.213  0.0000E+00  0.3200E+02
     -3.110  0.0000E+00  0.3200E+02
     -3.007  0.0000E+00  0.3200E+02
     -2.905  0.0000E+00  0.3200E+02
     -2.802  0.0000E+00  0.3200E+02
     -2.699  0.0000E+00  0.3200E+02
     -2.597  0.0000E+00  0.3200E+02
     -2.494  0.0000E+00  0.3200E+02
     -2.392  0.0000E+00  0.3200E+02
     -2.289  0.0000E+00  0.3200E+02
     -2.186  0.0000E+00  0.3200E+02
     -2.084  0.0000E+00  0.3200E+02
     -1.981  0.0000E+00  0.3200E+02
     -1.878  0.0000E+00  0.3200E+02
     -1.776  0.0000E+00  0.3200E+02
     -1.673  0.0000E+00  0.3200E+02
     -1.570  0.0000E+00  0.3200E+02
     -1.468  0.0000E+00  0.3200E+02
     -1.365  0.0000E+00  0.3200E+02
     -1.263  0.0000E+00  0.3200E+02
     -1.160  0.0000E+00  0.3200E+02
     -1.057  0.7575E-12  0.3200E+02
     -0.955  0.4072E-05  0.3200E+02
     -0.852  0.8161E-02  0.3200E+02
     -0.749  0.1048E+00  0.3201E+02
     -0.647  0.3819E+00  0.3205E+02
     -0.544  0.4481E+00  0.3210E+02
     -0.442  0.3741E+00  0.3214E+02
     -0.339  0.1109E+01  0.3225E+02
     -0.236  0.6648E+00  0.3232E+02
     -0.134  0.6235E+00  0.3238E+02
     -0.031  0.1332E+01  0.3252E+02
      0.072  0.1437E+01  0.3267E+02
      0.174  0.8906E+00  0.3276E+02
      0.277  0.2074E+01  0.3297E+02
      0.380  0.1117E+01  0.3308E+02
      0.482  0.1990E+01  0.3329E+02
      0.585  0.2446E+01  0.3354E+02
      0.687  0.2843E+01  0.3383E+02
      0.790  0.1561E+01  0.3399E+02
      0.893  0.5641E+01  0.3457E+02
      0.995  0.4158E+01  0.3500E+02
      1.098  0.7049E+01  0.3572E+02
      1.201  0.5213E+01  0.3626E+02
      1.303  0.8826E+01  0.3716E+02
      1.406  0.4340E+01  0.3761E+02
      1.508  0.4282E+01  0.3805E+02
      1.611  0.8431E+01  0.3891E+02
      1.714  0.3571E+01  0.3928E+02
      1.816  0.4097E+01  0.3970E+02
      1.919  0.3902E+01  0.4010E+02
      2.022  0.4094E+01  0.4052E+02
      2.124  0.1079E+02  0.4163E+02
      2.227  0.1136E+02  0.4279E+02
      2.330  0.1048E+02  0.4387E+02
      2.432  0.9218E+01  0.4481E+02
      2.535  0.8773E+01  0.4571E+02
      2.637  0.1090E+02  0.4683E+02
      2.740  0.8937E+01  0.4775E+02
      2.843  0.1354E+02  0.4914E+02
      2.945  0.1272E+02  0.5045E+02
      3.048  0.1131E+02  0.5161E+02
      3.151  0.1136E+02  0.5277E+02
      3.253  0.6479E+01  0.5344E+02
      3.356  0.7618E+01  0.5422E+02
      3.458  0.3680E+01  0.5460E+02
      3.561  0.4904E+01  0.5510E+02
      3.664  0.5457E+01  0.5566E+02
      3.766  0.6487E+01  0.5633E+02
      3.869  0.8643E+01  0.5721E+02
      3.972  0.1077E+02  0.5832E+02
      4.074  0.8860E+01  0.5923E+02
      4.177  0.1305E+02  0.6057E+02
      4.280  0.7720E+01  0.6136E+02
      4.382  0.9395E+01  0.6232E+02
      4.485  0.2668E+01  0.6260E+02
      4.587  0.5474E+01  0.6316E+02
      4.690  0.6646E+01  0.6384E+02
      4.793  0.8056E+01  0.6467E+02
      4.895  0.3070E+01  0.6498E+02
      4.998  0.3534E+01  0.6535E+02
      5.101  0.4274E+01  0.6579E+02
      5.203  0.4824E+01  0.6628E+02
      5.306  0.5028E+01  0.6680E+02
      5.408  0.1016E+02  0.6784E+02
      5.511  0.7964E+01  0.6866E+02
      5.614  0.1334E+02  0.7003E+02
      5.716  0.9262E+01  0.7098E+02
      5.819  0.6728E+01  0.7167E+02
      5.922  0.4987E+01  0.7218E+02
      6.024  0.6737E+01  0.7287E+02
      6.127  0.4956E+01  0.7338E+02
      6.230  0.6913E+01  0.7409E+02
      6.332  0.8578E+01  0.7497E+02
      6.435  0.8512E+01  0.7584E+02
      6.537  0.5676E+01  0.7643E+02
      6.640  0.7064E+01  0.7715E+02
      6.743  0.8995E+01  0.7807E+02
      6.845  0.1541E+02  0.7965E+02
      6.948  0.1088E+02  0.8077E+02
      7.051  0.1058E+02  0.8186E+02
      7.153  0.1110E+02  0.8300E+02
      7.256  0.1604E+02  0.8464E+02
      7.358  0.6930E+01  0.8535E+02
      7.461  0.7490E+01  0.8612E+02
      7.564  0.9424E+01  0.8709E+02
      7.666  0.8869E+01  0.8800E+02
      7.769  0.1262E+02  0.8929E+02
      7.872  0.9078E+01  0.9023E+02
      7.974  0.4450E+01  0.9068E+02
      8.077  0.4415E+01  0.9114E+02
      8.179  0.7384E+01  0.9189E+02
      8.282  0.4114E+01  0.9232E+02
      8.385  0.5597E+01  0.9289E+02
      8.487  0.8164E+01  0.9373E+02
      8.590  0.7523E+01  0.9450E+02
      8.693  0.8585E+01  0.9538E+02
      8.795  0.3364E+01  0.9573E+02
      8.898  0.1292E+01  0.9586E+02
      9.001  0.4513E+00  0.9591E+02
      9.103  0.1353E+00  0.9592E+02
      9.206  0.7509E+00  0.9600E+02
      9.308  0.2954E-01  0.9600E+02
      9.411  0.9278E-06  0.9600E+02
      9.514  0.8925E-14  0.9600E+02
      9.616  0.0000E+00  0.9600E+02
      9.719  0.0000E+00  0.9600E+02
      9.822  0.0000E+00  0.9600E+02
      9.924  0.0000E+00  0.9600E+02
     10.027  0.0000E+00  0.9600E+02
     10.129  0.0000E+00  0.9600E+02
     10.232  0.0000E+00  0.9600E+02
     10.335  0.0000E+00  0.9600E+02
     10.437  0.0000E+00  0.9600E+02
     10.540  0.0000E+00  0.9600E+02
