       N       E                     dE             d eps       ncg     rms          rms(c)
DAV:   1    -0.153900389610E+00   -0.15390E+00   -0.25781E-07  3408   0.186E-03    0.247E-04
DAV:   2    -0.153900331230E+00    0.58380E-07   -0.12369E-08  2976   0.391E-04
   1 F= -.15390033E+00 E0= -.15390033E+00  d E =-.176235E-12
       N       E                     dE             ncg
DAV:   1    -0.775557704318E+04   -0.12988E+05     3360
DAV:   2    -0.113243540855E+05   -0.35688E+04     4704
DAV:   3    -0.113911497121E+05   -0.66796E+02     4080
DAV:   4    -0.113913698339E+05   -0.22012E+00     6048
DAV:   5    -0.113913698810E+05   -0.47050E-04     4032
       N       E                     dE             ncg
DAV:   1    -0.775312169981E+04   -0.20717E+05     3360
DAV:   2    -0.113401545589E+05   -0.35870E+04     4896
DAV:   3    -0.113975138494E+05   -0.57359E+02     3552
DAV:   4    -0.113977874882E+05   -0.27364E+00     6288
DAV:   5    -0.113977875643E+05   -0.76138E-04     3552
       N       E                     dE             ncg
DAV:   1    -0.771845226008E+04   -0.20876E+05     3360
DAV:   2    -0.113396148038E+05   -0.36212E+04     4896
DAV:   3    -0.113960293949E+05   -0.56415E+02     3504
DAV:   4    -0.113963085438E+05   -0.27915E+00     6288
DAV:   5    -0.113963086464E+05   -0.10262E-03     3552
DAV:   6    -0.113963086466E+05   -0.17089E-06     6096
       N       E                     dE             ncg
DAV:   1    -0.773609435874E+04   -0.17201E+05     3360
DAV:   2    -0.113362754552E+05   -0.36002E+04     4896
DAV:   3    -0.113940068181E+05   -0.57731E+02     3648
DAV:   4    -0.113943121740E+05   -0.30536E+00     6096
DAV:   5    -0.113943122614E+05   -0.87381E-04     3648
       N       E                     dE             ncg
DAV:   1     0.498258039735E+04   -0.18566E+04      672
DAV:   2     0.427472588045E+04   -0.70785E+03     1008
DAV:   3     0.426621977902E+04   -0.85061E+01      672
DAV:   4     0.426617583916E+04   -0.43940E-01     1344
DAV:   5     0.426617583239E+04   -0.67770E-05      672
