Xe                                      
           1
     7.054820    0.000000    0.000000
     0.000000    7.054820    0.000000
     0.000000    0.000000    7.054820
   Xe
     4
Direct configuration=     1
   0.00000000  0.00000000  0.00000000
   0.00000000  0.50000000  0.50000000
   0.50000000  0.00000000  0.50000000
   0.50000000  0.50000000  0.00000000
