Mn                                      
   1.00000000000000     
     3.595520    0.000000    0.000000
     0.000000    3.595520    0.000000
     0.000000    0.000000    3.595520
   Mn
     4
Direct
  0.000000  0.000000  0.000000
  0.000000  0.500000  0.500000
  0.500000  0.000000  0.500000
  0.500000  0.500000  0.000000
 
   32   32   32
  802.76      768.60      670.98      526.10      362.37      213.72      106.19      47.046      24.502      17.442    
  13.808      11.951      10.966      10.351      9.9643      9.7913      9.7538      9.7913      9.9643      10.351    
  10.966      11.951      13.808      17.442      24.502      47.046      106.19      213.72      362.37      526.10    
  670.98      768.60      767.95      734.85      640.42      500.72      343.56      201.71      99.932      44.670    
  23.967      17.291      13.781      11.974      11.005      10.394      10.006      9.8274      9.7868      9.8274    
  10.006      10.394      11.005      11.974      13.781      17.291      23.967      44.670      99.932      201.71    
  343.56      500.72      640.42      734.85      668.37      638.49      553.64      429.31      291.25      168.83    
  83.234      38.577      22.635      16.876      13.715      12.058      11.146      10.559      10.179      9.9950    
  9.9493      9.9950      10.179      10.559      11.146      12.058      13.715      16.876      22.635      38.577    
  83.234      168.83      291.25      429.31      553.64      638.49      520.81      496.16      426.76      326.54    
  217.67      124.09      61.632      31.328      21.010      16.295      13.648      12.225      11.418      10.890    
  10.543      10.367      10.320      10.367      10.543      10.890      11.418      12.225      13.648      16.295    
  21.010      31.328      61.632      124.09      217.67      326.54      426.76      496.16      355.21      337.17    
  286.88      215.77      141.01      79.819      41.978      25.485      19.276      15.678      13.625      12.490    
  11.828      11.391      11.100      10.947      10.903      10.947      11.100      11.391      11.828      12.490    
  13.625      15.678      19.276      25.485      41.978      79.819      141.01      215.77      286.88      337.17    
  206.94      195.61      164.47      121.78      79.078      46.771      29.021      21.724      17.663      15.166    
  13.723      12.915      12.447      12.146      11.950      11.846      11.815      11.846      11.950      12.146    
  12.447      12.915      13.723      15.166      17.663      21.724      29.021      46.771      79.078      121.78    
  164.47      195.61      101.74      95.937      80.373      60.051      41.334      28.841      22.616      18.890    
  16.402      14.895      14.068      13.671      13.517      13.480      13.494      13.521      13.534      13.521    
  13.494      13.480      13.517      13.671      14.068      14.895      16.402      18.890      22.616      28.841    
  41.334      60.051      80.373      95.937      45.018      42.847      37.249      30.528      25.059      21.519    
  18.822      16.855      15.618      14.996      14.852      15.055      15.477      15.990      16.472      16.813    
  16.936      16.813      16.472      15.990      15.477      15.055      14.852      14.996      15.618      16.855    
  18.822      21.519      25.059      30.528      37.249      42.847      23.639      23.162      21.974      20.523    
  18.961      17.492      16.330      15.601      15.354      15.601      16.330      17.492      18.961      20.523    
  21.974      23.162      23.639      23.162      21.974      20.523      18.961      17.492      16.330      15.601    
  15.354      15.601      16.330      17.492      18.961      20.523      21.974      23.162      16.936      16.813    
  16.472      15.990      15.477      15.055      14.852      14.996      15.618      16.855      18.822      21.519    
  25.059      30.528      37.249      42.847      45.018      42.847      37.249      30.528      25.059      21.519    
  18.822      16.855      15.618      14.996      14.852      15.055      15.477      15.990      16.472      16.813    
  13.534      13.521      13.494      13.480      13.517      13.671      14.068      14.895      16.402      18.890    
  22.616      28.841      41.334      60.051      80.373      95.937      101.74      95.937      80.373      60.051    
  41.334      28.841      22.616      18.890      16.402      14.895      14.068      13.671      13.517      13.480    
  13.494      13.521      11.815      11.846      11.950      12.146      12.447      12.915      13.723      15.166    
  17.663      21.724      29.021      46.771      79.078      121.78      164.47      195.61      206.94      195.61    
  164.47      121.78      79.078      46.771      29.021      21.724      17.663      15.166      13.723      12.915    
  12.447      12.146      11.950      11.846      10.903      10.947      11.100      11.391      11.828      12.490    
  13.625      15.678      19.276      25.485      41.978      79.819      141.01      215.77      286.88      337.17    
  355.21      337.17      286.88      215.77      141.01      79.819      41.978      25.485      19.276      15.678    
  13.625      12.490      11.828      11.391      11.100      10.947      10.320      10.367      10.543      10.890    
  11.418      12.225      13.648      16.295      21.010      31.328      61.632      124.09      217.67      326.54    
  426.76      496.16      520.81      496.16      426.76      326.54      217.67      124.09      61.632      31.328    
  21.010      16.295      13.648      12.225      11.418      10.890      10.543      10.367      9.9493      9.9950    
  10.179      10.559      11.146      12.058      13.715      16.876      22.635      38.577      83.234      168.83    
  291.25      429.31      553.64      638.49      668.37      638.49      553.64      429.31      291.25      168.83    
  83.234      38.577      22.635      16.876      13.715      12.058      11.146      10.559      10.179      9.9950    
  9.7868      9.8274      10.006      10.394      11.005      11.974      13.781      17.291      23.967      44.670    
  99.932      201.71      343.56      500.72      640.42      734.85      767.95      734.85      640.42      500.72    
  343.56      201.71      99.932      44.670      23.967      17.291      13.781      11.974      11.005      10.394    
  10.006      9.8274      9.7538      9.7913      9.9643      10.351      10.966      11.951      13.808      17.442    
  24.502      47.046      106.19      213.72      362.37      526.10      670.98      768.60      802.76      768.60    
  670.98      526.10      362.37      213.72      106.19      47.046      24.502      17.442      13.808      11.951    
  10.966      10.351      9.9643      9.7913      9.7868      9.8274      10.006      10.394      11.005      11.974    
  13.781      17.291      23.967      44.670      99.932      201.71      343.56      500.72      640.42      734.85    
  767.95      734.85      640.42      500.72      343.56      201.71      99.932      44.670      23.967      17.291    
  13.781      11.974      11.005      10.394      10.006      9.8274      9.9493      9.9950      10.179      10.559    
  11.146      12.058      13.715      16.876      22.635      38.577      83.234      168.83      291.25      429.31    
  553.64      638.49      668.37      638.49      553.64      429.31      291.25      168.83      83.234      38.577    
  22.635      16.876      13.715      12.058      11.146      10.559      10.179      9.9950      10.320      10.367    
  10.543      10.890      11.418      12.225      13.648      16.295      21.010      31.328      61.632      124.09    
  217.67      326.54      426.76      496.16      520.81      496.16      426.76      326.54      217.67      124.09    
  61.632      31.328      21.010      16.295      13.648      12.225      11.418      10.890      10.543      10.367    
  10.903      10.947      11.100      11.391      11.828      12.490      13.625      15.678      19.276      25.485    
  41.978      79.819      141.01      215.77      286.88      337.17      355.21      337.17      286.88      215.77    
  141.01      79.819      41.978      25.485      19.276      15.678      13.625      12.490      11.828      11.391    
  11.100      10.947      11.815      11.846      11.950      12.146      12.447      12.915      13.723      15.166    
  17.663      21.724      29.021      46.771      79.078      121.78      164.47      195.61      206.94      195.61    
  164.47      121.78      79.078      46.771      29.021      21.724      17.663      15.166      13.723      12.915    
  12.447      12.146      11.950      11.846      13.534      13.521      13.494      13.480      13.517      13.671    
  14.068      14.895      16.402      18.890      22.616      28.841      41.334      60.051      80.373      95.937    
  101.74      95.937      80.373      60.051      41.334      28.841      22.616      18.890      16.402      14.895    
  14.068      13.671      13.517      13.480      13.494      13.521      16.936      16.813      16.472      15.990    
  15.477      15.055      14.852      14.996      15.618      16.855      18.822      21.519      25.059      30.528    
  37.249      42.847      45.018      42.847      37.249      30.528      25.059      21.519      18.822      16.855    
  15.618      14.996      14.852      15.055      15.477      15.990      16.472      16.813      23.639      23.162    
  21.974      20.523      18.961      17.492      16.330      15.601      15.354      15.601      16.330      17.492    
  18.961      20.523      21.974      23.162      23.639      23.162      21.974      20.523      18.961      17.492    
  16.330      15.601      15.354      15.601      16.330      17.492      18.961      20.523      21.974      23.162    
  45.018      42.847      37.249      30.528      25.059      21.519      18.822      16.855      15.618      14.996    
  14.852      15.055      15.477      15.990      16.472      16.813      16.936      16.813      16.472      15.990    
  15.477      15.055      14.852      14.996      15.618      16.855      18.822      21.519      25.059      30.528    
  37.249      42.847      101.74      95.937      80.373      60.051      41.334      28.841      22.616      18.890    
  16.402      14.895      14.068      13.671      13.517      13.480      13.494      13.521      13.534      13.521    
  13.494      13.480      13.517      13.671      14.068      14.895      16.402      18.890      22.616      28.841    
  41.334      60.051      80.373      95.937      206.94      195.61      164.47      121.78      79.078      46.771    
  29.021      21.724      17.663      15.166      13.723      12.915      12.447      12.146      11.950      11.846    
  11.815      11.846      11.950      12.146      12.447      12.915      13.723      15.166      17.663      21.724    
  29.021      46.771      79.078      121.78      164.47      195.61      355.21      337.17      286.88      215.77    
  141.01      79.819      41.978      25.485      19.276      15.678      13.625      12.490      11.828      11.391    
  11.100      10.947      10.903      10.947      11.100      11.391      11.828      12.490      13.625      15.678    
  19.276      25.485      41.978      79.819      141.01      215.77      286.88      337.17      520.81      496.16    
  426.76      326.54      217.67      124.09      61.632      31.328      21.010      16.295      13.648      12.225    
  11.418      10.890      10.543      10.367      10.320      10.367      10.543      10.890      11.418      12.225    
  13.648      16.295      21.010      31.328      61.632      124.09      217.67      326.54      426.76      496.16    
  668.37      638.49      553.64      429.31      291.25      168.83      83.234      38.577      22.635      16.876    
  13.715      12.058      11.146      10.559      10.179      9.9950      9.9493      9.9950      10.179      10.559    
  11.146      12.058      13.715      16.876      22.635      38.577      83.234      168.83      291.25      429.31    
  553.64      638.49      767.95      734.85      640.42      500.72      343.56      201.71      99.932      44.670    
  23.967      17.291      13.781      11.974      11.005      10.394      10.006      9.8274      9.7868      9.8274    
  10.006      10.394      11.005      11.974      13.781      17.291      23.967      44.670      99.932      201.71    
  343.56      500.72      640.42      734.85      768.60      735.21      640.09      499.83      342.54      200.96    
  99.560      44.546      23.929      17.275      13.775      11.972      11.006      10.396      10.009      9.8316    
  9.7913      9.8316      10.009      10.396      11.006      11.972      13.775      17.275      23.929      44.546    
  99.560      200.96      342.54      499.83      640.09      735.21      734.85      702.52      610.59      475.46    
  324.59      189.58      93.704      42.362      23.444      17.130      13.749      11.996      11.046      10.440    
  10.052      9.8704      9.8274      9.8704      10.052      10.440      11.046      11.996      13.749      17.130    
  23.444      42.362      93.704      189.58      324.59      475.46      610.59      702.52      638.49      609.37    
  526.99      406.98      274.74      158.51      78.106      36.780      22.230      16.731      13.687      12.080    
  11.187      10.607      10.228      10.043      9.9950      10.043      10.228      10.607      11.187      12.080    
  13.687      16.731      22.230      36.780      78.106      158.51      274.74      406.98      526.99      609.37    
  496.16      472.25      405.12      308.76      204.86      116.38      58.034      30.181      20.700      16.172    
  13.623      12.245      11.456      10.936      10.592      10.416      10.367      10.416      10.592      10.936    
  11.456      12.245      13.623      16.172      20.700      30.181      58.034      116.38      204.86      308.76    
  405.12      472.25      337.17      319.75      271.37      203.36      132.42      74.967      39.929      24.888    
  19.032      15.579      13.603      12.505      11.860      11.431      11.144      10.991      10.947      10.991    
  11.144      11.431      11.860      12.505      13.603      15.579      19.032      24.888      39.929      74.967    
  132.42      203.36      271.37      319.75      195.61      184.75      155.02      114.51      74.357      44.356    
  28.125      21.379      17.483      15.086      13.698      12.919      12.465      12.171      11.979      11.876    
  11.846      11.876      11.979      12.171      12.465      12.919      13.698      15.086      17.483      21.379    
  28.125      44.356      74.357      114.51      155.02      184.75      95.937      90.443      75.756      56.721    
  39.383      27.967      22.237      18.658      16.271      14.825      14.032      13.650      13.502      13.467    
  13.481      13.508      13.521      13.508      13.481      13.467      13.502      13.650      14.032      14.825    
  16.271      18.658      22.237      27.967      39.383      56.721      75.756      90.443      42.847      40.830    
  35.652      29.487      24.507      21.192      18.595      16.705      15.518      14.922      14.785      14.983    
  15.393      15.891      16.360      16.692      16.813      16.692      16.360      15.891      15.393      14.983    
  14.785      14.922      15.518      16.705      18.595      21.192      24.507      29.487      35.652      40.830    
  23.162      22.726      21.634      20.257      18.744      17.325      16.205      15.502      15.264      15.502    
  16.205      17.325      18.744      20.257      21.634      22.726      23.162      22.726      21.634      20.257    
  18.744      17.325      16.205      15.502      15.264      15.502      16.205      17.325      18.744      20.257    
  21.634      22.726      16.813      16.692      16.360      15.891      15.393      14.983      14.785      14.922    
  15.518      16.705      18.595      21.192      24.507      29.487      35.652      40.830      42.847      40.830    
  35.652      29.487      24.507      21.192      18.595      16.705      15.518      14.922      14.785      14.983    
  15.393      15.891      16.360      16.692      13.521      13.508      13.481      13.467      13.502      13.650    
  14.032      14.825      16.271      18.658      22.237      27.967      39.383      56.721      75.756      90.443    
  95.937      90.443      75.756      56.721      39.383      27.967      22.237      18.658      16.271      14.825    
  14.032      13.650      13.502      13.467      13.481      13.508      11.846      11.876      11.979      12.171    
  12.465      12.919      13.698      15.086      17.483      21.379      28.125      44.356      74.357      114.51    
  155.02      184.75      195.61      184.75      155.02      114.51      74.357      44.356      28.125      21.379    
  17.483      15.086      13.698      12.919      12.465      12.171      11.979      11.876      10.947      10.991    
  11.144      11.431      11.860      12.505      13.603      15.579      19.032      24.888      39.929      74.967    
  132.42      203.36      271.37      319.75      337.17      319.75      271.37      203.36      132.42      74.967    
  39.929      24.888      19.032      15.579      13.603      12.505      11.860      11.431      11.144      10.991    
  10.367      10.416      10.592      10.936      11.456      12.245      13.623      16.172      20.700      30.181    
  58.034      116.38      204.86      308.76      405.12      472.25      496.16      472.25      405.12      308.76    
  204.86      116.38      58.034      30.181      20.700      16.172      13.623      12.245      11.456      10.936    
  10.592      10.416      9.9950      10.043      10.228      10.607      11.187      12.080      13.687      16.731    
  22.230      36.780      78.106      158.51      274.74      406.98      526.99      609.37      638.49      609.37    
  526.99      406.98      274.74      158.51      78.106      36.780      22.230      16.731      13.687      12.080    
  11.187      10.607      10.228      10.043      9.8274      9.8704      10.052      10.440      11.046      11.996    
  13.749      17.130      23.444      42.362      93.704      189.58      324.59      475.46      610.59      702.52    
  734.85      702.52      610.59      475.46      324.59      189.58      93.704      42.362      23.444      17.130    
  13.749      11.996      11.046      10.440      10.052      9.8704      9.7913      9.8316      10.009      10.396    
  11.006      11.972      13.775      17.275      23.929      44.546      99.560      200.96      342.54      499.83    
  640.09      735.21      768.60      735.21      640.09      499.83      342.54      200.96      99.560      44.546    
  23.929      17.275      13.775      11.972      11.006      10.396      10.009      9.8316      9.8274      9.8704    
  10.052      10.440      11.046      11.996      13.749      17.130      23.444      42.362      93.704      189.58    
  324.59      475.46      610.59      702.52      734.85      702.52      610.59      475.46      324.59      189.58    
  93.704      42.362      23.444      17.130      13.749      11.996      11.046      10.440      10.052      9.8704    
  9.9950      10.043      10.228      10.607      11.187      12.080      13.687      16.731      22.230      36.780    
  78.106      158.51      274.74      406.98      526.99      609.37      638.49      609.37      526.99      406.98    
  274.74      158.51      78.106      36.780      22.230      16.731      13.687      12.080      11.187      10.607    
  10.228      10.043      10.367      10.416      10.592      10.936      11.456      12.245      13.623      16.172    
  20.700      30.181      58.034      116.38      204.86      308.76      405.12      472.25      496.16      472.25    
  405.12      308.76      204.86      116.38      58.034      30.181      20.700      16.172      13.623      12.245    
  11.456      10.936      10.592      10.416      10.947      10.991      11.144      11.431      11.860      12.505    
  13.603      15.579      19.032      24.888      39.929      74.967      132.42      203.36      271.37      319.75    
  337.17      319.75      271.37      203.36      132.42      74.967      39.929      24.888      19.032      15.579    
  13.603      12.505      11.860      11.431      11.144      10.991      11.846      11.876      11.979      12.171    
  12.465      12.919      13.698      15.086      17.483      21.379      28.125      44.356      74.357      114.51    
  155.02      184.75      195.61      184.75      155.02      114.51      74.357      44.356      28.125      21.379    
  17.483      15.086      13.698      12.919      12.465      12.171      11.979      11.876      13.521      13.508    
  13.481      13.467      13.502      13.650      14.032      14.825      16.271      18.658      22.237      27.967    
  39.383      56.721      75.756      90.443      95.937      90.443      75.756      56.721      39.383      27.967    
  22.237      18.658      16.271      14.825      14.032      13.650      13.502      13.467      13.481      13.508    
  16.813      16.692      16.360      15.891      15.393      14.983      14.785      14.922      15.518      16.705    
  18.595      21.192      24.507      29.487      35.652      40.830      42.847      40.830      35.652      29.487    
  24.507      21.192      18.595      16.705      15.518      14.922      14.785      14.983      15.393      15.891    
  16.360      16.692      23.162      22.726      21.634      20.257      18.744      17.325      16.205      15.502    
  15.264      15.502      16.205      17.325      18.744      20.257      21.634      22.726      23.162      22.726    
  21.634      20.257      18.744      17.325      16.205      15.502      15.264      15.502      16.205      17.325    
  18.744      20.257      21.634      22.726      42.847      40.830      35.652      29.487      24.507      21.192    
  18.595      16.705      15.518      14.922      14.785      14.983      15.393      15.891      16.360      16.692    
  16.813      16.692      16.360      15.891      15.393      14.983      14.785      14.922      15.518      16.705    
  18.595      21.192      24.507      29.487      35.652      40.830      95.937      90.443      75.756      56.721    
  39.383      27.967      22.237      18.658      16.271      14.825      14.032      13.650      13.502      13.467    
  13.481      13.508      13.521      13.508      13.481      13.467      13.502      13.650      14.032      14.825    
  16.271      18.658      22.237      27.967      39.383      56.721      75.756      90.443      195.61      184.75    
  155.02      114.51      74.357      44.356      28.125      21.379      17.483      15.086      13.698      12.919    
  12.465      12.171      11.979      11.876      11.846      11.876      11.979      12.171      12.465      12.919    
  13.698      15.086      17.483      21.379      28.125      44.356      74.357      114.51      155.02      184.75    
  337.17      319.75      271.37      203.36      132.42      74.967      39.929      24.888      19.032      15.579    
  13.603      12.505      11.860      11.431      11.144      10.991      10.947      10.991      11.144      11.431    
  11.860      12.505      13.603      15.579      19.032      24.888      39.929      74.967      132.42      203.36    
  271.37      319.75      496.16      472.25      405.12      308.76      204.86      116.38      58.034      30.181    
  20.700      16.172      13.623      12.245      11.456      10.936      10.592      10.416      10.367      10.416    
  10.592      10.936      11.456      12.245      13.623      16.172      20.700      30.181      58.034      116.38    
  204.86      308.76      405.12      472.25      638.49      609.37      526.99      406.98      274.74      158.51    
  78.106      36.780      22.230      16.731      13.687      12.080      11.187      10.607      10.228      10.043    
  9.9950      10.043      10.228      10.607      11.187      12.080      13.687      16.731      22.230      36.780    
  78.106      158.51      274.74      406.98      526.99      609.37      734.85      702.52      610.59      475.46    
  324.59      189.58      93.704      42.362      23.444      17.130      13.749      11.996      11.046      10.440    
  10.052      9.8704      9.8274      9.8704      10.052      10.440      11.046      11.996      13.749      17.130    
  23.444      42.362      93.704      189.58      324.59      475.46      610.59      702.52      670.98      640.09    
  553.00      426.77      288.25      166.64      82.175      38.229      22.518      16.825      13.696      12.054    
  11.148      10.565      10.189      10.009      9.9643      10.009      10.189      10.565      11.148      12.054    
  13.696      16.825      22.518      38.229      82.175      166.64      288.25      426.77      553.00      640.09    
  640.42      610.59      526.63      405.30      272.72      157.03      77.399      36.548      22.149      16.696    
  13.674      12.077      11.189      10.611      10.236      10.052      10.006      10.052      10.236      10.611    
  11.189      12.077      13.674      16.696      22.149      36.548      77.399      157.03      272.72      405.30    
  526.63      610.59      553.64      526.99      452.28      345.25      229.81      130.94      64.777      32.293    
  21.186      16.339      13.620      12.159      11.327      10.777      10.413      10.228      10.179      10.228    
  10.413      10.777      11.327      12.159      13.620      16.339      21.186      32.293      64.777      130.94    
  229.81      345.25      452.28      526.99      426.76      405.12      344.93      259.93      170.27      96.000    
  48.803      27.352      19.850      15.840      13.566      12.315      11.584      11.094      10.765      10.592    
  10.543      10.592      10.765      11.094      11.584      12.315      13.566      15.840      19.850      27.352    
  48.803      96.000      170.27      259.93      344.93      405.12      286.88      271.37      228.68      169.66    
  109.53      62.343      34.777      23.389      18.366      15.311      13.550      12.557      11.963      11.562    
  11.292      11.144      11.100      11.144      11.292      11.562      11.963      12.557      13.550      15.311    
  18.366      23.389      34.777      62.343      109.53      169.66      228.68      271.37      164.47      155.02    
  129.39      95.092      62.020      38.229      25.904      20.432      16.990      14.871      13.637      12.937    
  12.523      12.253      12.076      11.979      11.950      11.979      12.076      12.253      12.523      12.937    
  13.637      14.871      16.990      20.432      25.904      38.229      62.020      95.092      129.39      155.02    
  80.373      75.756      63.551      48.078      34.447      25.795      21.194      18.023      15.915      14.638    
  13.935      13.597      13.467      13.439      13.455      13.481      13.494      13.481      13.455      13.439    
  13.467      13.597      13.935      14.638      15.915      18.023      21.194      25.795      34.447      48.078    
  63.551      75.756      37.249      35.652      31.606      26.896      23.114      20.290      17.975      16.297    
  15.246      14.721      14.605      14.788      15.163      15.620      16.052      16.360      16.472      16.360    
  16.052      15.620      15.163      14.788      14.605      14.721      15.246      16.297      17.975      20.290    
  23.114      26.896      31.606      35.652      21.974      21.634      20.748      19.517      18.145      16.867    
  15.862      15.233      15.021      15.233      15.862      16.867      18.145      19.517      20.748      21.634    
  21.974      21.634      20.748      19.517      18.145      16.867      15.862      15.233      15.021      15.233    
  15.862      16.867      18.145      19.517      20.748      21.634      16.472      16.360      16.052      15.620    
  15.163      14.788      14.605      14.721      15.246      16.297      17.975      20.290      23.114      26.896    
  31.606      35.652      37.249      35.652      31.606      26.896      23.114      20.290      17.975      16.297    
  15.246      14.721      14.605      14.788      15.163      15.620      16.052      16.360      13.494      13.481    
  13.455      13.439      13.467      13.597      13.935      14.638      15.915      18.023      21.194      25.795    
  34.447      48.078      63.551      75.756      80.373      75.756      63.551      48.078      34.447      25.795    
  21.194      18.023      15.915      14.638      13.935      13.597      13.467      13.439      13.455      13.481    
  11.950      11.979      12.076      12.253      12.523      12.937      13.637      14.871      16.990      20.432    
  25.904      38.229      62.020      95.092      129.39      155.02      164.47      155.02      129.39      95.092    
  62.020      38.229      25.904      20.432      16.990      14.871      13.637      12.937      12.523      12.253    
  12.076      11.979      11.100      11.144      11.292      11.562      11.963      12.557      13.550      15.311    
  18.366      23.389      34.777      62.343      109.53      169.66      228.68      271.37      286.88      271.37    