Mn                                      
   1.00000000000000     
     3.595520    0.000000    0.000000
     0.000000    3.595520    0.000000
     0.000000    0.000000    3.595520
   Mn
     4
Direct
  0.000000  0.000000  0.000000
  0.000000  0.500000  0.500000
  0.500000  0.000000  0.500000
  0.500000  0.500000  0.000000
 
   32   32   32
 0.80275711716E+03 0.76860451570E+03 0.67098228454E+03 0.52609718580E+03 0.36237048712E+03
 0.21372140616E+03 0.10618583443E+03 0.47045961953E+02 0.24502136736E+02 0.17441518350E+02
 0.13808307394E+02 0.11950926195E+02 0.10966387976E+02 0.10350596990E+02 0.99642599816E+01
 0.97913350501E+01 0.97537695941E+01 0.97913350501E+01 0.99642599816E+01 0.10350596990E+02
 0.10966387976E+02 0.11950926195E+02 0.13808307394E+02 0.17441518350E+02 0.24502136736E+02
 0.47045961953E+02 0.10618583443E+03 0.21372140616E+03 0.36237048712E+03 0.52609718580E+03
 0.67098228454E+03 0.76860451570E+03 0.76794824524E+03 0.73485140637E+03 0.64041785959E+03
 0.50072222817E+03 0.34356135221E+03 0.20170734396E+03 0.99932268080E+02 0.44670145532E+02
 0.23966526470E+02 0.17290928485E+02 0.13780875633E+02 0.11974027959E+02 0.11005444175E+02
 0.10393531941E+02 0.10005536312E+02 0.98273964973E+01 0.97867888073E+01 0.98273964973E+01
 0.10005536312E+02 0.10393531941E+02 0.11005444175E+02 0.11974027959E+02 0.13780875633E+02
 0.17290928485E+02 0.23966526470E+02 0.44670145532E+02 0.99932268080E+02 0.20170734396E+03
 0.34356135221E+03 0.50072222817E+03 0.64041785959E+03 0.73485140637E+03 0.66837294260E+03
 0.63848579242E+03 0.55364351367E+03 0.42930700869E+03 0.29124961884E+03 0.16883485884E+03
 0.83234139623E+02 0.38577036454E+02 0.22634754441E+02 0.16876213186E+02 0.13714978684E+02
 0.12058027190E+02 0.11146169535E+02 0.10558595707E+02 0.10178538206E+02 0.99949871454E+01
 0.99492756879E+01 0.99949871454E+01 0.10178538206E+02 0.10558595707E+02 0.11146169535E+02
 0.12058027190E+02 0.13714978684E+02 0.16876213186E+02 0.22634754441E+02 0.38577036454E+02
 0.83234139623E+02 0.16883485884E+03 0.29124961884E+03 0.42930700869E+03 0.55364351367E+03
 0.63848579242E+03 0.52080548867E+03 0.49616373874E+03 0.42675613068E+03 0.32653999910E+03
 0.21766825023E+03 0.12408727521E+03 0.61632370251E+02 0.31327868094E+02 0.21009963386E+02
 0.16295108657E+02 0.13647607693E+02 0.12224801980E+02 0.11418009604E+02 0.10889807749E+02
 0.10542987314E+02 0.10367371286E+02 0.10320154834E+02 0.10367371286E+02 0.10542987314E+02
 0.10889807749E+02 0.11418009604E+02 0.12224801980E+02 0.13647607693E+02 0.16295108657E+02
 0.21009963386E+02 0.31327868094E+02 0.61632370251E+02 0.12408727521E+03 0.21766825023E+03
 0.32653999910E+03 0.42675613068E+03 0.49616373874E+03 0.35521281486E+03 0.33716823373E+03
 0.28687752777E+03 0.21577221075E+03 0.14100556688E+03 0.79819130277E+02 0.41978458555E+02
 0.25484803961E+02 0.19275843996E+02 0.15678135164E+02 0.13625289406E+02 0.12490122892E+02
 0.11828126122E+02 0.11390540272E+02 0.11100314058E+02 0.10947005214E+02 0.10903085577E+02
 0.10947005214E+02 0.11100314058E+02 0.11390540272E+02 0.11828126122E+02 0.12490122892E+02
 0.13625289406E+02 0.15678135164E+02 0.19275843996E+02 0.25484803961E+02 0.41978458555E+02
 0.79819130277E+02 0.14100556688E+03 0.21577221075E+03 0.28687752777E+03 0.33716823373E+03
 0.20694450364E+03 0.19560661763E+03 0.16447250955E+03 0.12177878640E+03 0.79077933979E+02
 0.46771473048E+02 0.29021188910E+02 0.21724261970E+02 0.17663304269E+02 0.15165738473E+02
 0.13722509426E+02 0.12915225040E+02 0.12446946705E+02 0.12145825556E+02 0.11950074795E+02
 0.11845659979E+02 0.11814942932E+02 0.11845659979E+02 0.11950074795E+02 0.12145825556E+02
 0.12446946705E+02 0.12915225040E+02 0.13722509426E+02 0.15165738473E+02 0.17663304269E+02
 0.21724261970E+02 0.29021188910E+02 0.46771473048E+02 0.79077933979E+02 0.12177878640E+03
 0.16447250955E+03 0.19560661763E+03 0.10173695915E+03 0.95936852778E+02 0.80372739003E+02
 0.60050604341E+02 0.41333972946E+02 0.28840834557E+02 0.22616161538E+02 0.18889688366E+02
 0.16402079185E+02 0.14895237102E+02 0.14068102985E+02 0.13671194973E+02 0.13516833291E+02
 0.13480204794E+02 0.13493730090E+02 0.13520631160E+02 0.13533650822E+02 0.13520631160E+02
 0.13493730090E+02 0.13480204794E+02 0.13516833291E+02 0.13671194973E+02 0.14068102985E+02
 0.14895237102E+02 0.16402079185E+02 0.18889688366E+02 0.22616161538E+02 0.28840834557E+02
 0.41333972946E+02 0.60050604341E+02 0.80372739003E+02 0.95936852778E+02 0.45018376837E+02
 0.42847112116E+02 0.37248802464E+02 0.30527519975E+02 0.25059083179E+02 0.21519297323E+02
 0.18821644538E+02 0.16854899284E+02 0.15618065775E+02 0.14996471650E+02 0.14852262071E+02
 0.15055083991E+02 0.15477251662E+02 0.15990416215E+02 0.16471595011E+02 0.16812883903E+02
 0.16936347224E+02 0.16812883903E+02 0.16471595011E+02 0.15990416215E+02 0.15477251662E+02
 0.15055083991E+02 0.14852262071E+02 0.14996471650E+02 0.15618065775E+02 0.16854899284E+02
 0.18821644538E+02 0.21519297323E+02 0.25059083179E+02 0.30527519975E+02 0.37248802464E+02
 0.42847112116E+02 0.23639353410E+02 0.23162203136E+02 0.21974425888E+02 0.20522886997E+02
 0.18961134336E+02 0.17492373413E+02 0.16330427864E+02 0.15601092874E+02 0.15354497653E+02
 0.15601092874E+02 0.16330427864E+02 0.17492373413E+02 0.18961134336E+02 0.20522886997E+02
 0.21974425888E+02 0.23162203136E+02 0.23639353410E+02 0.23162203136E+02 0.21974425888E+02
 0.20522886997E+02 0.18961134336E+02 0.17492373413E+02 0.16330427864E+02 0.15601092874E+02
 0.15354497653E+02 0.15601092874E+02 0.16330427864E+02 0.17492373413E+02 0.18961134336E+02
 0.20522886997E+02 0.21974425888E+02 0.23162203136E+02 0.16936347224E+02 0.16812883903E+02
 0.16471595011E+02 0.15990416215E+02 0.15477251662E+02 0.15055083991E+02 0.14852262071E+02
 0.14996471650E+02 0.15618065775E+02 0.16854899284E+02 0.18821644538E+02 0.21519297323E+02
 0.25059083179E+02 0.30527519975E+02 0.37248802464E+02 0.42847112116E+02 0.45018376837E+02
 0.42847112116E+02 0.37248802464E+02 0.30527519975E+02 0.25059083179E+02 0.21519297323E+02
 0.18821644538E+02 0.16854899284E+02 0.15618065775E+02 0.14996471650E+02 0.14852262071E+02
 0.15055083991E+02 0.15477251662E+02 0.15990416215E+02 0.16471595011E+02 0.16812883903E+02
 0.13533650822E+02 0.13520631160E+02 0.13493730090E+02 0.13480204794E+02 0.13516833291E+02
 0.13671194973E+02 0.14068102985E+02 0.14895237102E+02 0.16402079185E+02 0.18889688366E+02
 0.22616161538E+02 0.28840834557E+02 0.41333972946E+02 0.60050604341E+02 0.80372739003E+02
 0.95936852778E+02 0.10173695915E+03 0.95936852778E+02 0.80372739003E+02 0.60050604341E+02
 0.41333972946E+02 0.28840834557E+02 0.22616161538E+02 0.18889688366E+02 0.16402079185E+02
 0.14895237102E+02 0.14068102985E+02 0.13671194973E+02 0.13516833291E+02 0.13480204794E+02
 0.13493730090E+02 0.13520631160E+02 0.11814942932E+02 0.11845659979E+02 0.11950074795E+02
 0.12145825556E+02 0.12446946705E+02 0.12915225040E+02 0.13722509426E+02 0.15165738473E+02
 0.17663304269E+02 0.21724261970E+02 0.29021188910E+02 0.46771473048E+02 0.79077933979E+02
 0.12177878640E+03 0.16447250955E+03 0.19560661763E+03 0.20694450364E+03 0.19560661763E+03
 0.16447250955E+03 0.12177878640E+03 0.79077933979E+02 0.46771473048E+02 0.29021188910E+02
 0.21724261970E+02 0.17663304269E+02 0.15165738473E+02 0.13722509426E+02 0.12915225040E+02
 0.12446946705E+02 0.12145825556E+02 0.11950074795E+02 0.11845659979E+02 0.10903085577E+02
 0.10947005214E+02 0.11100314058E+02 0.11390540272E+02 0.11828126122E+02 0.12490122892E+02
 0.13625289406E+02 0.15678135164E+02 0.19275843996E+02 0.25484803961E+02 0.41978458555E+02
 0.79819130277E+02 0.14100556688E+03 0.21577221075E+03 0.28687752777E+03 0.33716823373E+03
 0.35521281486E+03 0.33716823373E+03 0.28687752777E+03 0.21577221075E+03 0.14100556688E+03
 0.79819130277E+02 0.41978458555E+02 0.25484803961E+02 0.19275843996E+02 0.15678135164E+02
 0.13625289406E+02 0.12490122892E+02 0.11828126122E+02 0.11390540272E+02 0.11100314058E+02
 0.10947005214E+02 0.10320154834E+02 0.10367371286E+02 0.10542987314E+02 0.10889807749E+02
 0.11418009604E+02 0.12224801980E+02 0.13647607693E+02 0.16295108657E+02 0.21009963386E+02
 0.31327868094E+02 0.61632370251E+02 0.12408727521E+03 0.21766825023E+03 0.32653999910E+03
 0.42675613068E+03 0.49616373874E+03 0.52080548867E+03 0.49616373874E+03 0.42675613068E+03
 0.32653999910E+03 0.21766825023E+03 0.12408727521E+03 0.61632370251E+02 0.31327868094E+02
 0.21009963386E+02 0.16295108657E+02 0.13647607693E+02 0.12224801980E+02 0.11418009604E+02
 0.10889807749E+02 0.10542987314E+02 0.10367371286E+02 0.99492756879E+01 0.99949871454E+01
 0.10178538206E+02 0.10558595707E+02 0.11146169535E+02 0.12058027190E+02 0.13714978684E+02
 0.16876213186E+02 0.22634754441E+02 0.38577036454E+02 0.83234139623E+02 0.16883485884E+03
 0.29124961884E+03 0.42930700869E+03 0.55364351367E+03 0.63848579242E+03 0.66837294260E+03
 0.63848579242E+03 0.55364351367E+03 0.42930700869E+03 0.29124961884E+03 0.16883485884E+03
 0.83234139623E+02 0.38577036454E+02 0.22634754441E+02 0.16876213186E+02 0.13714978684E+02
 0.12058027190E+02 0.11146169535E+02 0.10558595707E+02 0.10178538206E+02 0.99949871454E+01
 0.97867888073E+01 0.98273964973E+01 0.10005536312E+02 0.10393531941E+02 0.11005444175E+02
 0.11974027959E+02 0.13780875633E+02 0.17290928485E+02 0.23966526470E+02 0.44670145532E+02
 0.99932268080E+02 0.20170734396E+03 0.34356135221E+03 0.50072222817E+03 0.64041785959E+03
 0.73485140637E+03 0.76794824524E+03 0.73485140637E+03 0.64041785959E+03 0.50072222817E+03
 0.34356135221E+03 0.20170734396E+03 0.99932268080E+02 0.44670145532E+02 0.23966526470E+02
 0.17290928485E+02 0.13780875633E+02 0.11974027959E+02 0.11005444175E+02 0.10393531941E+02
 0.10005536312E+02 0.98273964973E+01 0.97537695941E+01 0.97913350501E+01 0.99642599816E+01
 0.10350596990E+02 0.10966387976E+02 0.11950926195E+02 0.13808307394E+02 0.17441518350E+02
 0.24502136736E+02 0.47045961953E+02 0.10618583443E+03 0.21372140616E+03 0.36237048712E+03
 0.52609718580E+03 0.67098228454E+03 0.76860451570E+03 0.80275711716E+03 0.76860451570E+03
 0.67098228454E+03 0.52609718580E+03 0.36237048712E+03 0.21372140616E+03 0.10618583443E+03
 0.47045961953E+02 0.24502136736E+02 0.17441518350E+02 0.13808307394E+02 0.11950926195E+02
 0.10966387976E+02 0.10350596990E+02 0.99642599816E+01 0.97913350501E+01 0.97867888073E+01
 0.98273964973E+01 0.10005536312E+02 0.10393531941E+02 0.11005444175E+02 0.11974027959E+02
 0.13780875633E+02 0.17290928485E+02 0.23966526470E+02 0.44670145532E+02 0.99932268080E+02
 0.20170734396E+03 0.34356135221E+03 0.50072222817E+03 0.64041785959E+03 0.73485140637E+03
 0.76794824524E+03 0.73485140637E+03 0.64041785959E+03 0.50072222817E+03 0.34356135221E+03
 0.20170734396E+03 0.99932268080E+02 0.44670145532E+02 0.23966526470E+02 0.17290928485E+02
 0.13780875633E+02 0.11974027959E+02 0.11005444175E+02 0.10393531941E+02 0.10005536312E+02
 0.98273964973E+01 0.99492756879E+01 0.99949871454E+01 0.10178538206E+02 0.10558595707E+02
 0.11146169535E+02 0.12058027190E+02 0.13714978684E+02 0.16876213186E+02 0.22634754441E+02
 0.38577036454E+02 0.83234139623E+02 0.16883485884E+03 0.29124961884E+03 0.42930700869E+03
 0.55364351367E+03 0.63848579242E+03 0.66837294260E+03 0.63848579242E+03 0.55364351367E+03
 0.42930700869E+03 0.29124961884E+03 0.16883485884E+03 0.83234139623E+02 0.38577036454E+02
 0.22634754441E+02 0.16876213186E+02 0.13714978684E+02 0.12058027190E+02 0.11146169535E+02
 0.10558595707E+02 0.10178538206E+02 0.99949871454E+01 0.10320154834E+02 0.10367371286E+02
 0.10542987314E+02 0.10889807749E+02 0.11418009604E+02 0.12224801980E+02 0.13647607693E+02
 0.16295108657E+02 0.21009963386E+02 0.31327868094E+02 0.61632370251E+02 0.12408727521E+03
 0.21766825023E+03 0.32653999910E+03 0.42675613068E+03 0.49616373874E+03 0.52080548867E+03
 0.49616373874E+03 0.42675613068E+03 0.32653999910E+03 0.21766825023E+03 0.12408727521E+03
 0.61632370251E+02 0.31327868094E+02 0.21009963386E+02 0.16295108657E+02 0.13647607693E+02
 0.12224801980E+02 0.11418009604E+02 0.10889807749E+02 0.10542987314E+02 0.10367371286E+02
 0.10903085577E+02 0.10947005214E+02 0.11100314058E+02 0.11390540272E+02 0.11828126122E+02
 0.12490122892E+02 0.13625289406E+02 0.15678135164E+02 0.19275843996E+02 0.25484803961E+02
 0.41978458555E+02 0.79819130277E+02 0.14100556688E+03 0.21577221075E+03 0.28687752777E+03
 0.33716823373E+03 0.35521281486E+03 0.33716823373E+03 0.28687752777E+03 0.21577221075E+03
 0.14100556688E+03 0.79819130277E+02 0.41978458555E+02 0.25484803961E+02 0.19275843996E+02
 0.15678135164E+02 0.13625289406E+02 0.12490122892E+02 0.11828126122E+02 0.11390540272E+02
 0.11100314058E+02 0.10947005214E+02 0.11814942932E+02 0.11845659979E+02 0.11950074795E+02
 0.12145825556E+02 0.12446946705E+02 0.12915225040E+02 0.13722509426E+02 0.15165738473E+02
 0.17663304269E+02 0.21724261970E+02 0.29021188910E+02 0.46771473048E+02 0.79077933979E+02
 0.12177878640E+03 0.16447250955E+03 0.19560661763E+03 0.20694450364E+03 0.19560661763E+03
 0.16447250955E+03 0.12177878640E+03 0.79077933979E+02 0.46771473048E+02 0.29021188910E+02
 0.21724261970E+02 0.17663304269E+02 0.15165738473E+02 0.13722509426E+02 0.12915225040E+02
 0.12446946705E+02 0.12145825556E+02 0.11950074795E+02 0.11845659979E+02 0.13533650822E+02
 0.13520631160E+02 0.13493730090E+02 0.13480204794E+02 0.13516833291E+02 0.13671194973E+02
 0.14068102985E+02 0.14895237102E+02 0.16402079185E+02 0.18889688366E+02 0.22616161538E+02
 0.28840834557E+02 0.41333972946E+02 0.60050604341E+02 0.80372739003E+02 0.95936852778E+02
 0.10173695915E+03 0.95936852778E+02 0.80372739003E+02 0.60050604341E+02 0.41333972946E+02
 0.28840834557E+02 0.22616161538E+02 0.18889688366E+02 0.16402079185E+02 0.14895237102E+02
 0.14068102985E+02 0.13671194973E+02 0.13516833291E+02 0.13480204794E+02 0.13493730090E+02
 0.13520631160E+02 0.16936347224E+02 0.16812883903E+02 0.16471595011E+02 0.15990416215E+02
 0.15477251662E+02 0.15055083991E+02 0.14852262071E+02 0.14996471650E+02 0.15618065775E+02
 0.16854899284E+02 0.18821644538E+02 0.21519297323E+02 0.25059083179E+02 0.30527519975E+02
 0.37248802464E+02 0.42847112116E+02 0.45018376837E+02 0.42847112116E+02 0.37248802464E+02
 0.30527519975E+02 0.25059083179E+02 0.21519297323E+02 0.18821644538E+02 0.16854899284E+02
 0.15618065775E+02 0.14996471650E+02 0.14852262071E+02 0.15055083991E+02 0.15477251662E+02
 0.15990416215E+02 0.16471595011E+02 0.16812883903E+02 0.23639353410E+02 0.23162203136E+02
 0.21974425888E+02 0.20522886997E+02 0.18961134336E+02 0.17492373413E+02 0.16330427864E+02
 0.15601092874E+02 0.15354497653E+02 0.15601092874E+02 0.16330427864E+02 0.17492373413E+02
 0.18961134336E+02 0.20522886997E+02 0.21974425888E+02 0.23162203136E+02 0.23639353410E+02
 0.23162203136E+02 0.21974425888E+02 0.20522886997E+02 0.18961134336E+02 0.17492373413E+02
 0.16330427864E+02 0.15601092874E+02 0.15354497653E+02 0.15601092874E+02 0.16330427864E+02
 0.17492373413E+02 0.18961134336E+02 0.20522886997E+02 0.21974425888E+02 0.23162203136E+02
 0.45018376837E+02 0.42847112116E+02 0.37248802464E+02 0.30527519975E+02 0.25059083179E+02
 0.21519297323E+02 0.18821644538E+02 0.16854899284E+02 0.15618065775E+02 0.14996471650E+02
 0.14852262071E+02 0.15055083991E+02 0.15477251662E+02 0.15990416215E+02 0.16471595011E+02
 0.16812883903E+02 0.16936347224E+02 0.16812883903E+02 0.16471595011E+02 0.15990416215E+02
 0.15477251662E+02 0.15055083991E+02 0.14852262071E+02 0.14996471650E+02 0.15618065775E+02
 0.16854899284E+02 0.18821644538E+02 0.21519297323E+02 0.25059083179E+02 0.30527519975E+02
 0.37248802464E+02 0.42847112116E+02 0.10173695915E+03 0.95936852778E+02 0.80372739003E+02
 0.60050604341E+02 0.41333972946E+02 0.28840834557E+02 0.22616161538E+02 0.18889688366E+02
 0.16402079185E+02 0.14895237102E+02 0.14068102985E+02 0.13671194973E+02 0.13516833291E+02
 0.13480204794E+02 0.13493730090E+02 0.13520631160E+02 0.13533650822E+02 0.13520631160E+02
 0.13493730090E+02 0.13480204794E+02 0.13516833291E+02 0.13671194973E+02 0.14068102985E+02
 0.14895237102E+02 0.16402079185E+02 0.18889688366E+02 0.22616161538E+02 0.28840834557E+02
 0.41333972946E+02 0.60050604341E+02 0.80372739003E+02 0.95936852778E+02 0.20694450364E+03
 0.19560661763E+03 0.16447250955E+03 0.12177878640E+03 0.79077933979E+02 0.46771473048E+02
 0.29021188910E+02 0.21724261970E+02 0.17663304269E+02 0.15165738473E+02 0.13722509426E+02
 0.12915225040E+02 0.12446946705E+02 0.12145825556E+02 0.11950074795E+02 0.11845659979E+02
 0.11814942932E+02 0.11845659979E+02 0.11950074795E+02 0.12145825556E+02 0.12446946705E+02
 0.12915225040E+02 0.13722509426E+02 0.15165738473E+02 0.17663304269E+02 0.21724261970E+02
 0.29021188910E+02 0.46771473048E+02 0.79077933979E+02 0.12177878640E+03 0.16447250955E+03
 0.19560661763E+03 0.35521281486E+03 0.33716823373E+03 0.28687752777E+03 0.21577221075E+03
 0.14100556688E+03 0.79819130277E+02 0.41978458555E+02 0.25484803961E+02 0.19275843996E+02
 0.15678135164E+02 0.13625289406E+02 0.12490122892E+02 0.11828126122E+02 0.11390540272E+02
 0.11100314058E+02 0.10947005214E+02 0.10903085577E+02 0.10947005214E+02 0.11100314058E+02
 0.11390540272E+02 0.11828126122E+02 0.12490122892E+02 0.13625289406E+02 0.15678135164E+02
 0.19275843996E+02 0.25484803961E+02 0.41978458555E+02 0.79819130277E+02 0.14100556688E+03
 0.21577221075E+03 0.28687752777E+03 0.33716823373E+03 0.52080548867E+03 0.49616373874E+03
 0.42675613068E+03 0.32653999910E+03 0.21766825023E+03 0.12408727521E+03 0.61632370251E+02
 0.31327868094E+02 0.21009963386E+02 0.16295108657E+02 0.13647607693E+02 0.12224801980E+02
 0.11418009604E+02 0.10889807749E+02 0.10542987314E+02 0.10367371286E+02 0.10320154834E+02
 0.10367371286E+02 0.10542987314E+02 0.10889807749E+02 0.11418009604E+02 0.12224801980E+02
 0.13647607693E+02 0.16295108657E+02 0.21009963386E+02 0.31327868094E+02 0.61632370251E+02
 0.12408727521E+03 0.21766825023E+03 0.32653999910E+03 0.42675613068E+03 0.49616373874E+03
 0.66837294260E+03 0.63848579242E+03 0.55364351367E+03 0.42930700869E+03 0.29124961884E+03
 0.16883485884E+03 0.83234139623E+02 0.38577036454E+02 0.22634754441E+02 0.16876213186E+02
 0.13714978684E+02 0.12058027190E+02 0.11146169535E+02 0.10558595707E+02 0.10178538206E+02
 0.99949871454E+01 0.99492756879E+01 0.99949871454E+01 0.10178538206E+02 0.10558595707E+02
 0.11146169535E+02 0.12058027190E+02 0.13714978684E+02 0.16876213186E+02 0.22634754441E+02
 0.38577036454E+02 0.83234139623E+02 0.16883485884E+03 0.29124961884E+03 0.42930700869E+03
 0.55364351367E+03 0.63848579242E+03 0.76794824524E+03 0.73485140637E+03 0.64041785959E+03
 0.50072222817E+03 0.34356135221E+03 0.20170734396E+03 0.99932268080E+02 0.44670145532E+02
 0.23966526470E+02 0.17290928485E+02 0.13780875633E+02 0.11974027959E+02 0.11005444175E+02
 0.10393531941E+02 0.10005536312E+02 0.98273964973E+01 0.97867888073E+01 0.98273964973E+01
 0.10005536312E+02 0.10393531941E+02 0.11005444175E+02 0.11974027959E+02 0.13780875633E+02
 0.17290928485E+02 0.23966526470E+02 0.44670145532E+02 0.99932268080E+02 0.20170734396E+03
 0.34356135221E+03 0.50072222817E+03 0.64041785959E+03 0.73485140637E+03 0.76860451570E+03
 0.73520532370E+03 0.64009363381E+03 0.49982836238E+03 0.34253923748E+03 0.20095539425E+03
 0.99559540830E+02 0.44546028576E+02 0.23928897337E+02 0.17274778910E+02 0.13774809760E+02
 0.11972478876E+02 0.11006025827E+02 0.10395565815E+02 0.10008834211E+02 0.98316103221E+01
 0.97913350501E+01 0.98316103221E+01 0.10008834211E+02 0.10395565815E+02 0.11006025827E+02
 0.11972478876E+02 0.13774809760E+02 0.17274778910E+02 0.23928897337E+02 0.44546028576E+02
 0.99559540830E+02 0.20095539425E+03 0.34253923748E+03 0.49982836238E+03 0.64009363381E+03
 0.73520532370E+03 0.73485140637E+03 0.70251603768E+03 0.61059277003E+03 0.47545796870E+03
 0.32458686429E+03 0.18957848539E+03 0.93703565495E+02 0.42361928624E+02 0.23444111986E+02
 0.17129920847E+02 0.13748904937E+02 0.11996013481E+02 0.11045847609E+02 0.10439937229E+02
 0.10052244883E+02 0.98704375449E+01 0.98273964973E+01 0.98704375449E+01 0.10052244883E+02
 0.10439937229E+02 0.11045847609E+02 0.11996013481E+02 0.13748904937E+02 0.17129920847E+02
 0.23444111986E+02 0.42361928624E+02 0.93703565495E+02 0.18957848539E+03 0.32458686429E+03
 0.47545796870E+03 0.61059277003E+03 0.70251603768E+03 0.63848579242E+03 0.60936526629E+03
 0.52698599902E+03 0.40698354155E+03 0.27474111727E+03 0.15850834680E+03 0.78105931892E+02
 0.36779642484E+02 0.22229722318E+02 0.16731021215E+02 0.13686716586E+02 0.12080191990E+02
 0.11187071813E+02 0.10606732060E+02 0.10228358101E+02 0.10042504463E+02 0.99949871454E+01
 0.10042504463E+02 0.10228358101E+02 0.10606732060E+02 0.11187071813E+02 0.12080191990E+02
 0.13686716586E+02 0.16731021215E+02 0.22229722318E+02 0.36779642484E+02 0.78105931892E+02
 0.15850834680E+03 0.27474111727E+03 0.40698354155E+03 0.52698599902E+03 0.60936526629E+03
 0.49616373874E+03 0.47225211255E+03 0.40512163714E+03 0.30875606830E+03 0.20485920384E+03
 0.11637935973E+03 0.58033772481E+02 0.30181168785E+02 0.20699817487E+02 0.16172163019E+02
 0.13623400153E+02 0.12245063998E+02 0.11456429727E+02 0.10936224819E+02 0.10592229058E+02
 0.10415698395E+02 0.10367371286E+02 0.10415698395E+02 0.10592229058E+02 0.10936224819E+02
 0.11456429727E+02 0.12245063998E+02 0.13623400153E+02 0.16172163019E+02 0.20699817487E+02
 0.30181168785E+02 0.58033772481E+02 0.11637935973E+03 0.20485920384E+03 0.30875606830E+03
 0.40512163714E+03 0.47225211255E+03 0.33716823373E+03 0.31975305990E+03 0.27137111460E+03
 0.20336279749E+03 0.13242232631E+03 0.74967190814E+02 0.39928605904E+02 0.24887893387E+02
 0.19032318746E+02 0.15578883132E+02 0.13603475910E+02 0.12505221619E+02 0.11859918922E+02
 0.11430615644E+02 0.11144162298E+02 0.10991316569E+02 0.10947005214E+02 0.10991316569E+02
 0.11144162298E+02 0.11430615644E+02 0.11859918922E+02 0.12505221619E+02 0.13603475910E+02
 0.15578883132E+02 0.19032318746E+02 0.24887893387E+02 0.39928605904E+02 0.74967190814E+02
 0.13242232631E+03 0.20336279749E+03 0.27137111460E+03 0.31975305990E+03 0.19560661763E+03
 0.18474521845E+03 0.15501774162E+03 0.11450751414E+03 0.74356996846E+02 0.44356061932E+02
 0.28125365458E+02 0.21379358634E+02 0.17482821760E+02 0.15086058124E+02 0.13698371624E+02
 0.12919099070E+02 0.12464602213E+02 0.12170952543E+02 0.11979213967E+02 0.11876207291E+02
 0.11845659979E+02 0.11876207291E+02 0.11979213967E+02 0.12170952543E+02 0.12464602213E+02
 0.12919099070E+02 0.13698371624E+02 0.15086058124E+02 0.17482821760E+02 0.21379358634E+02
 0.28125365458E+02 0.44356061932E+02 0.74356996846E+02 0.11450751414E+03 0.15501774162E+03
 0.18474521845E+03 0.95936852778E+02 0.90443141565E+02 0.75756238745E+02 0.56720598675E+02
 0.39382623602E+02 0.27966646246E+02 0.22237302783E+02 0.18657884288E+02 0.16271112032E+02
 0.14825473786E+02 0.14031556948E+02 0.13650294103E+02 0.13502092745E+02 0.13467475526E+02
 0.13481340574E+02 0.13507877794E+02 0.13520631160E+02 0.13507877794E+02 0.13481340574E+02
 0.13467475526E+02 0.13502092745E+02 0.13650294103E+02 0.14031556948E+02 0.14825473786E+02
 0.16271112032E+02 0.18657884288E+02 0.22237302783E+02 0.27966646246E+02 0.39382623602E+02
 0.56720598675E+02 0.75756238745E+02 0.90443141565E+02 0.42847112116E+02 0.40829833819E+02
 0.35651958630E+02 0.29487335609E+02 0.24507199833E+02 0.21192442093E+02 0.18595312743E+02
 0.16705135690E+02 0.15517685296E+02 0.14921900518E+02 0.14785373400E+02 0.14983131643E+02
 0.15392897993E+02 0.15891441656E+02 0.16359752441E+02 0.16692432962E+02 0.16812883903E+02
 0.16692432962E+02 0.16359752441E+02 0.15891441656E+02 0.15392897993E+02 0.14983131643E+02
 0.14785373400E+02 0.14921900518E+02 0.15517685296E+02 0.16705135690E+02 0.18595312743E+02
 0.21192442093E+02 0.24507199833E+02 0.29487335609E+02 0.35651958630E+02 0.40829833819E+02
 0.23162203136E+02 0.22726449980E+02 0.21634407000E+02 0.20256693987E+02 0.18744193967E+02
 0.17325288612E+02 0.16204679012E+02 0.15501880702E+02 0.15264320912E+02 0.15501880702E+02
 0.16204679012E+02 0.17325288612E+02 0.18744193967E+02 0.20256693987E+02 0.21634407000E+02
 0.22726449980E+02 0.23162203136E+02 0.22726449980E+02 0.21634407000E+02 0.20256693987E+02
 0.18744193967E+02 0.17325288612E+02 0.16204679012E+02 0.15501880702E+02 0.15264320912E+02
 0.15501880702E+02 0.16204679012E+02 0.17325288612E+02 0.18744193967E+02 0.20256693987E+02
 0.21634407000E+02 0.22726449980E+02 0.16812883903E+02 0.16692432962E+02 0.16359752441E+02
 0.15891441656E+02 0.15392897993E+02 0.14983131643E+02 0.14785373400E+02 0.14921900518E+02
 0.15517685296E+02 0.16705135690E+02 0.18595312743E+02 0.21192442093E+02 0.24507199833E+02
 0.29487335609E+02 0.35651958630E+02 0.40829833819E+02 0.42847112116E+02 0.40829833819E+02
 0.35651958630E+02 0.29487335609E+02 0.24507199833E+02 0.21192442093E+02 0.18595312743E+02
 0.16705135690E+02 0.15517685296E+02 0.14921900518E+02 0.14785373400E+02 0.14983131643E+02
 0.15392897993E+02 0.15891441656E+02 0.16359752441E+02 0.16692432962E+02 0.13520631160E+02
 0.13507877794E+02 0.13481340574E+02 0.13467475526E+02 0.13502092745E+02 0.13650294103E+02
 0.14031556948E+02 0.14825473786E+02 0.16271112032E+02 0.18657884288E+02 0.22237302783E+02
 0.27966646246E+02 0.39382623602E+02 0.56720598675E+02 0.75756238745E+02 0.90443141565E+02
 0.95936852778E+02 0.90443141565E+02 0.75756238745E+02 0.56720598675E+02 0.39382623602E+02
 0.27966646246E+02 0.22237302783E+02 0.18657884288E+02 0.16271112032E+02 0.14825473786E+02
 0.14031556948E+02 0.13650294103E+02 0.13502092745E+02 0.13467475526E+02 0.13481340574E+02
 0.13507877794E+02 0.11845659979E+02 0.11876207291E+02 0.11979213967E+02 0.12170952543E+02
 0.12464602213E+02 0.12919099070E+02 0.13698371624E+02 0.15086058124E+02 0.17482821760E+02
 0.21379358634E+02 0.28125365458E+02 0.44356061932E+02 0.74356996846E+02 0.11450751414E+03
 0.15501774162E+03 0.18474521845E+03 0.19560661763E+03 0.18474521845E+03 0.15501774162E+03
 0.11450751414E+03 0.74356996846E+02 0.44356061932E+02 0.28125365458E+02 0.21379358634E+02
 0.17482821760E+02 0.15086058124E+02 0.13698371624E+02 0.12919099070E+02 0.12464602213E+02
 0.12170952543E+02 0.11979213967E+02 0.11876207291E+02 0.10947005214E+02 0.10991316569E+02
 0.11144162298E+02 0.11430615644E+02 0.11859918922E+02 0.12505221619E+02 0.13603475910E+02
 0.15578883132E+02 0.19032318746E+02 0.24887893387E+02 0.39928605904E+02 0.74967190814E+02
 0.13242232631E+03 0.20336279749E+03 0.27137111460E+03 0.31975305990E+03 0.33716823373E+03
 0.31975305990E+03 0.27137111460E+03 0.20336279749E+03 0.13242232631E+03 0.74967190814E+02
 0.39928605904E+02 0.24887893387E+02 0.19032318746E+02 0.15578883132E+02 0.13603475910E+02
 0.12505221619E+02 0.11859918922E+02 0.11430615644E+02 0.11144162298E+02 0.10991316569E+02
 0.10367371286E+02 0.10415698395E+02 0.10592229058E+02 0.10936224819E+02 0.11456429727E+02
 0.12245063998E+02 0.13623400153E+02 0.16172163019E+02 0.20699817487E+02 0.30181168785E+02
 0.58033772481E+02 0.11637935973E+03 0.20485920384E+03 0.30875606830E+03 0.40512163714E+03
 0.47225211255E+03 0.49616373874E+03 0.47225211255E+03 0.40512163714E+03 0.30875606830E+03
 0.20485920384E+03 0.11637935973E+03 0.58033772481E+02 0.30181168785E+02 0.20699817487E+02
 0.16172163019E+02 0.13623400153E+02 0.12245063998E+02 0.11456429727E+02 0.10936224819E+02
 0.10592229058E+02 0.10415698395E+02 0.99949871454E+01 0.10042504463E+02 0.10228358101E+02
 0.10606732060E+02 0.11187071813E+02 0.12080191990E+02 0.13686716586E+02 0.16731021215E+02
 0.22229722318E+02 0.36779642484E+02 0.78105931892E+02 0.15850834680E+03 0.27474111727E+03
 0.40698354155E+03 0.52698599902E+03 0.60936526629E+03 0.63848579242E+03 0.60936526629E+03
 0.52698599902E+03 0.40698354155E+03 0.27474111727E+03 0.15850834680E+03 0.78105931892E+02
 0.36779642484E+02 0.22229722318E+02 0.16731021215E+02 0.13686716586E+02 0.12080191990E+02
 0.11187071813E+02 0.10606732060E+02 0.10228358101E+02 0.10042504463E+02 0.98273964973E+01
 0.98704375449E+01 0.10052244883E+02 0.10439937229E+02 0.11045847609E+02 0.11996013481E+02
 0.13748904937E+02 0.17129920847E+02 0.23444111986E+02 0.42361928624E+02 0.93703565495E+02
 0.18957848539E+03 0.32458686429E+03 0.47545796870E+03 0.61059277003E+03 0.70251603768E+03
 0.73485140637E+03 0.70251603768E+03 0.61059277003E+03 0.47545796870E+03 0.32458686429E+03
 0.18957848539E+03 0.93703565495E+02 0.42361928624E+02 0.23444111986E+02 0.17129920847E+02
 0.13748904937E+02 0.11996013481E+02 0.11045847609E+02 0.10439937229E+02 0.10052244883E+02
 0.98704375449E+01 0.97913350501E+01 0.98316103221E+01 0.10008834211E+02 0.10395565815E+02
 0.11006025827E+02 0.11972478876E+02 0.13774809760E+02 0.17274778910E+02 0.23928897337E+02
 0.44546028576E+02 0.99559540830E+02 0.20095539425E+03 0.34253923748E+03 0.49982836238E+03
 0.64009363381E+03 0.73520532370E+03 0.76860451570E+03 0.73520532370E+03 0.64009363381E+03
 0.49982836238E+03 0.34253923748E+03 0.20095539425E+03 0.99559540830E+02 0.44546028576E+02
 0.23928897337E+02 0.17274778910E+02 0.13774809760E+02 0.11972478876E+02 0.11006025827E+02
 0.10395565815E+02 0.10008834211E+02 0.98316103221E+01 0.98273964973E+01 0.98704375449E+01
 0.10052244883E+02 0.10439937229E+02 0.11045847609E+02 0.11996013481E+02 0.13748904937E+02
 0.17129920847E+02 0.23444111986E+02 0.42361928624E+02 0.93703565495E+02 0.18957848539E+03
 0.32458686429E+03 0.47545796870E+03 0.61059277003E+03 0.70251603768E+03 0.73485140637E+03
 0.70251603768E+03 0.61059277003E+03 0.47545796870E+03 0.32458686429E+03 0.18957848539E+03
 0.93703565495E+02 0.42361928624E+02 0.23444111986E+02 0.17129920847E+02 0.13748904937E+02
 0.11996013481E+02 0.11045847609E+02 0.10439937229E+02 0.10052244883E+02 0.98704375449E+01
 0.99949871454E+01 0.10042504463E+02 0.10228358101E+02 0.10606732060E+02 0.11187071813E+02
 0.12080191990E+02 0.13686716586E+02 0.16731021215E+02 0.22229722318E+02 0.36779642484E+02
 0.78105931892E+02 0.15850834680E+03 0.27474111727E+03 0.40698354155E+03 0.52698599902E+03
 0.60936526629E+03 0.63848579242E+03 0.60936526629E+03 0.52698599902E+03 0.40698354155E+03
 0.27474111727E+03 0.15850834680E+03 0.78105931892E+02 0.36779642484E+02 0.22229722318E+02