   4   4   0   0
  0.1162051E+02  0.3595520E-09  0.3595520E-09  0.3595520E-09  0.5000000E-15
  1.000000000000000E-004
  CAR 
 Mn                                      
     37.92912118    -43.10063896  301      9.49810310      1.00000000
    -43.101  0.0000E+00  0.0000E+00  0.0000E+00  0.0000E+00
    -42.831  0.0000E+00  0.0000E+00  0.0000E+00  0.0000E+00
    -42.560  0.0000E+00  0.0000E+00  0.0000E+00  0.0000E+00
    -42.290  0.0000E+00  0.0000E+00  0.0000E+00  0.0000E+00
    -42.020  0.0000E+00  0.0000E+00  0.0000E+00  0.0000E+00
    -41.750  0.0000E+00  0.0000E+00  0.0000E+00  0.0000E+00
    -41.480  0.0000E+00  0.0000E+00  0.0000E+00  0.0000E+00
    -41.210  0.0000E+00  0.0000E+00  0.0000E+00  0.0000E+00
    -40.940  0.0000E+00  0.0000E+00  0.0000E+00  0.0000E+00
    -40.670  0.0000E+00  0.0000E+00  0.0000E+00  0.0000E+00
    -40.400  0.0000E+00  0.0000E+00  0.0000E+00  0.0000E+00
    -40.130  0.0000E+00  0.0000E+00  0.0000E+00  0.0000E+00
    -39.859  0.0000E+00  0.0000E+00  0.0000E+00  0.0000E+00
    -39.589  0.6860E-07  0.6860E-07  0.1853E-07  0.1853E-07
    -39.319  0.1025E+02  0.1025E+02  0.2769E+01  0.2769E+01
    -39.049  0.1107E+02  0.1107E+02  0.5758E+01  0.5758E+01
    -38.779  0.8946E+00  0.8946E+00  0.6000E+01  0.6000E+01
    -38.509  0.0000E+00  0.0000E+00  0.6000E+01  0.6000E+01
    -38.239  0.0000E+00  0.0000E+00  0.6000E+01  0.6000E+01
    -37.969  0.0000E+00  0.0000E+00  0.6000E+01  0.6000E+01
    -37.699  0.0000E+00  0.0000E+00  0.6000E+01  0.6000E+01
    -37.429  0.2302E-01  0.2302E-01  0.6006E+01  0.6006E+01
    -37.158  0.1562E+02  0.1562E+02  0.1023E+02  0.1023E+02
    -36.888  0.6568E+01  0.6568E+01  0.1200E+02  0.1200E+02
    -36.618  0.6452E-05  0.6452E-05  0.1200E+02  0.1200E+02
    -36.348  0.0000E+00  0.0000E+00  0.1200E+02  0.1200E+02
    -36.078  0.0000E+00  0.0000E+00  0.1200E+02  0.1200E+02
    -35.808  0.0000E+00  0.0000E+00  0.1200E+02  0.1200E+02
    -35.538  0.0000E+00  0.0000E+00  0.1200E+02  0.1200E+02
    -35.268  0.0000E+00  0.0000E+00  0.1200E+02  0.1200E+02
    -34.998  0.0000E+00  0.0000E+00  0.1200E+02  0.1200E+02
    -34.728  0.0000E+00  0.0000E+00  0.1200E+02  0.1200E+02
    -34.457  0.0000E+00  0.0000E+00  0.1200E+02  0.1200E+02
    -34.187  0.0000E+00  0.0000E+00  0.1200E+02  0.1200E+02
    -33.917  0.0000E+00  0.0000E+00  0.1200E+02  0.1200E+02
    -33.647  0.0000E+00  0.0000E+00  0.1200E+02  0.1200E+02
    -33.377  0.0000E+00  0.0000E+00  0.1200E+02  0.1200E+02
    -33.107  0.0000E+00  0.0000E+00  0.1200E+02  0.1200E+02
    -32.837  0.0000E+00  0.0000E+00  0.1200E+02  0.1200E+02
    -32.567  0.0000E+00  0.0000E+00  0.1200E+02  0.1200E+02
    -32.297  0.0000E+00  0.0000E+00  0.1200E+02  0.1200E+02
    -32.027  0.0000E+00  0.0000E+00  0.1200E+02  0.1200E+02
    -31.756  0.0000E+00  0.0000E+00  0.1200E+02  0.1200E+02
    -31.486  0.0000E+00  0.0000E+00  0.1200E+02  0.1200E+02
    -31.216  0.0000E+00  0.0000E+00  0.1200E+02  0.1200E+02
    -30.946  0.0000E+00  0.0000E+00  0.1200E+02  0.1200E+02
    -30.676  0.0000E+00  0.0000E+00  0.1200E+02  0.1200E+02
    -30.406  0.0000E+00  0.0000E+00  0.1200E+02  0.1200E+02
    -30.136  0.0000E+00  0.0000E+00  0.1200E+02  0.1200E+02
    -29.866  0.0000E+00  0.0000E+00  0.1200E+02  0.1200E+02
    -29.596  0.0000E+00  0.0000E+00  0.1200E+02  0.1200E+02
    -29.326  0.0000E+00  0.0000E+00  0.1200E+02  0.1200E+02
    -29.055  0.0000E+00  0.0000E+00  0.1200E+02  0.1200E+02
    -28.785  0.0000E+00  0.0000E+00  0.1200E+02  0.1200E+02
    -28.515  0.0000E+00  0.0000E+00  0.1200E+02  0.1200E+02
    -28.245  0.0000E+00  0.0000E+00  0.1200E+02  0.1200E+02
    -27.975  0.0000E+00  0.0000E+00  0.1200E+02  0.1200E+02
    -27.705  0.0000E+00  0.0000E+00  0.1200E+02  0.1200E+02
    -27.435  0.0000E+00  0.0000E+00  0.1200E+02  0.1200E+02
    -27.165  0.0000E+00  0.0000E+00  0.1200E+02  0.1200E+02
    -26.895  0.0000E+00  0.0000E+00  0.1200E+02  0.1200E+02
    -26.625  0.0000E+00  0.0000E+00  0.1200E+02  0.1200E+02
    -26.354  0.0000E+00  0.0000E+00  0.1200E+02  0.1200E+02
    -26.084  0.0000E+00  0.0000E+00  0.1200E+02  0.1200E+02
    -25.814  0.0000E+00  0.0000E+00  0.1200E+02  0.1200E+02
    -25.544  0.0000E+00  0.0000E+00  0.1200E+02  0.1200E+02
    -25.274  0.0000E+00  0.0000E+00  0.1200E+02  0.1200E+02
    -25.004  0.0000E+00  0.0000E+00  0.1200E+02  0.1200E+02
    -24.734  0.0000E+00  0.0000E+00  0.1200E+02  0.1200E+02
    -24.464  0.0000E+00  0.0000E+00  0.1200E+02  0.1200E+02
    -24.194  0.0000E+00  0.0000E+00  0.1200E+02  0.1200E+02
    -23.924  0.0000E+00  0.0000E+00  0.1200E+02  0.1200E+02
    -23.653  0.0000E+00  0.0000E+00  0.1200E+02  0.1200E+02
    -23.383  0.0000E+00  0.0000E+00  0.1200E+02  0.1200E+02
    -23.113  0.0000E+00  0.0000E+00  0.1200E+02  0.1200E+02
    -22.843  0.0000E+00  0.0000E+00  0.1200E+02  0.1200E+02
    -22.573  0.0000E+00  0.0000E+00  0.1200E+02  0.1200E+02
    -22.303  0.0000E+00  0.0000E+00  0.1200E+02  0.1200E+02
    -22.033  0.0000E+00  0.0000E+00  0.1200E+02  0.1200E+02
    -21.763  0.0000E+00  0.0000E+00  0.1200E+02  0.1200E+02
    -21.493  0.0000E+00  0.0000E+00  0.1200E+02  0.1200E+02
    -21.223  0.0000E+00  0.0000E+00  0.1200E+02  0.1200E+02
    -20.953  0.0000E+00  0.0000E+00  0.1200E+02  0.1200E+02
    -20.682  0.0000E+00  0.0000E+00  0.1200E+02  0.1200E+02
    -20.412  0.0000E+00  0.0000E+00  0.1200E+02  0.1200E+02
    -20.142  0.0000E+00  0.0000E+00  0.1200E+02  0.1200E+02
    -19.872  0.0000E+00  0.0000E+00  0.1200E+02  0.1200E+02
    -19.602  0.0000E+00  0.0000E+00  0.1200E+02  0.1200E+02
    -19.332  0.0000E+00  0.0000E+00  0.1200E+02  0.1200E+02
    -19.062  0.0000E+00  0.0000E+00  0.1200E+02  0.1200E+02
    -18.792  0.0000E+00  0.0000E+00  0.1200E+02  0.1200E+02
    -18.522  0.0000E+00  0.0000E+00  0.1200E+02  0.1200E+02
    -18.252  0.0000E+00  0.0000E+00  0.1200E+02  0.1200E+02
    -17.981  0.0000E+00  0.0000E+00  0.1200E+02  0.1200E+02
    -17.711  0.0000E+00  0.0000E+00  0.1200E+02  0.1200E+02
    -17.441  0.0000E+00  0.0000E+00  0.1200E+02  0.1200E+02
    -17.171  0.0000E+00  0.0000E+00  0.1200E+02  0.1200E+02
    -16.901  0.0000E+00  0.0000E+00  0.1200E+02  0.1200E+02
    -16.631  0.0000E+00  0.0000E+00  0.1200E+02  0.1200E+02
    -16.361  0.0000E+00  0.0000E+00  0.1200E+02  0.1200E+02
    -16.091  0.0000E+00  0.0000E+00  0.1200E+02  0.1200E+02
    -15.821  0.0000E+00  0.0000E+00  0.1200E+02  0.1200E+02
    -15.551  0.0000E+00  0.0000E+00  0.1200E+02  0.1200E+02
    -15.280  0.0000E+00  0.0000E+00  0.1200E+02  0.1200E+02
    -15.010  0.0000E+00  0.0000E+00  0.1200E+02  0.1200E+02
    -14.740  0.0000E+00  0.0000E+00  0.1200E+02  0.1200E+02
    -14.470  0.0000E+00  0.0000E+00  0.1200E+02  0.1200E+02
    -14.200  0.0000E+00  0.0000E+00  0.1200E+02  0.1200E+02
    -13.930  0.0000E+00  0.0000E+00  0.1200E+02  0.1200E+02
    -13.660  0.0000E+00  0.0000E+00  0.1200E+02  0.1200E+02
    -13.390  0.0000E+00  0.0000E+00  0.1200E+02  0.1200E+02
    -13.120  0.0000E+00  0.0000E+00  0.1200E+02  0.1200E+02
    -12.850  0.0000E+00  0.0000E+00  0.1200E+02  0.1200E+02
    -12.579  0.0000E+00  0.0000E+00  0.1200E+02  0.1200E+02
    -12.309  0.0000E+00  0.0000E+00  0.1200E+02  0.1200E+02
    -12.039  0.0000E+00  0.0000E+00  0.1200E+02  0.1200E+02
    -11.769  0.0000E+00  0.0000E+00  0.1200E+02  0.1200E+02
    -11.499  0.0000E+00  0.0000E+00  0.1200E+02  0.1200E+02
    -11.229  0.0000E+00  0.0000E+00  0.1200E+02  0.1200E+02
    -10.959  0.0000E+00  0.0000E+00  0.1200E+02  0.1200E+02
    -10.689  0.0000E+00  0.0000E+00  0.1200E+02  0.1200E+02
    -10.419  0.0000E+00  0.0000E+00  0.1200E+02  0.1200E+02
    -10.149  0.0000E+00  0.0000E+00  0.1200E+02  0.1200E+02
     -9.878  0.0000E+00  0.0000E+00  0.1200E+02  0.1200E+02
     -9.608  0.0000E+00  0.0000E+00  0.1200E+02  0.1200E+02
     -9.338  0.0000E+00  0.0000E+00  0.1200E+02  0.1200E+02
     -9.068  0.0000E+00  0.0000E+00  0.1200E+02  0.1200E+02
     -8.798  0.0000E+00  0.0000E+00  0.1200E+02  0.1200E+02
     -8.528  0.0000E+00  0.0000E+00  0.1200E+02  0.1200E+02
     -8.258  0.0000E+00  0.0000E+00  0.1200E+02  0.1200E+02
     -7.988  0.0000E+00  0.0000E+00  0.1200E+02  0.1200E+02
     -7.718  0.0000E+00  0.0000E+00  0.1200E+02  0.1200E+02
     -7.448  0.0000E+00  0.0000E+00  0.1200E+02  0.1200E+02
     -7.177  0.0000E+00  0.0000E+00  0.1200E+02  0.1200E+02
     -6.907  0.0000E+00  0.0000E+00  0.1200E+02  0.1200E+02
     -6.637  0.0000E+00  0.0000E+00  0.1200E+02  0.1200E+02
     -6.367  0.0000E+00  0.0000E+00  0.1200E+02  0.1200E+02
     -6.097  0.0000E+00  0.0000E+00  0.1200E+02  0.1200E+02
     -5.827  0.0000E+00  0.0000E+00  0.1200E+02  0.1200E+02
     -5.557  0.0000E+00  0.0000E+00  0.1200E+02  0.1200E+02
     -5.287  0.0000E+00  0.0000E+00  0.1200E+02  0.1200E+02
     -5.017  0.0000E+00  0.0000E+00  0.1200E+02  0.1200E+02
     -4.747  0.0000E+00  0.0000E+00  0.1200E+02  0.1200E+02
     -4.476  0.0000E+00  0.0000E+00  0.1200E+02  0.1200E+02
     -4.206  0.0000E+00  0.0000E+00  0.1200E+02  0.1200E+02
     -3.936  0.0000E+00  0.0000E+00  0.1200E+02  0.1200E+02
     -3.666  0.0000E+00  0.0000E+00  0.1200E+02  0.1200E+02
     -3.396  0.0000E+00  0.0000E+00  0.1200E+02  0.1200E+02
     -3.126  0.0000E+00  0.0000E+00  0.1200E+02  0.1200E+02
     -2.856  0.0000E+00  0.0000E+00  0.1200E+02  0.1200E+02
     -2.586  0.0000E+00  0.0000E+00  0.1200E+02  0.1200E+02
     -2.316  0.0000E+00  0.0000E+00  0.1200E+02  0.1200E+02
     -2.046  0.0000E+00  0.0000E+00  0.1200E+02  0.1200E+02
     -1.775  0.0000E+00  0.0000E+00  0.1200E+02  0.1200E+02
     -1.505  0.0000E+00  0.0000E+00  0.1200E+02  0.1200E+02
     -1.235  0.0000E+00  0.0000E+00  0.1200E+02  0.1200E+02
     -0.965  0.0000E+00  0.0000E+00  0.1200E+02  0.1200E+02
     -0.695  0.0000E+00  0.0000E+00  0.1200E+02  0.1200E+02
     -0.425  0.0000E+00  0.0000E+00  0.1200E+02  0.1200E+02
     -0.155  0.0000E+00  0.0000E+00  0.1200E+02  0.1200E+02
      0.115  0.0000E+00  0.0000E+00  0.1200E+02  0.1200E+02
      0.385  0.0000E+00  0.0000E+00  0.1200E+02  0.1200E+02
      0.655  0.0000E+00  0.0000E+00  0.1200E+02  0.1200E+02
      0.926  0.0000E+00  0.0000E+00  0.1200E+02  0.1200E+02
      1.196  0.2379E-18  0.2379E-18  0.1200E+02  0.1200E+02
      1.466  0.6142E-03  0.6142E-03  0.1200E+02  0.1200E+02
      1.736  0.4344E-01  0.4344E-01  0.1201E+02  0.1201E+02
      2.006  0.8969E-01  0.8969E-01  0.1204E+02  0.1204E+02
      2.276  0.8719E-01  0.8719E-01  0.1206E+02  0.1206E+02
      2.546  0.1549E+00  0.1549E+00  0.1210E+02  0.1210E+02
      2.816  0.1625E+00  0.1625E+00  0.1215E+02  0.1215E+02
      3.086  0.1985E+00  0.1985E+00  0.1220E+02  0.1220E+02
      3.356  0.2405E+00  0.2405E+00  0.1226E+02  0.1226E+02
      3.627  0.1876E+00  0.1876E+00  0.1231E+02  0.1231E+02
      3.897  0.3421E+00  0.3421E+00  0.1241E+02  0.1241E+02
      4.167  0.2684E+00  0.2684E+00  0.1248E+02  0.1248E+02
      4.437  0.4135E+00  0.4135E+00  0.1259E+02  0.1259E+02
      4.707  0.3948E+00  0.3948E+00  0.1270E+02  0.1270E+02
      4.977  0.5887E+00  0.5887E+00  0.1286E+02  0.1286E+02
      5.247  0.1119E+01  0.1119E+01  0.1316E+02  0.1316E+02
      5.517  0.1797E+01  0.1797E+01  0.1364E+02  0.1364E+02
      5.787  0.2153E+01  0.2153E+01  0.1423E+02  0.1423E+02
      6.057  0.2229E+01  0.2229E+01  0.1483E+02  0.1483E+02
      6.328  0.2883E+01  0.2883E+01  0.1561E+02  0.1561E+02
      6.598  0.3501E+01  0.3501E+01  0.1655E+02  0.1655E+02
      6.868  0.2933E+01  0.2933E+01  0.1734E+02  0.1734E+02
      7.138  0.2745E+01  0.2745E+01  0.1809E+02  0.1809E+02
      7.408  0.2701E+01  0.2701E+01  0.1882E+02  0.1882E+02
      7.678  0.2671E+01  0.2671E+01  0.1954E+02  0.1954E+02
      7.948  0.3430E+01  0.3430E+01  0.2046E+02  0.2046E+02
      8.218  0.2764E+01  0.2764E+01  0.2121E+02  0.2121E+02
      8.488  0.4348E+01  0.4348E+01  0.2238E+02  0.2238E+02
      8.758  0.3704E+01  0.3704E+01  0.2339E+02  0.2339E+02
      9.029  0.3751E+01  0.3751E+01  0.2440E+02  0.2440E+02
      9.299  0.3659E+01  0.3659E+01  0.2539E+02  0.2539E+02
      9.569  0.2936E+01  0.2936E+01  0.2618E+02  0.2618E+02
      9.839  0.2005E+01  0.2005E+01  0.2672E+02  0.2672E+02
     10.109  0.1498E+01  0.1498E+01  0.2713E+02  0.2713E+02
     10.379  0.1812E+01  0.1812E+01  0.2762E+02  0.2762E+02
     10.649  0.3500E+01  0.3500E+01  0.2856E+02  0.2856E+02
     10.919  0.3958E+01  0.3958E+01  0.2963E+02  0.2963E+02
     11.189  0.3771E+01  0.3771E+01  0.3065E+02  0.3065E+02
     11.459  0.3693E+01  0.3693E+01  0.3165E+02  0.3165E+02
     11.729  0.4303E+01  0.4303E+01  0.3281E+02  0.3281E+02
     12.000  0.2011E+01  0.2011E+01  0.3335E+02  0.3335E+02
     12.270  0.8808E+00  0.8808E+00  0.3359E+02  0.3359E+02
     12.540  0.8637E+00  0.8637E+00  0.3382E+02  0.3382E+02
     12.810  0.4633E+00  0.4633E+00  0.3395E+02  0.3395E+02
     13.080  0.5986E+00  0.5986E+00  0.3411E+02  0.3411E+02
     13.350  0.6357E+00  0.6357E+00  0.3428E+02  0.3428E+02
     13.620  0.6397E+00  0.6397E+00  0.3445E+02  0.3445E+02
     13.890  0.5356E+00  0.5356E+00  0.3460E+02  0.3460E+02
     14.160  0.6201E+00  0.6201E+00  0.3477E+02  0.3477E+02
     14.430  0.6211E+00  0.6211E+00  0.3493E+02  0.3493E+02
     14.701  0.5297E+00  0.5297E+00  0.3508E+02  0.3508E+02
     14.971  0.3418E+00  0.3418E+00  0.3517E+02  0.3517E+02
     15.241  0.5542E+00  0.5542E+00  0.3532E+02  0.3532E+02
     15.511  0.4668E+00  0.4668E+00  0.3544E+02  0.3544E+02
     15.781  0.2424E+00  0.2424E+00  0.3551E+02  0.3551E+02
     16.051  0.3839E+00  0.3839E+00  0.3561E+02  0.3561E+02
     16.321  0.3606E+00  0.3606E+00  0.3571E+02  0.3571E+02
     16.591  0.2606E+00  0.2606E+00  0.3578E+02  0.3578E+02
     16.861  0.1960E+00  0.1960E+00  0.3583E+02  0.3583E+02
     17.131  0.3156E+00  0.3156E+00  0.3592E+02  0.3592E+02
     17.402  0.5257E-01  0.5257E-01  0.3593E+02  0.3593E+02
     17.672  0.9459E-01  0.9459E-01  0.3596E+02  0.3596E+02
     17.942  0.6968E+00  0.6968E+00  0.3615E+02  0.3615E+02
     18.212  0.1015E+01  0.1015E+01  0.3642E+02  0.3642E+02
     18.482  0.7213E+00  0.7213E+00  0.3662E+02  0.3662E+02
     18.752  0.7076E+00  0.7076E+00  0.3681E+02  0.3681E+02
     19.022  0.5593E+00  0.5593E+00  0.3696E+02  0.3696E+02
     19.292  0.6809E+00  0.6809E+00  0.3714E+02  0.3714E+02
     19.562  0.4140E+00  0.4140E+00  0.3725E+02  0.3725E+02
     19.832  0.5342E+00  0.5342E+00  0.3740E+02  0.3740E+02
     20.103  0.6053E+00  0.6053E+00  0.3756E+02  0.3756E+02
     20.373  0.3931E+00  0.3931E+00  0.3767E+02  0.3767E+02
     20.643  0.4403E+00  0.4403E+00  0.3779E+02  0.3779E+02
     20.913  0.6316E+00  0.6316E+00  0.3796E+02  0.3796E+02
     21.183  0.6048E+00  0.6048E+00  0.3812E+02  0.3812E+02
     21.453  0.8241E+00  0.8241E+00  0.3834E+02  0.3834E+02
     21.723  0.8066E+00  0.8066E+00  0.3856E+02  0.3856E+02
     21.993  0.1025E+01  0.1025E+01  0.3884E+02  0.3884E+02
     22.263  0.7545E+00  0.7545E+00  0.3904E+02  0.3904E+02
     22.533  0.8820E+00  0.8820E+00  0.3928E+02  0.3928E+02
     22.804  0.7456E+00  0.7456E+00  0.3948E+02  0.3948E+02
     23.074  0.1008E+01  0.1008E+01  0.3975E+02  0.3975E+02
     23.344  0.9158E+00  0.9158E+00  0.4000E+02  0.4000E+02
     23.614  0.7946E+00  0.7946E+00  0.4022E+02  0.4022E+02
     23.884  0.8212E+00  0.8212E+00  0.4044E+02  0.4044E+02
     24.154  0.1112E+01  0.1112E+01  0.4074E+02  0.4074E+02
     24.424  0.9030E+00  0.9030E+00  0.4098E+02  0.4098E+02
     24.694  0.9032E+00  0.9032E+00  0.4123E+02  0.4123E+02
     24.964  0.1019E+01  0.1019E+01  0.4150E+02  0.4150E+02
     25.234  0.1077E+01  0.1077E+01  0.4179E+02  0.4179E+02
     25.505  0.8582E+00  0.8582E+00  0.4202E+02  0.4202E+02
     25.775  0.1305E+01  0.1305E+01  0.4238E+02  0.4238E+02
     26.045  0.5837E+00  0.5837E+00  0.4253E+02  0.4253E+02
     26.315  0.1105E+01  0.1105E+01  0.4283E+02  0.4283E+02
     26.585  0.9326E+00  0.9326E+00  0.4308E+02  0.4308E+02
     26.855  0.6542E+00  0.6542E+00  0.4326E+02  0.4326E+02
     27.125  0.1117E+01  0.1117E+01  0.4356E+02  0.4356E+02
     27.395  0.9636E+00  0.9636E+00  0.4382E+02  0.4382E+02
     27.665  0.7787E+00  0.7787E+00  0.4403E+02  0.4403E+02
     27.935  0.1025E+01  0.1025E+01  0.4431E+02  0.4431E+02
     28.206  0.7078E+00  0.7078E+00  0.4450E+02  0.4450E+02
     28.476  0.8895E+00  0.8895E+00  0.4474E+02  0.4474E+02
     28.746  0.8375E+00  0.8375E+00  0.4497E+02  0.4497E+02
     29.016  0.9532E+00  0.9532E+00  0.4523E+02  0.4523E+02
     29.286  0.1041E+01  0.1041E+01  0.4551E+02  0.4551E+02
     29.556  0.8835E+00  0.8835E+00  0.4575E+02  0.4575E+02
     29.826  0.5540E+00  0.5540E+00  0.4590E+02  0.4590E+02
     30.096  0.5727E+00  0.5727E+00  0.4605E+02  0.4605E+02
     30.366  0.9926E+00  0.9926E+00  0.4632E+02  0.4632E+02
     30.636  0.4903E+00  0.4903E+00  0.4645E+02  0.4645E+02
     30.907  0.9508E+00  0.9508E+00  0.4671E+02  0.4671E+02
     31.177  0.4235E+00  0.4235E+00  0.4682E+02  0.4682E+02
     31.447  0.1055E+01  0.1055E+01  0.4711E+02  0.4711E+02
     31.717  0.9286E+00  0.9286E+00  0.4736E+02  0.4736E+02
     31.987  0.9142E+00  0.9142E+00  0.4760E+02  0.4760E+02
     32.257  0.3455E+00  0.3455E+00  0.4770E+02  0.4770E+02
     32.527  0.6510E+00  0.6510E+00  0.4787E+02  0.4787E+02
     32.797  0.2737E+00  0.2737E+00  0.4795E+02  0.4795E+02
     33.067  0.8072E-01  0.8072E-01  0.4797E+02  0.4797E+02
     33.337  0.4698E-01  0.4698E-01  0.4798E+02  0.4798E+02
     33.608  0.3759E-01  0.3759E-01  0.4799E+02  0.4799E+02
     33.878  0.1933E-01  0.1933E-01  0.4800E+02  0.4800E+02
     34.148  0.4283E-02  0.4283E-02  0.4800E+02  0.4800E+02
     34.418  0.4273E-02  0.4273E-02  0.4800E+02  0.4800E+02
     34.688  0.0000E+00  0.0000E+00  0.4800E+02  0.4800E+02
     34.958  0.0000E+00  0.0000E+00  0.4800E+02  0.4800E+02
     35.228  0.0000E+00  0.0000E+00  0.4800E+02  0.4800E+02
     35.498  0.0000E+00  0.0000E+00  0.4800E+02  0.4800E+02
     35.768  0.0000E+00  0.0000E+00  0.4800E+02  0.4800E+02
     36.038  0.0000E+00  0.0000E+00  0.4800E+02  0.4800E+02
     36.309  0.0000E+00  0.0000E+00  0.4800E+02  0.4800E+02
     36.579  0.0000E+00  0.0000E+00  0.4800E+02  0.4800E+02
     36.849  0.0000E+00  0.0000E+00  0.4800E+02  0.4800E+02
     37.119  0.0000E+00  0.0000E+00  0.4800E+02  0.4800E+02
     37.389  0.0000E+00  0.0000E+00  0.4800E+02  0.4800E+02
     37.659  0.0000E+00  0.0000E+00  0.4800E+02  0.4800E+02
     37.929  0.0000E+00  0.0000E+00  0.4800E+02  0.4800E+02
