    4    4    1    2
  0.1162051E+02  0.3595520E-09  0.3595520E-09  0.3595520E-09  0.5000000E-15
  1.000000000000000E-004
  CAR 
 Mn                                      
     52    196     48
 
  0.0000000E+00  0.0000000E+00  0.0000000E+00  0.5787037E-03
      1        -39.417468      -39.417468   1.000000   1.000000
      2        -39.359301      -39.359301   1.000000   1.000000
      3        -39.359301      -39.359301   1.000000   1.000000
      4        -39.319709      -39.319709   1.000000   1.000000
      5        -39.079985      -39.079985   1.000000   1.000000
      6        -39.079985      -39.079985   1.000000   1.000000
      7        -37.320346      -37.320346   1.000000   1.000000
      8        -37.320346      -37.320346   1.000000   1.000000
      9        -37.247251      -37.247251   1.000000   1.000000
     10        -37.216046      -37.216046   1.000000   1.000000
     11        -37.040673      -37.040673   1.000000   1.000000
     12        -37.040673      -37.040673   1.000000   1.000000
     13          1.486093        1.486093   1.000000   1.000000
     14          4.923107        4.923107   1.000000   1.000000
     15          5.155364        5.155364   1.000000   1.000000
     16          5.534729        5.534729   1.000000   1.000000
     17          5.936943        5.936943   1.000000   1.000000
     18          5.936962        5.936962   1.000000   1.000000
     19          5.936962        5.936962   1.000000   1.000000
     20          8.317693        8.317693   1.000000   1.000000
     21          8.317693        8.317693   1.000000   1.000000
     22          8.795114        8.795114   1.000000   1.000000
     23          9.472570        9.472570   0.764914   0.764914
     24         10.209527       10.209527   0.000000   0.000000
     25         10.695650       10.695650   0.000000   0.000000
     26         10.737381       10.737381   0.000000   0.000000
     27         11.583174       11.583174   0.000000   0.000000
     28         11.583174       11.583174   0.000000   0.000000
     29         11.707118       11.707118   0.000000   0.000000
     30         11.744153       11.744153   0.000000   0.000000
     31         11.744153       11.744153   0.000000   0.000000
     32         11.984933       11.984933   0.000000   0.000000
     33         12.311766       12.311766   0.000000   0.000000
     34         12.678144       12.678144   0.000000   0.000000
     35         12.692504       12.692504   0.000000   0.000000
     36         12.692504       12.692504   0.000000   0.000000
     37         20.902778       20.902778   0.000000   0.000000
     38         20.942319       20.942319   0.000000   0.000000
     39         21.017043       21.017043   0.000000   0.000000
     40         24.149376       24.149376   0.000000   0.000000
     41         24.511679       24.511679   0.000000   0.000000
     42         24.511679       24.511679   0.000000   0.000000
     43         24.538413       24.538413   0.000000   0.000000
     44         24.538413       24.538413   0.000000   0.000000
     45         24.854575       24.854575   0.000000   0.000000
     46         30.256666       30.256666   0.000000   0.000000
     47         30.256666       30.256666   0.000000   0.000000
     48         30.257803       30.257803   0.000000   0.000000
 
  0.8333333E-01  0.2842428E-32  0.0000000E+00  0.2314815E-02
      1        -39.415223      -39.415223   1.000000   1.000000
      2        -39.354393      -39.354393   1.000000   1.000000
      3        -39.354258      -39.354258   1.000000   1.000000
      4        -39.320517      -39.320517   1.000000   1.000000
      5        -39.084604      -39.084604   1.000000   1.000000
      6        -39.084431      -39.084431   1.000000   1.000000
      7        -37.316527      -37.316527   1.000000   1.000000
      8        -37.315422      -37.315422   1.000000   1.000000
      9        -37.247302      -37.247302   1.000000   1.000000
     10        -37.216902      -37.216902   1.000000   1.000000
     11        -37.046524      -37.046524   1.000000   1.000000
     12        -37.045368      -37.045368   1.000000   1.000000
     13          1.578521        1.578521   1.000000   1.000000
     14          4.967685        4.967685   1.000000   1.000000
     15          5.212272        5.212272   1.000000   1.000000
     16          5.564881        5.564881   1.000000   1.000000
     17          5.972894        5.972894   1.000000   1.000000
     18          5.977544        5.977544   1.000000   1.000000
     19          5.978985        5.978985   1.000000   1.000000
     20          8.272014        8.272014   1.000000   1.000000
     21          8.331674        8.331674   1.000000   1.000000
     22          8.830308        8.830308   1.000000   1.000000
     23          9.434087        9.434087   0.964903   0.964903
     24         10.213394       10.213394   0.000000   0.000000
     25         10.450194       10.450194   0.000000   0.000000
     26         10.696838       10.696838   0.000000   0.000000
     27         11.229380       11.229380   0.000000   0.000000
     28         11.511955       11.511955   0.000000   0.000000
     29         11.584697       11.584697   0.000000   0.000000
     30         11.637342       11.637342   0.000000   0.000000
     31         11.738783       11.738783   0.000000   0.000000
     32         11.912195       11.912195   0.000000   0.000000
     33         11.927161       11.927161   0.000000   0.000000
     34         12.379250       12.379250   0.000000   0.000000
     35         13.275542       13.275542   0.000000   0.000000
     36         13.326410       13.326410   0.000000   0.000000
     37         20.938898       20.938898   0.000000   0.000000
     38         20.951066       20.951066   0.000000   0.000000
     39         21.427291       21.427291   0.000000   0.000000
     40         24.000474       24.000474   0.000000   0.000000
     41         24.171366       24.171366   0.000000   0.000000
     42         24.305283       24.305283   0.000000   0.000000
     43         24.330769       24.330769   0.000000   0.000000
     44         24.702138       24.702138   0.000000   0.000000
     45         24.825810       24.825810   0.000000   0.000000
     46         30.248095       30.248095   0.000000   0.000000
     47         30.254482       30.254482   0.000000   0.000000
     48         30.661314       30.661314   0.000000   0.000000
 
  0.0000000E+00  0.8333333E-01  0.0000000E+00  0.1157407E-02
      1        -39.415694      -39.415694   1.000000   1.000000
      2        -39.358236      -39.358236   1.000000   1.000000
      3        -39.358236      -39.358236   1.000000   1.000000
      4        -39.319735      -39.319735   1.000000   1.000000
      5        -39.079471      -39.079471   1.000000   1.000000
      6        -39.079471      -39.079471   1.000000   1.000000
      7        -37.321164      -37.321164   1.000000   1.000000
      8        -37.321164      -37.321164   1.000000   1.000000
      9        -37.250349      -37.250349   1.000000   1.000000
     10        -37.216097      -37.216097   1.000000   1.000000
     11        -37.040917      -37.040917   1.000000   1.000000
     12        -37.040917      -37.040917   1.000000   1.000000
     13          1.578092        1.578092   1.000000   1.000000
     14          4.969998        4.969998   1.000000   1.000000
     15          5.176050        5.176050   1.000000   1.000000
     16          5.606428        5.606428   1.000000   1.000000
     17          5.969171        5.969171   1.000000   1.000000
     18          5.975768        5.975768   1.000000   1.000000
     19          5.975768        5.975768   1.000000   1.000000
     20          8.344623        8.344623   1.000000   1.000000
     21          8.344623        8.344623   1.000000   1.000000
     22          8.748977        8.748977   1.000000   1.000000
     23          9.478760        9.478760   0.707846   0.707846
     24         10.145990       10.145990   0.000000   0.000000
     25         10.657062       10.657062   0.000000   0.000000
     26         10.695801       10.695801   0.000000   0.000000
     27         11.075774       11.075774   0.000000   0.000000
     28         11.075774       11.075774   0.000000   0.000000
     29         11.663167       11.663167   0.000000   0.000000
     30         11.679649       11.679649   0.000000   0.000000
     31         11.679649       11.679649   0.000000   0.000000
     32         11.977085       11.977085   0.000000   0.000000
     33         12.312020       12.312020   0.000000   0.000000
     34         12.345626       12.345626   0.000000   0.000000
     35         13.265212       13.265212   0.000000   0.000000
     36         13.265212       13.265212   0.000000   0.000000
     37         20.888898       20.888898   0.000000   0.000000
     38         21.019619       21.019619   0.000000   0.000000
     39         21.404303       21.404303   0.000000   0.000000
     40         23.946813       23.946813   0.000000   0.000000
     41         24.196544       24.196544   0.000000   0.000000
     42         24.196544       24.196544   0.000000   0.000000
     43         24.650777       24.650777   0.000000   0.000000
     44         24.675048       24.675048   0.000000   0.000000
     45         24.675048       24.675048   0.000000   0.000000
     46         30.187723       30.187723   0.000000   0.000000
     47         30.316958       30.316958   0.000000   0.000000
     48         30.661722       30.661722   0.000000   0.000000
 
  0.1666667E+00  0.4257165E-33  0.0000000E+00  0.2314815E-02
      1        -39.408801      -39.408801   1.000000   1.000000
      2        -39.340442      -39.340442   1.000000   1.000000
      3        -39.339774      -39.339774   1.000000   1.000000
      4        -39.323850      -39.323850   1.000000   1.000000
      5        -39.098562      -39.098562   1.000000   1.000000
      6        -39.097930      -39.097930   1.000000   1.000000
      7        -37.305654      -37.305654   1.000000   1.000000
      8        -37.301618      -37.301618   1.000000   1.000000
      9        -37.247422      -37.247422   1.000000   1.000000
     10        -37.220232      -37.220232   1.000000   1.000000
     11        -37.063857      -37.063857   1.000000   1.000000
     12        -37.059520      -37.059520   1.000000   1.000000
     13          1.851869        1.851869   1.000000   1.000000
     14          5.083027        5.083027   1.000000   1.000000
     15          5.375244        5.375244   1.000000   1.000000
     16          5.650259        5.650259   1.000000   1.000000
     17          6.078755        6.078755   1.000000   1.000000
     18          6.098713        6.098713   1.000000   1.000000
     19          6.104849        6.104849   1.000000   1.000000
     20          8.139113        8.139113   1.000000   1.000000
     21          8.358149        8.358149   1.000000   1.000000
     22          8.935294        8.935294   1.000000   1.000000
     23          9.313145        9.313145   1.000000   1.000000
     24          9.876230        9.876230   0.000000   0.000000
     25         10.234984       10.234984   0.000000   0.000000
     26         10.526464       10.526464   0.000000   0.000000
     27         10.527790       10.527790   0.000000   0.000000
     28         11.311693       11.311693   0.000000   0.000000
     29         11.358314       11.358314   0.000000   0.000000
     30         11.525925       11.525925   0.000000   0.000000
     31         11.589097       11.589097   0.000000   0.000000
     32         11.723932       11.723932   0.000000   0.000000
     33         11.759864       11.759864   0.000000   0.000000
     34         11.770935       11.770935   0.000000   0.000000
     35         14.240380       14.240380   0.000000   0.000000
     36         14.265525       14.265525   0.000000   0.000000
     37         20.930285       20.930285   0.000000   0.000000
     38         20.947332       20.947332   0.000000   0.000000
     39         22.603349       22.603349   0.000000   0.000000
     40         23.289632       23.289632   0.000000   0.000000
     41         23.336276       23.336276   0.000000   0.000000
     42         23.804193       23.804193   0.000000   0.000000
     43         23.828033       23.828033   0.000000   0.000000
     44         25.176725       25.176725   0.000000   0.000000
     45         25.178441       25.178441   0.000000   0.000000
     46         30.235425       30.235425   0.000000   0.000000
     47         30.247303       30.247303   0.000000   0.000000
     48         31.687601       31.687602   0.000000   0.000000
 
  0.0000000E+00  0.1666667E+00  0.0000000E+00  0.1157407E-02
      1        -39.410720      -39.410720   1.000000   1.000000
      2        -39.355692      -39.355692   1.000000   1.000000
      3        -39.355692      -39.355692   1.000000   1.000000
      4        -39.320606      -39.320606   1.000000   1.000000
      5        -39.078480      -39.078480   1.000000   1.000000
      6        -39.078480      -39.078480   1.000000   1.000000
      7        -37.323974      -37.323974   1.000000   1.000000
      8        -37.323974      -37.323974   1.000000   1.000000
      9        -37.258816      -37.258816   1.000000   1.000000
     10        -37.217137      -37.217137   1.000000   1.000000
     11        -37.041996      -37.041996   1.000000   1.000000
     12        -37.041996      -37.041996   1.000000   1.000000
     13          1.849990        1.849990   1.000000   1.000000
     14          5.102139        5.102139   1.000000   1.000000
     15          5.224100        5.224100   1.000000   1.000000
     16          5.815972        5.815972   1.000000   1.000000
     17          6.062529        6.062529   1.000000   1.000000
     18          6.090668        6.090668   1.000000   1.000000
     19          6.090668        6.090668   1.000000   1.000000
     20          8.422750        8.422750   1.000000   1.000000
     21          8.422750        8.422750   1.000000   1.000000
     22          8.617521        8.617521   1.000000   1.000000
     23          9.495713        9.495713   0.526946   0.526946
     24          9.938813        9.938813   0.000000   0.000000
     25         10.308561       10.308561   0.000000   0.000000
     26         10.308561       10.308561   0.000000   0.000000
     27         10.421624       10.421624   0.000000   0.000000
     28         10.696177       10.696177   0.000000   0.000000
     29         11.501244       11.501244   0.000000   0.000000
     30         11.501244       11.501244   0.000000   0.000000
     31         11.536631       11.536631   0.000000   0.000000
     32         11.576337       11.576337   0.000000   0.000000
     33         11.954789       11.954789   0.000000   0.000000
     34         12.312472       12.312472   0.000000   0.000000
     35         14.228739       14.228739   0.000000   0.000000
     36         14.228739       14.228739   0.000000   0.000000
     37         20.848245       20.848245   0.000000   0.000000
     38         21.030209       21.030209   0.000000   0.000000
     39         22.586652       22.586652   0.000000   0.000000
     40         23.358688       23.358688   0.000000   0.000000
     41         23.358688       23.358688   0.000000   0.000000
     42         23.450180       23.450180   0.000000   0.000000
     43         24.160079       24.160079   0.000000   0.000000
     44         25.150355       25.150355   0.000000   0.000000
     45         25.150355       25.150355   0.000000   0.000000
     46         30.120636       30.120636   0.000000   0.000000
     47         30.366681       30.366681   0.000000   0.000000
     48         31.690955       31.690955   0.000000   0.000000
 
  0.2500000E+00  0.1186476E-32  0.0000000E+00  0.2314815E-02
      1        -39.399014      -39.399014   1.000000   1.000000
      2        -39.329443      -39.329443   1.000000   1.000000
      3        -39.318221      -39.318221   1.000000   1.000000
      4        -39.317049      -39.317049   1.000000   1.000000
      5        -39.120826      -39.120826   1.000000   1.000000
      6        -39.119750      -39.119750   1.000000   1.000000
      7        -37.287922      -37.287922   1.000000   1.000000
      8        -37.279587      -37.279587   1.000000   1.000000
      9        -37.247368      -37.247368   1.000000   1.000000
     10        -37.225054      -37.225054   1.000000   1.000000
     11        -37.090876      -37.090876   1.000000   1.000000
     12        -37.082080      -37.082080   1.000000   1.000000
     13          2.293364        2.293364   1.000000   1.000000
     14          5.196526        5.196526   1.000000   1.000000
     15          5.620253        5.620253   1.000000   1.000000
     16          5.785451        5.785451   1.000000   1.000000
     17          6.250010        6.250010   1.000000   1.000000
     18          6.299104        6.299104   1.000000   1.000000
     19          6.314070        6.314070   1.000000   1.000000
     20          7.930829        7.930829   1.000000   1.000000
     21          8.333817        8.333817   1.000000   1.000000
     22          9.108027        9.108027   1.000000   1.000000
     23          9.110288        9.110288   1.000000   1.000000
     24          9.210520        9.210520   1.000000   1.000000
     25          9.972191        9.972191   0.000000   0.000000
     26         10.008985       10.008985   0.000000   0.000000
     27         10.289678       10.289678   0.000000   0.000000
     28         10.928114       10.928114   0.000000   0.000000
     29         11.017328       11.017328   0.000000   0.000000
     30         11.154034       11.154034   0.000000   0.000000
     31         11.415865       11.415865   0.000000   0.000000
     32         11.505750       11.505750   0.000000   0.000000
     33         11.596453       11.596453   0.000000   0.000000
     34         11.703000       11.703000   0.000000   0.000000
     35         15.294836       15.294836   0.000000   0.000000
     36         15.303723       15.303723   0.000000   0.000000
     37         20.920963       20.920963   0.000000   0.000000
     38         20.938149       20.938149   0.000000   0.000000
     39         22.254431       22.254431   0.000000   0.000000
     40         22.269915       22.269915   0.000000   0.000000
     41         23.226189       23.226189   0.000000   0.000000
     42         23.233604       23.233604   0.000000   0.000000
     43         24.177299       24.177299   0.000000   0.000000
     44         25.896249       25.896249   0.000000   0.000000
     45         25.928982       25.928982   0.000000   0.000000
     46         30.220515       30.220515   0.000000   0.000000
     47         30.237426       30.237426   0.000000   0.000000
     48         32.705316       32.705316   0.000000   0.000000
 
  0.0000000E+00  0.2500000E+00  0.0000000E+00  0.1157407E-02
      1        -39.404026      -39.404026   1.000000   1.000000
      2        -39.352297      -39.352297   1.000000   1.000000
      3        -39.352297      -39.352297   1.000000   1.000000
      4        -39.322086      -39.322086   1.000000   1.000000
      5        -39.077067      -39.077067   1.000000   1.000000
      6        -39.077067      -39.077067   1.000000   1.000000
      7        -37.327930      -37.327930   1.000000   1.000000
      8        -37.327930      -37.327930   1.000000   1.000000
      9        -37.270613      -37.270613   1.000000   1.000000
     10        -37.218871      -37.218871   1.000000   1.000000
     11        -37.043425      -37.043425   1.000000   1.000000
     12        -37.043425      -37.043425   1.000000   1.000000
     13          2.288346        2.288346   1.000000   1.000000
     14          5.250725        5.250725   1.000000   1.000000
     15          5.294076        5.294076   1.000000   1.000000
     16          6.145713        6.145713   1.000000   1.000000
     17          6.207129        6.207129   1.000000   1.000000
     18          6.276466        6.276466   1.000000   1.000000
     19          6.276466        6.276466   1.000000   1.000000
     20          8.421590        8.421590   1.000000   1.000000
     21          8.542575        8.542575   1.000000   1.000000
     22          8.542575        8.542575   1.000000   1.000000
     23          9.519326        9.519326   0.274166   0.274166
     24          9.525640        9.525640   0.218034   0.218034
     25          9.579574        9.579574   0.010602   0.010602
     26          9.579574        9.579574   0.010602   0.010602
     27         10.052822       10.052822   0.000000   0.000000
     28         10.696647       10.696647   0.000000   0.000000
     29         10.801624       10.801624   0.000000   0.000000
     30         11.249852       11.249852   0.000000   0.000000
     31         11.249852       11.249852   0.000000   0.000000
     32         11.349101       11.349101   0.000000   0.000000
     33         11.923821       11.923821   0.000000   0.000000
     34         12.313026       12.313026   0.000000   0.000000
     35         15.287804       15.287804   0.000000   0.000000
     36         15.287804       15.287804   0.000000   0.000000
     37         20.785302       20.785302   0.000000   0.000000
     38         21.056973       21.056973   0.000000   0.000000
     39         22.289855       22.289855   0.000000   0.000000
     40         22.289855       22.289855   0.000000   0.000000
     41         22.863400       22.863400   0.000000   0.000000
     42         23.605560       23.605560   0.000000   0.000000
     43         24.148311       24.148311   0.000000   0.000000
     44         25.899338       25.899338   0.000000   0.000000
     45         25.899338       25.899338   0.000000   0.000000
     46         30.062137       30.062137   0.000000   0.000000
     47         30.403446       30.403446   0.000000   0.000000
     48         32.681253       32.681253   0.000000   0.000000
 
  0.3333333E+00 -0.5240358E-34  0.0000000E+00  0.2314815E-02
      1        -39.386665      -39.386665   1.000000   1.000000
      2        -39.337458      -39.337458   1.000000   1.000000
      3        -39.289239      -39.289239   1.000000   1.000000
      4        -39.287843      -39.287843   1.000000   1.000000
      5        -39.149677      -39.149677   1.000000   1.000000
      6        -39.148071      -39.148071   1.000000   1.000000
      7        -37.263706      -37.263706   1.000000   1.000000
      8        -37.250906      -37.250906   1.000000   1.000000
      9        -37.246395      -37.246395   1.000000   1.000000
     10        -37.230689      -37.230689   1.000000   1.000000
     11        -37.124243      -37.124243   1.000000   1.000000
     12        -37.111228      -37.111228   1.000000   1.000000
     13          2.878249        2.878249   1.000000   1.000000
     14          5.159575        5.159575   1.000000   1.000000
     15          5.901813        5.901813   1.000000   1.000000
     16          5.976344        5.976344   1.000000   1.000000
     17          6.477839        6.477839   1.000000   1.000000
     18          6.576407        6.576407   1.000000   1.000000
     19          6.606422        6.606422   1.000000   1.000000
     20          7.665379        7.665379   1.000000   1.000000
     21          8.139787        8.139787   1.000000   1.000000
     22          8.560172        8.560172   1.000000   1.000000
     23          8.855904        8.855904   1.000000   1.000000
     24          9.260606        9.260606   1.000000   1.000000
     25          9.345383        9.345383   0.999992   0.999992
     26          9.713393        9.713393   0.000000   0.000000
     27         10.381685       10.381685   0.000000   0.000000
     28         10.671909       10.671909   0.000000   0.000000
     29         10.725272       10.725272   0.000000   0.000000
     30         10.762622       10.762622   0.000000   0.000000
     31         11.149778       11.149778   0.000000   0.000000
     32         11.208626       11.208626   0.000000   0.000000
     33         11.606950       11.606950   0.000000   0.000000
     34         11.679928       11.679928   0.000000   0.000000
     35         16.404344       16.404344   0.000000   0.000000
     36         16.405194       16.405194   0.000000   0.000000
     37         20.916280       20.916280   0.000000   0.000000
     38         20.931122       20.931122   0.000000   0.000000
     39         21.106731       21.106731   0.000000   0.000000
     40         21.111058       21.111058   0.000000   0.000000
     41         22.731782       22.731782   0.000000   0.000000
     42         22.737229       22.737229   0.000000   0.000000
     43         25.868240       25.868240   0.000000   0.000000
     44         26.861408       26.861408   0.000000   0.000000
     45         26.904277       26.904277   0.000000   0.000000
     46         30.208799       30.208799   0.000000   0.000000
     47         30.224900       30.224900   0.000000   0.000000
     48         31.514525       31.514525   0.000000   0.000000
 
  0.0000000E+00  0.3333333E+00  0.0000000E+00  0.1157407E-02
      1        -39.397317      -39.397317   1.000000   1.000000
      2        -39.348701      -39.348701   1.000000   1.000000
      3        -39.348701      -39.348701   1.000000   1.000000
      4        -39.323565      -39.323565   1.000000   1.000000
      5        -39.075740      -39.075740   1.000000   1.000000
      6        -39.075740      -39.075740   1.000000   1.000000
      7        -37.331689      -37.331689   1.000000   1.000000
      8        -37.331689      -37.331689   1.000000   1.000000
      9        -37.282325      -37.282325   1.000000   1.000000
     10        -37.220587      -37.220587   1.000000   1.000000
     11        -37.044930      -37.044930   1.000000   1.000000
     12        -37.044930      -37.044930   1.000000   1.000000
     13          2.866224        2.866224   1.000000   1.000000
     14          5.164899        5.164899   1.000000   1.000000
     15          5.502007        5.502007   1.000000   1.000000
     16          6.380801        6.380801   1.000000   1.000000
     17          6.519310        6.519310   1.000000   1.000000
     18          6.519310        6.519310   1.000000   1.000000
     19          6.558191        6.558191   1.000000   1.000000
     20          8.196794        8.196794   1.000000   1.000000
     21          8.684136        8.684136   1.000000   1.000000
     22          8.684136        8.684136   1.000000   1.000000
     23          8.928220        8.928220   1.000000   1.000000
     24          8.939591        8.939591   1.000000   1.000000
     25          8.939591        8.939591   1.000000   1.000000
     26          9.543592        9.543592   0.099112   0.099112
     27          9.597352        9.597352   0.002499   0.002499
     28         10.307228       10.307228   0.000000   0.000000
     29         10.697192       10.697192   0.000000   0.000000
     30         10.982419       10.982419   0.000000   0.000000
     31         10.982419       10.982419   0.000000   0.000000
     32         11.141913       11.141913   0.000000   0.000000
     33         11.892270       11.892270   0.000000   0.000000
     34         12.313691       12.313691   0.000000   0.000000
     35         16.402408       16.402408   0.000000   0.000000
     36         16.402408       16.402408   0.000000   0.000000
     37         20.711914       20.711914   0.000000   0.000000
     38         21.110915       21.110915   0.000000   0.000000
     39         21.128719       21.128719   0.000000   0.000000
     40         21.128719       21.128719   0.000000   0.000000
     41         22.333447       22.333447   0.000000   0.000000
     42         23.148525       23.148525   0.000000   0.000000
     43         25.839377       25.839377   0.000000   0.000000
     44         26.872128       26.872128   0.000000   0.000000
     45         26.872128       26.872128   0.000000   0.000000
     46         30.016894       30.016894   0.000000   0.000000
     47         30.427139       30.427139   0.000000   0.000000
     48         31.491971       31.491971   0.000000   0.000000
 
  0.4166667E+00  0.3611832E-32  0.0000000E+00  0.2314815E-02
      1        -39.373318      -39.373318   1.000000   1.000000
      2        -39.347882      -39.347882   1.000000   1.000000
      3        -39.255634      -39.255634   1.000000   1.000000
      4        -39.253943      -39.253943   1.000000   1.000000
      5        -39.183459      -39.183459   1.000000   1.000000
      6        -39.181486      -39.181486   1.000000   1.000000
      7        -37.244386      -37.244386   1.000000   1.000000
      8        -37.236351      -37.236351   1.000000   1.000000
      9        -37.233578      -37.233578   1.000000   1.000000
     10        -37.217474      -37.217474   1.000000   1.000000
     11        -37.161322      -37.161322   1.000000   1.000000
     12        -37.145216      -37.145216   1.000000   1.000000
     13          3.561371        3.561371   1.000000   1.000000
     14          4.840693        4.840693   1.000000   1.000000
     15          6.145096        6.145096   1.000000   1.000000
     16          6.172534        6.172534   1.000000   1.000000
     17          6.750618        6.750618   1.000000   1.000000
     18          6.924286        6.924286   1.000000   1.000000
     19          6.980082        6.980082   1.000000   1.000000
     20          7.364898        7.364898   1.000000   1.000000
     21          7.763283        7.763283   1.000000   1.000000
     22          7.962769        7.962769   1.000000   1.000000
     23          8.621111        8.621111   1.000000   1.000000