Mn                                      
           1
     3.595520    0.000000    0.000000
     0.000000    3.595520    0.000000
     0.000000    0.000000    3.595520
   Mn
     4
Direct configuration=     1
   0.00000000  0.00000000  0.00000000
   0.00000000  0.50000000  0.50000000
   0.50000000  0.00000000  0.50000000
   0.50000000  0.50000000  0.00000000
