 DBCSR| CPU Multiplication driver                                           BLAS (U)
 DBCSR| Multrec recursion limit                                              512 (U)
 DBCSR| Multiplication stack size                                           1000 (D)
 DBCSR| Maximum elements for images                                    UNLIMITED (U)
 DBCSR| Multiplicative factor virtual images                                   1 (U)
 DBCSR| Use multiplication densification                                       T (D)
 DBCSR| Multiplication size stacks                                             3 (U)
 DBCSR| Use memory pool for CPU allocation                                     F (U)
 DBCSR| Number of 3D layers                                               SINGLE (U)
 DBCSR| Use MPI memory allocation                                              F (U)
 DBCSR| Use RMA algorithm                                                      F (U)
 DBCSR| Use Communication thread                                               T (U)
 DBCSR| Communication thread load                                             45 (D)
 DBCSR| MPI: My process id                                                     0
 DBCSR| MPI: Number of processes                                              16
 DBCSR| OMP: Current number of threads                                        12
 DBCSR| OMP: Max number of threads                                            12
 DBCSR| Split modifier for TAS multiplication algorithm                  1.0E+00 (U)


  **** **** ******  **  PROGRAM STARTED AT               2025-08-05 16:37:53.880
 ***** ** ***  *** **   PROGRAM STARTED ON                          i01r08c04s11
 **    ****   ******    PROGRAM STARTED BY                               di38fab
 ***** **    ** ** **   PROGRAM PROCESS ID                               2255652
  **** **  *******  **  PROGRAM STARTED IN /hppfs/scratch/04/di38fab/09_GTH/Delt
                                           a_Set/In/aug-TZVP-MOLOPT-GTH-tier-2/8
                                           x8x8

 CP2K| version string:                 CP2K version 2025.1 (Development Version)
 CP2K| source code revision number:                                  git:3130539
 CP2K| cp2kflags: omp libint fftw3 libxc parallel scalapack max_contr=4         
 CP2K| is freely available from                            https://www.cp2k.org/
 CP2K| Program compiled at                         Tue Jun  3 16:14:32 CEST 2025
 CP2K| Program compiled on                                               login01
 CP2K| Program compiled for                                        Supermuc-foss
 CP2K| Data directory path                  /hppfs/work/pn36zo/di38fab/cp2k/data
 CP2K| Input file name                                                    GW.inp

 GLOBAL| Force Environment number                                              1
 GLOBAL| Basis set file name            /hppfs/scratch/04/di38fab/09_GTH/BASIS_A
 GLOBAL| Potential file name            /hppfs/work/pn36zo/di38fab/cp2k/data/GTH
 GLOBAL| MM Potential file name                                     MM_POTENTIAL
 GLOBAL| Coordinate file name                                             In.cif
 GLOBAL| Method name                                                        CP2K
 GLOBAL| Project name                                                       WSe2
 GLOBAL| Run type                                                         ENERGY
 GLOBAL| FFT library                                                       FFTW3
 GLOBAL| Diagonalization library                                       ScaLAPACK
 GLOBAL| Cholesky decomposition library                                ScaLAPACK
 GLOBAL| DGEMM library                                                      BLAS
 GLOBAL| Orthonormality check for eigenvectors                          DISABLED
 GLOBAL| Matrix multiplication library                                 ScaLAPACK
 GLOBAL| All-to-all communication in single precision                          F
 GLOBAL| FFTs using library dependent lengths                                  F
 GLOBAL| Grid backend                                                       AUTO
 GLOBAL| Global print level                                               MEDIUM
 GLOBAL| MPI I/O enabled                                                       T
 GLOBAL| Total number of message passing processes                            16
 GLOBAL| Number of threads for this process                                   12
 GLOBAL| This output is from process                                           0
 GLOBAL| OpenMP stack size per thread (OMP_STACKSIZE)                    default
 GLOBAL| CPU model name             Intel(R) Xeon(R) Platinum 8174 CPU @ 3.10GHz

 MEMORY| system memory details [Kb]
 MEMORY|                        rank 0           min           max       average
 MEMORY| MemTotal             98436664      98436664      98436708      98436675
 MEMORY| MemFree              84633580      84633580      84890044      84808377
 MEMORY| Buffers                     0             0             0             0
 MEMORY| Cached                2385956       2359888       2385956       2371638
 MEMORY| Slab                  1284036       1264880       1284036       1274447
 MEMORY| SReclaimable           281756        273760        286972        280554
 MEMORY| MemLikelyFree        87301292      87301292      87529660      87460569


 *** Fundamental physical constants (SI units) ***

 *** Literature: B. J. Mohr and B. N. Taylor,
 ***             CODATA recommended values of the fundamental physical
 ***             constants: 2006, Web Version 5.1
 ***             http://physics.nist.gov/constants

 Speed of light in vacuum [m/s]                             2.99792458000000E+08
 Magnetic constant or permeability of vacuum [N/A**2]       1.25663706143592E-06
 Electric constant or permittivity of vacuum [F/m]          8.85418781762039E-12
 Planck constant (h) [J*s]                                  6.62606896000000E-34
 Planck constant (h-bar) [J*s]                              1.05457162825177E-34
 Elementary charge [C]                                      1.60217648700000E-19
 Electron mass [kg]                                         9.10938215000000E-31
 Electron g factor [ ]                                     -2.00231930436220E+00
 Proton mass [kg]                                           1.67262163700000E-27
 Fine-structure constant                                    7.29735253760000E-03
 Rydberg constant [1/m]                                     1.09737315685270E+07
 Avogadro constant [1/mol]                                  6.02214179000000E+23
 Boltzmann constant [J/K]                                   1.38065040000000E-23
 Atomic mass unit [kg]                                      1.66053878200000E-27
 Bohr radius [m]                                            5.29177208590000E-11

 *** Conversion factors ***

 [u] -> [a.u.]                                              1.82288848426455E+03
 [Angstrom] -> [Bohr] = [a.u.]                              1.88972613288564E+00
 [a.u.] = [Bohr] -> [Angstrom]                              5.29177208590000E-01
 [a.u.] -> [s]                                              2.41888432650478E-17
 [a.u.] -> [fs]                                             2.41888432650478E-02
 [a.u.] -> [J]                                              4.35974393937059E-18
 [a.u.] -> [N]                                              8.23872205491840E-08
 [a.u.] -> [K]                                              3.15774647902944E+05
 [a.u.] -> [kJ/mol]                                         2.62549961709828E+03
 [a.u.] -> [kcal/mol]                                       6.27509468713739E+02
 [a.u.] -> [Pa]                                             2.94210107994716E+13
 [a.u.] -> [bar]                                            2.94210107994716E+08
 [a.u.] -> [atm]                                            2.90362800883016E+08
 [a.u.] -> [eV]                                             2.72113838565563E+01
 [a.u.] -> [Hz]                                             6.57968392072181E+15
 [a.u.] -> [1/cm] (wave numbers)                            2.19474631370540E+05
 [a.u./Bohr**2] -> [1/cm]                                   5.14048714338585E+03
 

 CELL_TOP| Volume [angstrom^3]:                                        55.078165
 CELL_TOP| Vector a [angstrom     3.298     0.000     0.000   |a| =     3.298410
 CELL_TOP| Vector b [angstrom     0.000     3.298     0.000   |b| =     3.298410
 CELL_TOP| Vector c [angstrom     0.000     0.000     5.063   |c| =     5.062560
 CELL_TOP| Angle (b,c), alpha [degree]:                                90.000000
 CELL_TOP| Angle (a,c), beta  [degree]:                                90.000000
 CELL_TOP| Angle (a,b), gamma [degree]:                                90.000000
 CELL_TOP| Numerically orthorhombic:                                         YES
 CELL_TOP| Periodicity                                                       XYZ

 CELL_CIF| Volume [angstrom^3]:                                        55.078165
 CELL_CIF| Vector a [angstrom     3.298     0.000     0.000   |a| =     3.298410
 CELL_CIF| Vector b [angstrom     0.000     3.298     0.000   |b| =     3.298410
 CELL_CIF| Vector c [angstrom     0.000     0.000     5.063   |c| =     5.062560
 CELL_CIF| Angle (b,c), alpha [degree]:                                90.000000
 CELL_CIF| Angle (a,c), beta  [degree]:                                90.000000
 CELL_CIF| Angle (a,b), gamma [degree]:                                90.000000
 CELL_CIF| Numerically orthorhombic:                                         YES
 CELL_CIF| Periodicity                                                       XYZ

 GENERATE|  Preliminary Number of Bonds generated:                             0
 GENERATE|  Achieved consistency in connectivity generation.

 CELL| Volume [angstrom^3]:                                            55.078165
 CELL| Vector a [angstrom]:       3.298     0.000     0.000   |a| =     3.298410
 CELL| Vector b [angstrom]:       0.000     3.298     0.000   |b| =     3.298410
 CELL| Vector c [angstrom]:       0.000     0.000     5.063   |c| =     5.062560
 CELL| Angle (b,c), alpha [degree]:                                    90.000000
 CELL| Angle (a,c), beta  [degree]:                                    90.000000
 CELL| Angle (a,b), gamma [degree]:                                    90.000000
 CELL| Numerically orthorhombic:                                             YES
 CELL| Periodicity                                                           XYZ

 CELL_REF| Volume [angstrom^3]:                                        55.078165
 CELL_REF| Vector a [angstrom     3.298     0.000     0.000   |a| =     3.298410
 CELL_REF| Vector b [angstrom     0.000     3.298     0.000   |b| =     3.298410
 CELL_REF| Vector c [angstrom     0.000     0.000     5.063   |c| =     5.062560
 CELL_REF| Angle (b,c), alpha [degree]:                                90.000000
 CELL_REF| Angle (a,c), beta  [degree]:                                90.000000
 CELL_REF| Angle (a,b), gamma [degree]:                                90.000000
 CELL_REF| Numerically orthorhombic:                                         YES
 CELL_REF| Periodicity                                                       XYZ

 *** WARNING in cryssym.F:180 :: Symmetry library SPGLIB not available ***


 *******************************************************************************
                                    Kpoints
 *******************************************************************************
 BRILLOUIN| K-point scheme                                        Monkhorst-Pack
 BRILLOUIN| K-Point grid                                             8    8    8
 BRILLOUIN| Accuracy in Symmetry determination                      0.100000E-05
 BRILLOUIN| K-Point point group symmetrization                               OFF
 BRILLOUIN| Wavefunction type                                            COMPLEX
 BRILLOUIN| List of Kpoints [2 Pi/Bohr]                                      256
 BRILLOUIN| Number           Weight            X              Y              Z
 BRILLOUIN|     1           0.00391       -0.43750       -0.43750       -0.43750
 BRILLOUIN|     2           0.00391       -0.43750       -0.43750       -0.31250
 BRILLOUIN|     3           0.00391       -0.43750       -0.43750       -0.18750
 BRILLOUIN|     4           0.00391       -0.43750       -0.43750       -0.06250
 BRILLOUIN|     5           0.00391       -0.43750       -0.43750        0.06250
 BRILLOUIN|     6           0.00391       -0.43750       -0.43750        0.18750
 BRILLOUIN|     7           0.00391       -0.43750       -0.43750        0.31250
 BRILLOUIN|     8           0.00391       -0.43750       -0.43750        0.43750
 BRILLOUIN|     9           0.00391       -0.43750       -0.31250       -0.43750
 BRILLOUIN|    10           0.00391       -0.43750       -0.31250       -0.31250
 BRILLOUIN|    11           0.00391       -0.43750       -0.31250       -0.18750
 BRILLOUIN|    12           0.00391       -0.43750       -0.31250       -0.06250
 BRILLOUIN|    13           0.00391       -0.43750       -0.31250        0.06250
 BRILLOUIN|    14           0.00391       -0.43750       -0.31250        0.18750
 BRILLOUIN|    15           0.00391       -0.43750       -0.31250        0.31250
 BRILLOUIN|    16           0.00391       -0.43750       -0.31250        0.43750
 BRILLOUIN|    17           0.00391       -0.43750       -0.18750       -0.43750
 BRILLOUIN|    18           0.00391       -0.43750       -0.18750       -0.31250
 BRILLOUIN|    19           0.00391       -0.43750       -0.18750       -0.18750
 BRILLOUIN|    20           0.00391       -0.43750       -0.18750       -0.06250
 BRILLOUIN|    21           0.00391       -0.43750       -0.18750        0.06250
 BRILLOUIN|    22           0.00391       -0.43750       -0.18750        0.18750
 BRILLOUIN|    23           0.00391       -0.43750       -0.18750        0.31250
 BRILLOUIN|    24           0.00391       -0.43750       -0.18750        0.43750
 BRILLOUIN|    25           0.00391       -0.43750       -0.06250       -0.43750
 BRILLOUIN|    26           0.00391       -0.43750       -0.06250       -0.31250
 BRILLOUIN|    27           0.00391       -0.43750       -0.06250       -0.18750
 BRILLOUIN|    28           0.00391       -0.43750       -0.06250       -0.06250
 BRILLOUIN|    29           0.00391       -0.43750       -0.06250        0.06250
 BRILLOUIN|    30           0.00391       -0.43750       -0.06250        0.18750
 BRILLOUIN|    31           0.00391       -0.43750       -0.06250        0.31250
 BRILLOUIN|    32           0.00391       -0.43750       -0.06250        0.43750
 BRILLOUIN|    33           0.00391       -0.43750        0.06250       -0.43750
 BRILLOUIN|    34           0.00391       -0.43750        0.06250       -0.31250
 BRILLOUIN|    35           0.00391       -0.43750        0.06250       -0.18750
 BRILLOUIN|    36           0.00391       -0.43750        0.06250       -0.06250
 BRILLOUIN|    37           0.00391       -0.43750        0.06250        0.06250
 BRILLOUIN|    38           0.00391       -0.43750        0.06250        0.18750
 BRILLOUIN|    39           0.00391       -0.43750        0.06250        0.31250
 BRILLOUIN|    40           0.00391       -0.43750        0.06250        0.43750
 BRILLOUIN|    41           0.00391       -0.43750        0.18750       -0.43750
 BRILLOUIN|    42           0.00391       -0.43750        0.18750       -0.31250
 BRILLOUIN|    43           0.00391       -0.43750        0.18750       -0.18750
 BRILLOUIN|    44           0.00391       -0.43750        0.18750       -0.06250
 BRILLOUIN|    45           0.00391       -0.43750        0.18750        0.06250
 BRILLOUIN|    46           0.00391       -0.43750        0.18750        0.18750
 BRILLOUIN|    47           0.00391       -0.43750        0.18750        0.31250
 BRILLOUIN|    48           0.00391       -0.43750        0.18750        0.43750
 BRILLOUIN|    49           0.00391       -0.43750        0.31250       -0.43750
 BRILLOUIN|    50           0.00391       -0.43750        0.31250       -0.31250
 BRILLOUIN|    51           0.00391       -0.43750        0.31250       -0.18750
 BRILLOUIN|    52           0.00391       -0.43750        0.31250       -0.06250
 BRILLOUIN|    53           0.00391       -0.43750        0.31250        0.06250
 BRILLOUIN|    54           0.00391       -0.43750        0.31250        0.18750
 BRILLOUIN|    55           0.00391       -0.43750        0.31250        0.31250
 BRILLOUIN|    56           0.00391       -0.43750        0.31250        0.43750
 BRILLOUIN|    57           0.00391       -0.43750        0.43750       -0.43750
 BRILLOUIN|    58           0.00391       -0.43750        0.43750       -0.31250
 BRILLOUIN|    59           0.00391       -0.43750        0.43750       -0.18750
 BRILLOUIN|    60           0.00391       -0.43750        0.43750       -0.06250
 BRILLOUIN|    61           0.00391       -0.43750        0.43750        0.06250
 BRILLOUIN|    62           0.00391       -0.43750        0.43750        0.18750
 BRILLOUIN|    63           0.00391       -0.43750        0.43750        0.31250
 BRILLOUIN|    64           0.00391       -0.43750        0.43750        0.43750
 BRILLOUIN|    65           0.00391       -0.31250       -0.43750       -0.43750
 BRILLOUIN|    66           0.00391       -0.31250       -0.43750       -0.31250
 BRILLOUIN|    67           0.00391       -0.31250       -0.43750       -0.18750
 BRILLOUIN|    68           0.00391       -0.31250       -0.43750       -0.06250
 BRILLOUIN|    69           0.00391       -0.31250       -0.43750        0.06250
 BRILLOUIN|    70           0.00391       -0.31250       -0.43750        0.18750
 BRILLOUIN|    71           0.00391       -0.31250       -0.43750        0.31250
 BRILLOUIN|    72           0.00391       -0.31250       -0.43750        0.43750
 BRILLOUIN|    73           0.00391       -0.31250       -0.31250       -0.43750
 BRILLOUIN|    74           0.00391       -0.31250       -0.31250       -0.31250
 BRILLOUIN|    75           0.00391       -0.31250       -0.31250       -0.18750
 BRILLOUIN|    76           0.00391       -0.31250       -0.31250       -0.06250
 BRILLOUIN|    77           0.00391       -0.31250       -0.31250        0.06250
 BRILLOUIN|    78           0.00391       -0.31250       -0.31250        0.18750
 BRILLOUIN|    79           0.00391       -0.31250       -0.31250        0.31250
 BRILLOUIN|    80           0.00391       -0.31250       -0.31250        0.43750
 BRILLOUIN|    81           0.00391       -0.31250       -0.18750       -0.43750
 BRILLOUIN|    82           0.00391       -0.31250       -0.18750       -0.31250
 BRILLOUIN|    83           0.00391       -0.31250       -0.18750       -0.18750
 BRILLOUIN|    84           0.00391       -0.31250       -0.18750       -0.06250
 BRILLOUIN|    85           0.00391       -0.31250       -0.18750        0.06250
 BRILLOUIN|    86           0.00391       -0.31250       -0.18750        0.18750
 BRILLOUIN|    87           0.00391       -0.31250       -0.18750        0.31250
 BRILLOUIN|    88           0.00391       -0.31250       -0.18750        0.43750
 BRILLOUIN|    89           0.00391       -0.31250       -0.06250       -0.43750
 BRILLOUIN|    90           0.00391       -0.31250       -0.06250       -0.31250
 BRILLOUIN|    91           0.00391       -0.31250       -0.06250       -0.18750
 BRILLOUIN|    92           0.00391       -0.31250       -0.06250       -0.06250
 BRILLOUIN|    93           0.00391       -0.31250       -0.06250        0.06250
 BRILLOUIN|    94           0.00391       -0.31250       -0.06250        0.18750
 BRILLOUIN|    95           0.00391       -0.31250       -0.06250        0.31250
 BRILLOUIN|    96           0.00391       -0.31250       -0.06250        0.43750
 BRILLOUIN|    97           0.00391       -0.31250        0.06250       -0.43750
 BRILLOUIN|    98           0.00391       -0.31250        0.06250       -0.31250
 BRILLOUIN|    99           0.00391       -0.31250        0.06250       -0.18750
 BRILLOUIN|   100           0.00391       -0.31250        0.06250       -0.06250
 BRILLOUIN|   101           0.00391       -0.31250        0.06250        0.06250
 BRILLOUIN|   102           0.00391       -0.31250        0.06250        0.18750
 BRILLOUIN|   103           0.00391       -0.31250        0.06250        0.31250
 BRILLOUIN|   104           0.00391       -0.31250        0.06250        0.43750
 BRILLOUIN|   105           0.00391       -0.31250        0.18750       -0.43750
 BRILLOUIN|   106           0.00391       -0.31250        0.18750       -0.31250
 BRILLOUIN|   107           0.00391       -0.31250        0.18750       -0.18750
 BRILLOUIN|   108           0.00391       -0.31250        0.18750       -0.06250
 BRILLOUIN|   109           0.00391       -0.31250        0.18750        0.06250
 BRILLOUIN|   110           0.00391       -0.31250        0.18750        0.18750
 BRILLOUIN|   111           0.00391       -0.31250        0.18750        0.31250
 BRILLOUIN|   112           0.00391       -0.31250        0.18750        0.43750
 BRILLOUIN|   113           0.00391       -0.31250        0.31250       -0.43750
 BRILLOUIN|   114           0.00391       -0.31250        0.31250       -0.31250
 BRILLOUIN|   115           0.00391       -0.31250        0.31250       -0.18750
 BRILLOUIN|   116           0.00391       -0.31250        0.31250       -0.06250
 BRILLOUIN|   117           0.00391       -0.31250        0.31250        0.06250
 BRILLOUIN|   118           0.00391       -0.31250        0.31250        0.18750
 BRILLOUIN|   119           0.00391       -0.31250        0.31250        0.31250
 BRILLOUIN|   120           0.00391       -0.31250        0.31250        0.43750
 BRILLOUIN|   121           0.00391       -0.31250        0.43750       -0.43750
 BRILLOUIN|   122           0.00391       -0.31250        0.43750       -0.31250
 BRILLOUIN|   123           0.00391       -0.31250        0.43750       -0.18750
 BRILLOUIN|   124           0.00391       -0.31250        0.43750       -0.06250
 BRILLOUIN|   125           0.00391       -0.31250        0.43750        0.06250
 BRILLOUIN|   126           0.00391       -0.31250        0.43750        0.18750
 BRILLOUIN|   127           0.00391       -0.31250        0.43750        0.31250
 BRILLOUIN|   128           0.00391       -0.31250        0.43750        0.43750
 BRILLOUIN|   129           0.00391       -0.18750       -0.43750       -0.43750
 BRILLOUIN|   130           0.00391       -0.18750       -0.43750       -0.31250
 BRILLOUIN|   131           0.00391       -0.18750       -0.43750       -0.18750
 BRILLOUIN|   132           0.00391       -0.18750       -0.43750       -0.06250
 BRILLOUIN|   133           0.00391       -0.18750       -0.43750        0.06250
 BRILLOUIN|   134           0.00391       -0.18750       -0.43750        0.18750
 BRILLOUIN|   135           0.00391       -0.18750       -0.43750        0.31250
 BRILLOUIN|   136           0.00391       -0.18750       -0.43750        0.43750
 BRILLOUIN|   137           0.00391       -0.18750       -0.31250       -0.43750
 BRILLOUIN|   138           0.00391       -0.18750       -0.31250       -0.31250
 BRILLOUIN|   139           0.00391       -0.18750       -0.31250       -0.18750
 BRILLOUIN|   140           0.00391       -0.18750       -0.31250       -0.06250
 BRILLOUIN|   141           0.00391       -0.18750       -0.31250        0.06250
 BRILLOUIN|   142           0.00391       -0.18750       -0.31250        0.18750
 BRILLOUIN|   143           0.00391       -0.18750       -0.31250        0.31250
 BRILLOUIN|   144           0.00391       -0.18750       -0.31250        0.43750
 BRILLOUIN|   145           0.00391       -0.18750       -0.18750       -0.43750
 BRILLOUIN|   146           0.00391       -0.18750       -0.18750       -0.31250
 BRILLOUIN|   147           0.00391       -0.18750       -0.18750       -0.18750
 BRILLOUIN|   148           0.00391       -0.18750       -0.18750       -0.06250
 BRILLOUIN|   149           0.00391       -0.18750       -0.18750        0.06250
 BRILLOUIN|   150           0.00391       -0.18750       -0.18750        0.18750
 BRILLOUIN|   151           0.00391       -0.18750       -0.18750        0.31250
 BRILLOUIN|   152           0.00391       -0.18750       -0.18750        0.43750
 BRILLOUIN|   153           0.00391       -0.18750       -0.06250       -0.43750
 BRILLOUIN|   154           0.00391       -0.18750       -0.06250       -0.31250
 BRILLOUIN|   155           0.00391       -0.18750       -0.06250       -0.18750
 BRILLOUIN|   156           0.00391       -0.18750       -0.06250       -0.06250
 BRILLOUIN|   157           0.00391       -0.18750       -0.06250        0.06250
 BRILLOUIN|   158           0.00391       -0.18750       -0.06250        0.18750
 BRILLOUIN|   159           0.00391       -0.18750       -0.06250        0.31250
 BRILLOUIN|   160           0.00391       -0.18750       -0.06250        0.43750
 BRILLOUIN|   161           0.00391       -0.18750        0.06250       -0.43750
 BRILLOUIN|   162           0.00391       -0.18750        0.06250       -0.31250
 BRILLOUIN|   163           0.00391       -0.18750        0.06250       -0.18750
 BRILLOUIN|   164           0.00391       -0.18750        0.06250       -0.06250
 BRILLOUIN|   165           0.00391       -0.18750        0.06250        0.06250
 BRILLOUIN|   166           0.00391       -0.18750        0.06250        0.18750
 BRILLOUIN|   167           0.00391       -0.18750        0.06250        0.31250
 BRILLOUIN|   168           0.00391       -0.18750        0.06250        0.43750
 BRILLOUIN|   169           0.00391       -0.18750        0.18750       -0.43750
 BRILLOUIN|   170           0.00391       -0.18750        0.18750       -0.31250
 BRILLOUIN|   171           0.00391       -0.18750        0.18750       -0.18750
 BRILLOUIN|   172           0.00391       -0.18750        0.18750       -0.06250
 BRILLOUIN|   173           0.00391       -0.18750        0.18750        0.06250
 BRILLOUIN|   174           0.00391       -0.18750        0.18750        0.18750
 BRILLOUIN|   175           0.00391       -0.18750        0.18750        0.31250
 BRILLOUIN|   176           0.00391       -0.18750        0.18750        0.43750
 BRILLOUIN|   177           0.00391       -0.18750        0.31250       -0.43750
 BRILLOUIN|   178           0.00391       -0.18750        0.31250       -0.31250
 BRILLOUIN|   179           0.00391       -0.18750        0.31250       -0.18750
 BRILLOUIN|   180           0.00391       -0.18750        0.31250       -0.06250
 BRILLOUIN|   181           0.00391       -0.18750        0.31250        0.06250
 BRILLOUIN|   182           0.00391       -0.18750        0.31250        0.18750
 BRILLOUIN|   183           0.00391       -0.18750        0.31250        0.31250
 BRILLOUIN|   184           0.00391       -0.18750        0.31250        0.43750
 BRILLOUIN|   185           0.00391       -0.18750        0.43750       -0.43750
 BRILLOUIN|   186           0.00391       -0.18750        0.43750       -0.31250
 BRILLOUIN|   187           0.00391       -0.18750        0.43750       -0.18750
 BRILLOUIN|   188           0.00391       -0.18750        0.43750       -0.06250
 BRILLOUIN|   189           0.00391       -0.18750        0.43750        0.06250
 BRILLOUIN|   190           0.00391       -0.18750        0.43750        0.18750
 BRILLOUIN|   191           0.00391       -0.18750        0.43750        0.31250
 BRILLOUIN|   192           0.00391       -0.18750        0.43750        0.43750
 BRILLOUIN|   193           0.00391       -0.06250       -0.43750       -0.43750
 BRILLOUIN|   194           0.00391       -0.06250       -0.43750       -0.31250
 BRILLOUIN|   195           0.00391       -0.06250       -0.43750       -0.18750
 BRILLOUIN|   196           0.00391       -0.06250       -0.43750       -0.06250
 BRILLOUIN|   197           0.00391       -0.06250       -0.43750        0.06250
 BRILLOUIN|   198           0.00391       -0.06250       -0.43750        0.18750
 BRILLOUIN|   199           0.00391       -0.06250       -0.43750        0.31250
 BRILLOUIN|   200           0.00391       -0.06250       -0.43750        0.43750
 BRILLOUIN|   201           0.00391       -0.06250       -0.31250       -0.43750
 BRILLOUIN|   202           0.00391       -0.06250       -0.31250       -0.31250
 BRILLOUIN|   203           0.00391       -0.06250       -0.31250       -0.18750
 BRILLOUIN|   204           0.00391       -0.06250       -0.31250       -0.06250
 BRILLOUIN|   205           0.00391       -0.06250       -0.31250        0.06250
 BRILLOUIN|   206           0.00391       -0.06250       -0.31250        0.18750
 BRILLOUIN|   207           0.00391       -0.06250       -0.31250        0.31250
 BRILLOUIN|   208           0.00391       -0.06250       -0.31250        0.43750
 BRILLOUIN|   209           0.00391       -0.06250       -0.18750       -0.43750
 BRILLOUIN|   210           0.00391       -0.06250       -0.18750       -0.31250
 BRILLOUIN|   211           0.00391       -0.06250       -0.18750       -0.18750
 BRILLOUIN|   212           0.00391       -0.06250       -0.18750       -0.06250
 BRILLOUIN|   213           0.00391       -0.06250       -0.18750        0.06250
 BRILLOUIN|   214           0.00391       -0.06250       -0.18750        0.18750
 BRILLOUIN|   215           0.00391       -0.06250       -0.18750        0.31250
 BRILLOUIN|   216           0.00391       -0.06250       -0.18750        0.43750
 BRILLOUIN|   217           0.00391       -0.06250       -0.06250       -0.43750
 BRILLOUIN|   218           0.00391       -0.06250       -0.06250       -0.31250
 BRILLOUIN|   219           0.00391       -0.06250       -0.06250       -0.18750
 BRILLOUIN|   220           0.00391       -0.06250       -0.06250       -0.06250
 BRILLOUIN|   221           0.00391       -0.06250       -0.06250        0.06250
 BRILLOUIN|   222           0.00391       -0.06250       -0.06250        0.18750
 BRILLOUIN|   223           0.00391       -0.06250       -0.06250        0.31250
 BRILLOUIN|   224           0.00391       -0.06250       -0.06250        0.43750
 BRILLOUIN|   225           0.00391       -0.06250        0.06250       -0.43750
 BRILLOUIN|   226           0.00391       -0.06250        0.06250       -0.31250
 BRILLOUIN|   227           0.00391       -0.06250        0.06250       -0.18750
 BRILLOUIN|   228           0.00391       -0.06250        0.06250       -0.06250
 BRILLOUIN|   229           0.00391       -0.06250        0.06250        0.06250
 BRILLOUIN|   230           0.00391       -0.06250        0.06250        0.18750
 BRILLOUIN|   231           0.00391       -0.06250        0.06250        0.31250
 BRILLOUIN|   232           0.00391       -0.06250        0.06250        0.43750
 BRILLOUIN|   233           0.00391       -0.06250        0.18750       -0.43750
 BRILLOUIN|   234           0.00391       -0.06250        0.18750       -0.31250
 BRILLOUIN|   235           0.00391       -0.06250        0.18750       -0.18750
 BRILLOUIN|   236           0.00391       -0.06250        0.18750       -0.06250
 BRILLOUIN|   237           0.00391       -0.06250        0.18750        0.06250
 BRILLOUIN|   238           0.00391       -0.06250        0.18750        0.18750
 BRILLOUIN|   239           0.00391       -0.06250        0.18750        0.31250
 BRILLOUIN|   240           0.00391       -0.06250        0.18750        0.43750
 BRILLOUIN|   241           0.00391       -0.06250        0.31250       -0.43750
 BRILLOUIN|   242           0.00391       -0.06250        0.31250       -0.31250
 BRILLOUIN|   243           0.00391       -0.06250        0.31250       -0.18750
 BRILLOUIN|   244           0.00391       -0.06250        0.31250       -0.06250
 BRILLOUIN|   245           0.00391       -0.06250        0.31250        0.06250
 BRILLOUIN|   246           0.00391       -0.06250        0.31250        0.18750
 BRILLOUIN|   247           0.00391       -0.06250        0.31250        0.31250
 BRILLOUIN|   248           0.00391       -0.06250        0.31250        0.43750
 BRILLOUIN|   249           0.00391       -0.06250        0.43750       -0.43750
 BRILLOUIN|   250           0.00391       -0.06250        0.43750       -0.31250
 BRILLOUIN|   251           0.00391       -0.06250        0.43750       -0.18750
 BRILLOUIN|   252           0.00391       -0.06250        0.43750       -0.06250
 BRILLOUIN|   253           0.00391       -0.06250        0.43750        0.06250
 BRILLOUIN|   254           0.00391       -0.06250        0.43750        0.18750
 BRILLOUIN|   255           0.00391       -0.06250        0.43750        0.31250
 BRILLOUIN|   256           0.00391       -0.06250        0.43750        0.43750
 *******************************************************************************

 *******************************************************************************
 *******************************************************************************
 **                                                                           **
 **     #####                         ##              ##                      **
 **    ##   ##            ##          ##              ##                      **
 **   ##     ##                       ##            ######                    **
 **   ##     ##  ##   ##  ##   #####  ##  ##   ####   ##    #####    #####    **
 **   ##     ##  ##   ##  ##  ##      ## ##   ##      ##   ##   ##  ##   ##   **
 **   ##  ## ##  ##   ##  ##  ##      ####     ###    ##   ######   ######    **
 **    ##  ###   ##   ##  ##  ##      ## ##      ##   ##   ##       ##        **
 **     #######   #####   ##   #####  ##  ##  ####    ##    #####   ##        **
 **           ##                                                    ##        **
 **                                                                           **
 **                                                ... make the atoms dance   **
 **                                                                           **
 **            Copyright (C) by CP2K developers group (2000-2025)             **
 **                      J. Chem. Phys. 152, 194103 (2020)                    **
 **                                                                           **
 *******************************************************************************

 DFT| Spin restricted Kohn-Sham (RKS) calculation                            RKS
 DFT| Multiplicity                                                             1
 DFT| Number of spin states                                                    1
 DFT| Charge                                                                   0
 DFT| Self-interaction correction (SIC)                                       NO
 DFT| Cutoffs: density                                              1.000000E-10
 DFT|          gradient                                             1.000000E-10
 DFT|          tau                                                  1.000000E-10
 DFT|          cutoff_smoothing_range                               0.000000E+00
 DFT| XC density smoothing                                                  NONE
 DFT| XC derivatives                                                          PW

 FUNCTIONAL| PBE:
 FUNCTIONAL| J.P.Perdew, K.Burke, M.Ernzerhof, Phys. Rev. Letter, vol. 77, n 18,
 FUNCTIONAL|  pp. 3865-3868, (1996) {spin unpolarized}                          


 QS| Method:                                                                 GPW
 QS| Density plane wave grid type                        NON-SPHERICAL FULLSPACE
 QS| Number of grid levels:                                                    4
 QS| Density cutoff [a.u.]:                                                500.0
 QS| Multi grid cutoff [a.u.]: 1) grid level                               500.0
 QS|                           2) grid level                               166.7
 QS|                           3) grid level                                55.6
 QS|                           4) grid level                                18.5
 QS| Grid level progression factor:                                          3.0
 QS| Relative density cutoff [a.u.]:                                        50.0
 QS| Interaction thresholds: eps_pgf_orb:                                1.0E-16
 QS|                         eps_filter_matrix:                          0.0E+00
 QS|                         eps_core_charge:                            1.0E-18
 QS|                         eps_rho_gspace:                             1.0E-16
 QS|                         eps_rho_rspace:                             1.0E-16
 QS|                         eps_gvg_rspace:                             1.0E-08
 QS|                         eps_ppl:                                    1.0E-02
 QS|                         eps_ppnl:                                   1.0E-10


 ATOMIC KIND INFORMATION

  1. Atomic kind: In                                    Number of atoms:       2

     Orbital Basis Set                                aug-TZVP-MOLOPT-GTH-tier-2

       Number of orbital shell sets:                                           1
       Number of orbital shells:                                              16
       Number of primitive Cartesian functions:                                8
       Number of Cartesian basis functions:                                   85
       Number of spherical basis functions:                                   66
       Norm type:                                                              2

       Normalised Cartesian orbitals:

                        Set   Shell   Orbital            Exponent    Coefficient

                          1       1    2s                0.032000       0.000000
                                                         0.045473      -0.034979
                                                         0.075462       0.000000
                                                         0.125227      -0.092927
                                                         0.329011       0.007326
                                                         0.750747       0.063207
                                                         1.555923       0.036488
                                                         2.943928      -0.029158

                          1       2    3s                0.032000       0.000000
                                                         0.045473       0.091762
                                                         0.075462       0.000000
                                                         0.125227      -0.118965
                                                         0.329011      -0.558116
                                                         0.750747       1.066081
                                                         1.555923      -0.075205
                                                         2.943928      -0.178422

                          1       3    4s                0.032000       0.000000
                                                         0.045473       0.096942
                                                         0.075462       0.000000
                                                         0.125227      -0.189995
                                                         0.329011       0.134385
                                                         0.750747      -0.620853
                                                         1.555923       0.335366
                                                         2.943928      -0.014389

                          1       4    5s                0.032000       0.070098
                                                         0.045473       0.006725
                                                         0.075462      -0.053997
                                                         0.125227       0.011762
                                                         0.329011      -0.010869
                                                         0.750747       0.012842
                                                         1.555923       0.000000
                                                         2.943928       0.000000

                          1       5    3px               0.032000       0.000000
                                                         0.045473       0.013778
                                                         0.075462       0.000000
                                                         0.125227       0.057367
                                                         0.329011       0.060016
                                                         0.750747      -0.122967
                                                         1.555923       0.003499
                                                         2.943928       0.018433
                          1       5    3py               0.032000       0.000000
                                                         0.045473       0.013778
                                                         0.075462       0.000000
                                                         0.125227       0.057367
                                                         0.329011       0.060016
                                                         0.750747      -0.122967
                                                         1.555923       0.003499
                                                         2.943928       0.018433
                          1       5    3pz               0.032000       0.000000
                                                         0.045473       0.013778
                                                         0.075462       0.000000
                                                         0.125227       0.057367
                                                         0.329011       0.060016
                                                         0.750747      -0.122967
                                                         1.555923       0.003499
                                                         2.943928       0.018433

                          1       6    4px               0.032000       0.000000
                                                         0.045473      -0.030103
                                                         0.075462       0.000000
                                                         0.125227       0.036966
                                                         0.329011       0.415310
                                                         0.750747      -0.622951
                                                         1.555923       0.057075
                                                         2.943928       0.088789
                          1       6    4py               0.032000       0.000000
                                                         0.045473      -0.030103
                                                         0.075462       0.000000
                                                         0.125227       0.036966
                                                         0.329011       0.415310
                                                         0.750747      -0.622951
                                                         1.555923       0.057075
                                                         2.943928       0.088789
                          1       6    4pz               0.032000       0.000000
                                                         0.045473      -0.030103
                                                         0.075462       0.000000
                                                         0.125227       0.036966
                                                         0.329011       0.415310
                                                         0.750747      -0.622951
                                                         1.555923       0.057075
                                                         2.943928       0.088789

                          1       7    5px               0.032000       0.000000
                                                         0.045473       0.022913
                                                         0.075462       0.000000
                                                         0.125227      -0.107036
                                                         0.329011       0.170880
                                                         0.750747      -0.892570
                                                         1.555923      -0.544315
                                                         2.943928       1.003149
                          1       7    5py               0.032000       0.000000
                                                         0.045473       0.022913
                                                         0.075462       0.000000
                                                         0.125227      -0.107036
                                                         0.329011       0.170880
                                                         0.750747      -0.892570
                                                         1.555923      -0.544315
                                                         2.943928       1.003149
                          1       7    5pz               0.032000       0.000000
                                                         0.045473       0.022913
                                                         0.075462       0.000000
                                                         0.125227      -0.107036
                                                         0.329011       0.170880
                                                         0.750747      -0.892570
                                                         1.555923      -0.544315
                                                         2.943928       1.003149

                          1       8    6px               0.032000       0.067163
                                                         0.045473      -0.105695
                                                         0.075462       0.058001
                                                         0.125227      -0.002243
                                                         0.329011       0.003689
                                                         0.750747       0.033917
                                                         1.555923       0.000000
                                                         2.943928       0.000000
                          1       8    6py               0.032000       0.067163
                                                         0.045473      -0.105695
                                                         0.075462       0.058001
                                                         0.125227      -0.002243
                                                         0.329011       0.003689
                                                         0.750747       0.033917
                                                         1.555923       0.000000
                                                         2.943928       0.000000
                          1       8    6pz               0.032000       0.067163
                                                         0.045473      -0.105695
                                                         0.075462       0.058001
                                                         0.125227      -0.002243
                                                         0.329011       0.003689
                                                         0.750747       0.033917
                                                         1.555923       0.000000
                                                         2.943928       0.000000

                          1       9    4dx2              0.032000       0.000000
                                                         0.045473       0.000652
                                                         0.075462       0.000000
                                                         0.125227       0.004511
                                                         0.329011       0.062062
                                                         0.750747       0.290116
                                                         1.555923       1.227521
                                                         2.943928       2.541052
                          1       9    4dxy              0.032000       0.000000
                                                         0.045473       0.001130
                                                         0.075462       0.000000
                                                         0.125227       0.007813
                                                         0.329011       0.107495
                                                         0.750747       0.502495
                                                         1.555923       2.126128
                                                         2.943928       4.401231
                          1       9    4dxz              0.032000       0.000000
                                                         0.045473       0.001130
                                                         0.075462       0.000000
                                                         0.125227       0.007813
                                                         0.329011       0.107495
                                                         0.750747       0.502495
                                                         1.555923       2.126128
                                                         2.943928       4.401231
                          1       9    4dy2              0.032000       0.000000
                                                         0.045473       0.000652
                                                         0.075462       0.000000
                                                         0.125227       0.004511
                                                         0.329011       0.062062
                                                         0.750747       0.290116
                                                         1.555923       1.227521
                                                         2.943928       2.541052
                          1       9    4dyz              0.032000       0.000000
                                                         0.045473       0.001130
                                                         0.075462       0.000000
                                                         0.125227       0.007813
                                                         0.329011       0.107495
                                                         0.750747       0.502495
                                                         1.555923       2.126128
                                                         2.943928       4.401231
                          1       9    4dz2              0.032000       0.000000
                                                         0.045473       0.000652
                                                         0.075462       0.000000
                                                         0.125227       0.004511
                                                         0.329011       0.062062
                                                         0.750747       0.290116
                                                         1.555923       1.227521
                                                         2.943928       2.541052

                          1      10    5dx2              0.032000       0.000000
                                                         0.045473       0.003367
                                                         0.075462       0.000000
                                                         0.125227       0.017333
                                                         0.329011       0.091261
                                                         0.750747      -0.290611
                                                         1.555923      -0.750683
                                                         2.943928      -1.260999
                          1      10    5dxy              0.032000       0.000000
                                                         0.045473       0.005831
                                                         0.075462       0.000000
                                                         0.125227       0.030021
                                                         0.329011       0.158069
                                                         0.750747      -0.503353
                                                         1.555923      -1.300222
                                                         2.943928      -2.184115
                          1      10    5dxz              0.032000       0.000000
                                                         0.045473       0.005831
                                                         0.075462       0.000000
                                                         0.125227       0.030021
                                                         0.329011       0.158069
                                                         0.750747      -0.503353
                                                         1.555923      -1.300222
                                                         2.943928      -2.184115
                          1      10    5dy2              0.032000       0.000000
                                                         0.045473       0.003367
                                                         0.075462       0.000000
                                                         0.125227       0.017333
                                                         0.329011       0.091261
                                                         0.750747      -0.290611
                                                         1.555923      -0.750683
                                                         2.943928      -1.260999
                          1      10    5dyz              0.032000       0.000000
                                                         0.045473       0.005831
                                                         0.075462       0.000000
                                                         0.125227       0.030021
                                                         0.329011       0.158069
                                                         0.750747      -0.503353
                                                         1.555923      -1.300222
                                                         2.943928      -2.184115
                          1      10    5dz2              0.032000       0.000000
                                                         0.045473       0.003367
                                                         0.075462       0.000000
                                                         0.125227       0.017333
                                                         0.329011       0.091261
                                                         0.750747      -0.290611
                                                         1.555923      -0.750683
                                                         2.943928      -1.260999

                          1      11    6dx2              0.032000       0.000000
                                                         0.045473       0.006735
                                                         0.075462       0.000000
                                                         0.125227       0.000230
                                                         0.329011      -0.193022
                                                         0.750747       0.166577
                                                         1.555923       0.866500
                                                         2.943928       0.131253
                          1      11    6dxy              0.032000       0.000000
                                                         0.045473       0.011666
                                                         0.075462       0.000000
                                                         0.125227       0.000399
                                                         0.329011      -0.334324
                                                         0.750747       0.288520
                                                         1.555923       1.500822
                                                         2.943928       0.227336
                          1      11    6dxz              0.032000       0.000000
                                                         0.045473       0.011666
                                                         0.075462       0.000000
                                                         0.125227       0.000399
                                                         0.329011      -0.334324
                                                         0.750747       0.288520
                                                         1.555923       1.500822
                                                         2.943928       0.227336
                          1      11    6dy2              0.032000       0.000000
                                                         0.045473       0.006735
                                                         0.075462       0.000000
                                                         0.125227       0.000230
                                                         0.329011      -0.193022
                                                         0.750747       0.166577
                                                         1.555923       0.866500
                                                         2.943928       0.131253
                          1      11    6dyz              0.032000       0.000000
                                                         0.045473       0.011666
                                                         0.075462       0.000000
                                                         0.125227       0.000399
                                                         0.329011      -0.334324
                                                         0.750747       0.288520
                                                         1.555923       1.500822
                                                         2.943928       0.227336
                          1      11    6dz2              0.032000       0.000000
                                                         0.045473       0.006735
                                                         0.075462       0.000000
                                                         0.125227       0.000230
                                                         0.329011      -0.193022
                                                         0.750747       0.166577
                                                         1.555923       0.866500
                                                         2.943928       0.131253

                          1      12    7dx2              0.032000       0.014135
                                                         0.045473      -0.027594
                                                         0.075462       0.021563
                                                         0.125227      -0.004667
                                                         0.329011      -0.013561
                                                         0.750747       0.013010
                                                         1.555923       0.000000
                                                         2.943928       0.000000
                          1      12    7dxy              0.032000       0.024483
                                                         0.045473      -0.047794
                                                         0.075462       0.037349
                                                         0.125227      -0.008083
                                                         0.329011      -0.023488
                                                         0.750747       0.022535
                                                         1.555923       0.000000
                                                         2.943928       0.000000
                          1      12    7dxz              0.032000       0.024483
                                                         0.045473      -0.047794
                                                         0.075462       0.037349
                                                         0.125227      -0.008083
                                                         0.329011      -0.023488
                                                         0.750747       0.022535
                                                         1.555923       0.000000
                                                         2.943928       0.000000
                          1      12    7dy2              0.032000       0.014135
                                                         0.045473      -0.027594
                                                         0.075462       0.021563
                                                         0.125227      -0.004667
                                                         0.329011      -0.013561
                                                         0.750747       0.013010
                                                         1.555923       0.000000
                                                         2.943928       0.000000
                          1      12    7dyz              0.032000       0.024483
                                                         0.045473      -0.047794
                                                         0.075462       0.037349
                                                         0.125227      -0.008083
                                                         0.329011      -0.023488
                                                         0.750747       0.022535
                                                         1.555923       0.000000
                                                         2.943928       0.000000
                          1      12    7dz2              0.032000       0.014135
                                                         0.045473      -0.027594
                                                         0.075462       0.021563
                                                         0.125227      -0.004667
                                                         0.329011      -0.013561
                                                         0.750747       0.013010
                                                         1.555923       0.000000
                                                         2.943928       0.000000

                          1      13    5fx3              0.032000       0.000000
                                                         0.045473       0.000322
                                                         0.075462       0.000000
                                                         0.125227       0.003186
                                                         0.329011       0.083397
                                                         0.750747       0.063056
                                                         1.555923       0.160407
                                                         2.943928      -0.104326
                          1      13    5fx2y             0.032000       0.000000
                                                         0.045473       0.000720
                                                         0.075462       0.000000
                                                         0.125227       0.007124
                                                         0.329011       0.186482
                                                         0.750747       0.140998
                                                         1.555923       0.358681
                                                         2.943928      -0.233281
                          1      13    5fx2z             0.032000       0.000000
                                                         0.045473       0.000720
                                                         0.075462       0.000000
                                                         0.125227       0.007124
                                                         0.329011       0.186482
                                                         0.750747       0.140998
                                                         1.555923       0.358681
                                                         2.943928      -0.233281
                          1      13    5fxy2             0.032000       0.000000
                                                         0.045473       0.000720
                                                         0.075462       0.000000
                                                         0.125227       0.007124
                                                         0.329011       0.186482
                                                         0.750747       0.140998
                                                         1.555923       0.358681
                                                         2.943928      -0.233281
                          1      13    5fxyz             0.032000       0.000000
                                                         0.045473       0.001246
                                                         0.075462       0.000000
                                                         0.125227       0.012339
                                                         0.329011       0.322996
                                                         0.750747       0.244215
                                                         1.555923       0.621254
                                                         2.943928      -0.404054
                          1      13    5fxz2             0.032000       0.000000
                                                         0.045473       0.000720
                                                         0.075462       0.000000
                                                         0.125227       0.007124
                                                         0.329011       0.186482
                                                         0.750747       0.140998
                                                         1.555923       0.358681
                                                         2.943928      -0.233281
                          1      13    5fy3              0.032000       0.000000
                                                         0.045473       0.000322
                                                         0.075462       0.000000
                                                         0.125227       0.003186
                                                         0.329011       0.083397
                                                         0.750747       0.063056
                                                         1.555923       0.160407
                                                         2.943928      -0.104326
                          1      13    5fy2z             0.032000       0.000000
                                                         0.045473       0.000720
                                                         0.075462       0.000000
                                                         0.125227       0.007124
                                                         0.329011       0.186482
                                                         0.750747       0.140998
                                                         1.555923       0.358681
                                                         2.943928      -0.233281
                          1      13    5fyz2             0.032000       0.000000
                                                         0.045473       0.000720
                                                         0.075462       0.000000
                                                         0.125227       0.007124
                                                         0.329011       0.186482
                                                         0.750747       0.140998
                                                         1.555923       0.358681
                                                         2.943928      -0.233281
                          1      13    5fz3              0.032000       0.000000
                                                         0.045473       0.000322
                                                         0.075462       0.000000
                                                         0.125227       0.003186
                                                         0.329011       0.083397
                                                         0.750747       0.063056
                                                         1.555923       0.160407
                                                         2.943928      -0.104326

                          1      14    6fx3              0.032000       0.000000
                                                         0.045473       0.001349
                                                         0.075462       0.000000
                                                         0.125227      -0.001087
                                                         0.329011      -0.031751
                                                         0.750747      -0.172405
                                                         1.555923      -0.131817
                                                         2.943928       0.090042
                          1      14    6fx2y             0.032000       0.000000
                                                         0.045473       0.003017
                                                         0.075462       0.000000
                                                         0.125227      -0.002430
                                                         0.329011      -0.070997
                                                         0.750747      -0.385510
                                                         1.555923      -0.294753
                                                         2.943928       0.201341
                          1      14    6fx2z             0.032000       0.000000
                                                         0.045473       0.003017
                                                         0.075462       0.000000
                                                         0.125227      -0.002430
                                                         0.329011      -0.070997
                                                         0.750747      -0.385510
                                                         1.555923      -0.294753
                                                         2.943928       0.201341
                          1      14    6fxy2             0.032000       0.000000
                                                         0.045473       0.003017
                                                         0.075462       0.000000
                                                         0.125227      -0.002430
                                                         0.329011      -0.070997
                                                         0.750747      -0.385510
                                                         1.555923      -0.294753
                                                         2.943928       0.201341
                          1      14    6fxyz             0.032000       0.000000
                                                         0.045473       0.005225
                                                         0.075462       0.000000
                                                         0.125227      -0.004210
                                                         0.329011      -0.122970
                                                         0.750747      -0.667723
                                                         1.555923      -0.510527
                                                         2.943928       0.348732
                          1      14    6fxz2             0.032000       0.000000
                                                         0.045473       0.003017
                                                         0.075462       0.000000
                                                         0.125227      -0.002430
                                                         0.329011      -0.070997
                                                         0.750747      -0.385510
                                                         1.555923      -0.294753
                                                         2.943928       0.201341
                          1      14    6fy3              0.032000       0.000000
                                                         0.045473       0.001349
                                                         0.075462       0.000000
                                                         0.125227      -0.001087
                                                         0.329011      -0.031751
                                                         0.750747      -0.172405
                                                         1.555923      -0.131817
                                                         2.943928       0.090042
                          1      14    6fy2z             0.032000       0.000000
                                                         0.045473       0.003017
                                                         0.075462       0.000000
                                                         0.125227      -0.002430
                                                         0.329011      -0.070997
                                                         0.750747      -0.385510
                                                         1.555923      -0.294753
                                                         2.943928       0.201341
                          1      14    6fyz2             0.032000       0.000000
                                                         0.045473       0.003017
                                                         0.075462       0.000000
                                                         0.125227      -0.002430
                                                         0.329011      -0.070997
                                                         0.750747      -0.385510
                                                         1.555923      -0.294753
                                                         2.943928       0.201341
                          1      14    6fz3              0.032000       0.000000
                                                         0.045473       0.001349
                                                         0.075462       0.000000
                                                         0.125227      -0.001087
                                                         0.329011      -0.031751
                                                         0.750747      -0.172405
                                                         1.555923      -0.131817
                                                         2.943928       0.090042

                          1      15    7fx3              0.032000       0.000498
                                                         0.045473      -0.000114
                                                         0.075462      -0.000192
                                                         0.125227      -0.012300
                                                         0.329011      -0.017035
                                                         0.750747       0.087334
                                                         1.555923       0.000000
                                                         2.943928       0.000000
                          1      15    7fx2y             0.032000       0.001113
                                                         0.045473      -0.000256
                                                         0.075462      -0.000429
                                                         0.125227      -0.027504
                                                         0.329011      -0.038091
                                                         0.750747       0.195285
                                                         1.555923       0.000000
                                                         2.943928       0.000000
                          1      15    7fx2z             0.032000       0.001113
                                                         0.045473      -0.000256
                                                         0.075462      -0.000429
                                                         0.125227      -0.027504
                                                         0.329011      -0.038091
                                                         0.750747       0.195285
                                                         1.555923       0.000000
                                                         2.943928       0.000000
                          1      15    7fxy2             0.032000       0.001113
                                                         0.045473      -0.000256
                                                         0.075462      -0.000429
                                                         0.125227      -0.027504
                                                         0.329011      -0.038091
                                                         0.750747       0.195285
                                                         1.555923       0.000000
                                                         2.943928       0.000000
                          1      15    7fxyz             0.032000       0.001928
                                                         0.045473      -0.000443
                                                         0.075462      -0.000743
                                                         0.125227      -0.047639
                                                         0.329011      -0.065976
                                                         0.750747       0.338244
                                                         1.555923       0.000000
[...]

 !-----------------------------------------------------------------------------!
                           Hirshfeld Charges

  #Atom  Element  Kind  Ref Charge     Population                    Net charge
      1       In     1      13.000         13.000                        -0.000
      2       In     1      13.000         13.000                         0.000

  Total Charge                                                            0.000
 !-----------------------------------------------------------------------------!

 KPOINTS| Band Structure Calculation
 KPOINTS| Number of k-point sets                                               1
 KPOINTS| Number of added MOs/bands                                           -1
 KPOINTS| Number of k-points in set    1                                     197
 KPOINTS| In units of b-vector [2pi/Bohr]
 KPOINTS| Special point     1 not specifi     0.000000     0.000000     0.000000
 KPOINTS| Special point     2 not specifi     0.000000     0.000000     0.500000
 KPOINTS| Special point     3 not specifi     0.250000     0.250000     0.250000
 KPOINTS| Special point     4 not specifi     0.000000     0.500000     0.000000
 KPOINTS| Special point     5 not specifi     0.000000     0.000000     0.000000
 KPOINTS| Time for k-point line                                           32.378

 ENERGY| Total FORCE_EVAL ( QS ) energy [hartree]           -112.631786090107965

 -------------------------------------------------------------------------------
 -                                                                             -
 -                                DBCSR STATISTICS                             -
 -                                                                             -
 -------------------------------------------------------------------------------
 COUNTER                                    TOTAL       BLAS       SMM       ACC
 flops inhomo. stacks                           0       0.0%      0.0%      0.0%
 flops total                         0.000000E+00       0.0%      0.0%      0.0%
 flops max/rank                      0.000000E+00       0.0%      0.0%      0.0%
 matmuls inhomo. stacks                         0       0.0%      0.0%      0.0%
 matmuls total                                  0       0.0%      0.0%      0.0%
 number of processed stacks                     0       0.0%      0.0%      0.0%
 average stack size                                     0.0       0.0       0.0
 marketing flops                     0.000000E+00
 -------------------------------------------------------------------------------
 -                                                                             -
 -                      DBCSR MESSAGE PASSING PERFORMANCE                      -
 -                                                                             -
 -------------------------------------------------------------------------------
 ROUTINE             CALLS      AVE VOLUME [Bytes]
 MP_Bcast                1                     12.
 MP_Allreduce           19                     21.
 MP_Alltoall        649484                  17277.
 -------------------------------------------------------------------------------

 -------------------------------------------------------------------------------
 -                                                                             -
 -                                DBM STATISTICS                               -
 -                                                                             -
 -------------------------------------------------------------------------------
    M  x    N  x    K                                          COUNT     PERCENT
 -------------------------------------------------------------------------------

 -------------------------------------------------------------------------------
 -                                                                             -
 -                                GRID STATISTICS                              -
 -                                                                             -
 -------------------------------------------------------------------------------
 LP    KERNEL             BACKEND                              COUNT     PERCENT
 8     collocate ortho    CPU                                2710032      50.98%
 8     integrate ortho    CPU                                2605800      49.02%
 0     collocate general  CPU                                      4       0.00%
 0     integrate general  CPU                                      2       0.00%
 -------------------------------------------------------------------------------

 MEMORY| Estimated peak process memory [MiB]                                1817

 -------------------------------------------------------------------------------
 ----                             MULTIGRID INFO                            ----
 -------------------------------------------------------------------------------
 count for grid        1:          82082          cutoff [a.u.]          500.00
 count for grid        2:         416096          cutoff [a.u.]          166.67
 count for grid        3:         303034          cutoff [a.u.]           55.56
 count for grid        4:         404464          cutoff [a.u.]           18.52
 total gridlevel count  :        1205676

 -------------------------------------------------------------------------------
 -                                                                             -
 -                         MESSAGE PASSING PERFORMANCE                         -
 -                                                                             -
 -------------------------------------------------------------------------------

 ROUTINE             CALLS      AVE VOLUME [Bytes]
 MP_Group                6
 MP_Bcast           235328                   2126.
 MP_Allreduce       348930                     29.
 MP_Sync                 4
 MP_Alltoall           507                1031898.
 MP_SendRecv          1590                  72245.
 MP_ISendRecv         1515                  71034.
 MP_Wait            161455
 MP_comm_split           4
 MP_ISend           166316                   2072.
 MP_IRecv           274316                   1259.
 -------------------------------------------------------------------------------


 -------------------------------------------------------------------------------
 -                                                                             -
 -                           R E F E R E N C E S                               -
 -                                                                             -
 -------------------------------------------------------------------------------
 
 CP2K version 2025.1 (Development Version), the CP2K developers group (2025).
 CP2K is freely available from https://www.cp2k.org/ .
 
 T. D. Kuehne, M. Iannuzzi, M. Del Ben, V. V. Rybkin, P. Seewald, F. Stein, T. 
 Laino, R. Z. Khaliullin, O. Schuett, F. Schiffmann, D. Golze, J. Wilhelm, S. 
 Chulkov, M. H. Bani-Hashemian, V. Weber, U. Borstnik, M. Taillefumier, A. S. 
 Jakobovits, A. Lazzaro, H. Pabst, T. Mueller, R. Schade, M. Guidon, S. 
 Andermatt, N. Holmberg, G. K. Schenter, A. Hehn, A. Bussy, F. Belleflamme, G. 
 Tabacchi, A. Gloess, M. Lass, I. Bethune, C. J. Mundy, C. Plessl, M. Watkins, 
 J. VandeVondele, M. Krack, J. Hutter.
 J. Chem. Phys. 152, 194103 (2020).
 CP2K: An electronic structure and molecular dynamics software package - 
 Quickstep: Efficient and accurate electronic structure calculations.
 https://doi.org/10.1063/5.0007045

 O. Schuett, P. Messmer, J. Hutter, J. VandeVondele.
 Electronic Structure Calculations on Graphics Processing Units, 173-190 (2016).
 GPU-Accelerated Sparse Matrix-Matrix Multiplication for Linear Scaling Density 
 Functional Theory.
 https://doi.org/10.1002/9781118670712.ch8

 J. Hutter, M. Iannuzzi, F. Schiffmann, J. VandeVondele.
 WIREs Comput Mol Sci. 4, 15-25 (2014).
 CP2K: atomistic simulations of condensed matter systems.
 https://doi.org/10.1002/wcms.1159

 U. Borstnik, J. VandeVondele, V. Weber, J. Hutter.
 Parallel Comput. 40, 47-58 (2014).
 Sparse matrix multiplication: The distributed block-compressed sparse row 
 library.
 https://doi.org/10.1016/j.parco.2014.03.012

 J. VandeVondele, J. Hutter.
 J. Chem. Phys. 127, 114105 (2007).
 Gaussian basis sets for accurate calculations on molecular systems in gas and 
 condensed phases.
 https://doi.org/10.1063/1.2770708

 J. VandeVondele, M. Krack, F. Mohamed, M. Parrinello, T. Chassaing, J. Hutter.
 Comput. Phys. Commun. 167, 103-128 (2005).
 QUICKSTEP: Fast and accurate density functional calculations using a mixed 
 Gaussian and plane waves approach.
 https://doi.org/10.1016/j.cpc.2004.12.014

 M. Krack.
 Theor. Chem. Acc. 114, 145-152 (2005).
 Pseudopotentials for H to Kr optimized for gradient-corrected 
 exchange-correlation functionals.
 https://doi.org/10.1007/s00214-005-0655-y

 M. Frigo, S. G. Johnson.
 Proc. IEEE 93, 216-231 (2005).
 The design and implementation of FFTW3.
 https://doi.org/10.1109/JPROC.2004.840301

 C. Hartwigsen, S. Goedecker, J. Hutter.
 Phys. Rev. B 58, 3641-3662 (1998).
 Relativistic separable dual-space Gaussian pseudopotentials from H to Rn.
 https://doi.org/10.1103/PhysRevB.58.3641

 G. Lippert, J. Hutter, M. Parrinello.
 Mol. Phys. 92, 477-487 (1997).
 A hybrid Gaussian and plane wave density functional scheme.
 https://doi.org/10.1080/002689797170220

 S. Goedecker, M. Teter, J. Hutter.
 Phys. Rev. B 54, 1703-1710 (1996).
 Separable dual-space Gaussian pseudopotentials.
 https://doi.org/10.1103/PhysRevB.54.1703

 J. P. Perdew, K. Burke, M. Ernzerhof.
 Phys. Rev. Lett. 77, 3865-3868 (1996).
 Generalized gradient approximation made simple.
 https://doi.org/10.1103/PhysRevLett.77.3865


 -------------------------------------------------------------------------------
 -                                                                             -
 -                                T I M I N G                                  -
 -                                                                             -
 -------------------------------------------------------------------------------
 SUBROUTINE                       CALLS  ASD         SELF TIME        TOTAL TIME
                                MAXIMUM       AVERAGE  MAXIMUM  AVERAGE  MAXIMUM
 CP2K                                 1  1.0    0.031    0.034 1693.169 1693.169
 qs_energies                          1  2.0    0.019    0.077 1692.783 1692.844
 scf_env_do_scf                       1  3.0    0.000    0.000 1640.109 1640.109
 scf_env_do_scf_inner_loop           25  4.0    0.101    0.119 1640.109 1640.109
 do_general_diag_kp                  26  5.9    0.151    0.191 1531.149 1558.174
 qs_scf_new_mos_kp                   25  5.0    0.000    0.000 1498.899 1525.924
 mp_alltoall_i22                 110512  8.6 1237.900 1517.102 1237.900 1517.102
 dbcsr_desymmetrize_deep          62050  7.3    0.998    1.614  882.517 1080.023
 rskp_transform                   13194  6.9  169.538  917.944  169.538  917.944
 dbcsr_complete_redistribute      48462  8.0    1.840    2.428  380.045  461.856
 kpoint_density_transform            25  7.0    0.121    0.146  452.041  453.533
 copy_fm_to_dbcsr                 12800  8.0    0.078    0.100  365.963  447.342
 transform_dmat                    6400  8.0   81.683  442.326   81.683  442.326
 qs_ks_update_qs_env                 25  5.0    0.000    0.000   34.441  153.080
 rebuild_ks_matrix                   25  6.0    0.000    0.000   29.066  147.706
 qs_ks_build_kohn_sham_matrix        25  7.0    0.191    0.212   29.066  147.706
 sum_up_and_integrate                25  8.0    0.000    0.000   27.793  146.284
 integrate_v_rspace                  25  9.0    0.204    1.087   27.792  146.283
 grid_integrate_task_list            25 10.0   27.140  144.899   27.140  144.899
 transfer_rs2pw                     106  8.0    0.001    0.002   87.077  106.962
 transfer_rs2pw_500                  28  8.9    0.050    0.054   87.033  106.919
 mp_sendrecv_dv                    1590 10.0   87.015  106.900   87.015  106.900
 qs_rho_update_rho_low               26  5.0    0.000    0.000   95.071   95.162
 calculate_rho_elec                  26  6.0    0.025    0.108   95.071   95.162
 density_rs2pw                       26  7.0    0.001    0.001   77.398   95.075
 grid_collocate_task_list            26  7.0   17.646   94.192   17.646   94.192
 copy_dbcsr_to_fm                 35662  6.7    0.391    0.468   24.990   25.559
 qs_energies_init_hamiltonians        1  3.0    0.000    0.000   13.466   13.466
 build_core_hamiltonian_matrix        1  4.0    0.016    0.017    2.474   12.212
 qs_env_update_s_mstruct              1  4.0    0.000    0.000   10.007   12.045
 calculate_rho_core                   1  5.0    0.000    0.002    9.748   11.997
 write_kpoints_restart               25  5.0    0.059    0.071    9.586    9.587
 cp_cfm_geeig_canon                 597  6.0    0.035    0.042    8.898    9.014
 cp_cfm_heevd                      1194  7.0    0.002    0.002    8.137    8.249
 cp_cfm_heevd_base                 1194  8.0    8.135    8.247    8.135    8.247
 cp_fm_start_copy_general         39188  7.3    0.802    1.067    7.612    7.824
 dbcsr_dot                       231851  8.0    1.260    2.936    6.798    7.168
 cp_dbcsr_alloc_block_from_nbl    32611  5.0    1.152    5.813    1.365    6.822
 mp_sum_d                        232471  9.0    5.784    6.773    5.784    6.773
 build_core_ppnl                      1  5.0    1.114    5.871    1.114    5.871
 init_scf_run                         1  3.0    0.000    0.000    5.256    5.620
 scf_env_initial_rho_setup            1  4.0    0.000    0.000    5.256    5.620
 evaluate_core_matrix_traces         25  6.0    0.000    0.000    5.374    5.374
 calculate_ptrace_kp                 50  7.0    0.170    0.174    5.374    5.374
 mp_allgather_i                   78376  8.3    5.039    5.320    5.039    5.320
 mp_alltoall_d11v                331536  9.2    4.826    5.257    4.826    5.257
 dbcsr_finalize                  185008  7.6    0.704    0.818    4.567    5.034
 self_consistency_check              25  5.0    0.163    0.169    4.633    4.953
 cp_sm_mix                       115925  6.0    0.456    1.340    4.230    4.648
 mp_cart_sub                      71327  8.7    4.154    4.183    4.154    4.183
 mp_max_d                        115927  7.0    3.494    4.117    3.494    4.117
 cp_fm_write_unformatted           9274  6.0    2.501    3.640    2.667    4.065
 dbcsr_create_new                423462  7.6    2.599    3.528    2.868    3.868
 mp_alltoall_i11v                207436  8.8    3.206    3.649    3.206    3.649
 hybrid_alltoall_any              62050  8.3    0.260    0.300    3.107    3.450
 dbcsr_merge_all                  48462 10.0    1.773    2.205    2.691    3.104
 dbcsr_copy                      249287  6.6    1.360    1.747    1.963    2.561
 mp_cart_create                   35669  8.7    2.315    2.438    2.315    2.438
 build_core_ppl                       1  5.0    0.438    2.407    0.438    2.407
 mixing_allocate                      1  3.0    0.026    0.027    0.460    2.038
 calculate_first_density_matrix       1  5.0    0.003    0.003    1.611    1.975
 calculate_atomic_block_dm            1  6.0    0.001    0.001    1.599    1.967
 dbcsr_set                       334623  7.1    0.292    0.314    0.624    1.591
 kpoint_set_mo_occupation            25  7.0    1.299    1.330    1.449    1.522
 build_overlap_matrix_low             1  5.0    0.109    0.465    0.319    1.446
 build_kinetic_matrix_low             1  5.0    0.102    0.431    0.311    1.409
 copy_fm_to_dbcsr_bc              12800  9.0    0.176    0.204    0.711    1.394
 dbcsr_iterator_start            656775  8.6    1.110    1.170    1.278    1.325
 mp_bcast_iv                     156778  8.3    1.207    1.315    1.207    1.315
 dbcsr_work_create               110512  8.6    0.688    0.769    1.099    1.311
 dbcsr_zero                      334623  8.1    0.333    1.278    0.333    1.278
 calculate_ecore_overlap              1  4.0    0.000    0.000    0.917    1.128
 dbcsr_reserve_blocks             45411  7.4    0.260    1.061    0.277    1.098
 mp_send_dv                        9274  7.0    0.139    1.057    0.139    1.057
 qs_env_rebuild_rho                   1  5.0    0.000    0.000    0.229    1.017
 qs_rho_rebuild                       1  6.0    0.013    0.014    0.229    1.017
 mp_sum_iv                           24  5.3    0.790    0.972    0.790    0.972
 qs_scf_ensure_work_matrices          1  3.0    0.000    0.000    0.789    0.972
 dbcsr_work_destroy_all          110512  9.6    0.543    0.603    0.847    0.971
 dbcsr_data_new                 1236491  9.4    0.714    0.965    0.714    0.965
 dbcsr_data_release             2017366  9.8    0.717    0.901    0.717    0.901
 dbcsr_iterator_stop             656775  8.6    0.709    0.742    0.849    0.894
 tree_to_linear_d                 48462 11.0    0.713    0.855    0.713    0.855
 copy_dbcsr_to_fm_bc              35662  7.7    0.372    0.393    0.828    0.849
 dbcsr_destroy                   191612  7.2    0.316    0.375    0.611    0.744
 cp_cfm_gemm                       1791  7.0    0.697    0.707    0.697    0.707
 fft_wrap_pw1pw2                    455 10.0    0.003    0.004    0.549    0.650
 fft_wrap_pw1pw2_500                302 11.3    0.014    0.015    0.512    0.613
 fft3d_ps                           455 12.0    0.088    0.091    0.500    0.602
 kpoint_density_matrices             25  7.0    0.012    0.013    0.502    0.594
 parallel_gemm_fm                  1600  8.0    0.002    0.002    0.480    0.571
 parallel_gemm_fm_gemm             1600  9.0    0.002    0.002    0.478    0.570
 cp_fm_gemm                        1600 10.0    0.477    0.568    0.477    0.568
 potential_pw2rs                     25 10.0    0.001    0.001    0.448    0.548
 cp_fm_finish_copy_general        15188  7.7    0.463    0.503    0.487    0.529
 mp_alltoall_z22v                   455 14.0    0.377    0.477    0.377    0.477
 yz_to_x                            179 13.1    0.008    0.008    0.328    0.427
 mp_recv_dv                       27822  7.0    0.027    0.425    0.027    0.425
 quick_finalize                   62050  9.3    0.167    0.226    0.285    0.419
 mp_comm_free                    107030  8.7    0.338    0.397    0.338    0.397
 mp_bcast_im                      78376  8.3    0.354    0.367    0.354    0.367
 dbcsr_copy_into_existing         17437  8.9    0.124    0.240    0.222    0.353
 mp_waitall_1                    161455  8.3    0.151    0.300    0.151    0.300
 dbcsr_make_index_exist          423462  8.6    0.183    0.232    0.183    0.232
 mp_sum_dm3                          25  8.0    0.151    0.227    0.151    0.227
 dbcsr_iterator_seek             656775  9.6    0.168    0.224    0.168    0.224
 qs_vxc_create                       25  8.0    0.000    0.000    0.182    0.183
 xc_vxc_pw_create                    25  9.0    0.006    0.007    0.182    0.182
 dbcsr_sort_indices              155923 10.6    0.086    0.175    0.086    0.175
 -------------------------------------------------------------------------------

 The number of warnings for this run is : 1
 
 -------------------------------------------------------------------------------
  **** **** ******  **  PROGRAM ENDED AT                 2025-08-05 17:06:07.428
 ***** ** ***  *** **   PROGRAM RAN ON                              i01r08c04s11
 **    ****   ******    PROGRAM RAN BY                                   di38fab
 ***** **    ** ** **   PROGRAM PROCESS ID                               2255652
  **** **  *******  **  PROGRAM STOPPED IN /hppfs/scratch/04/di38fab/09_GTH/Delt
                                           a_Set/In/aug-TZVP-MOLOPT-GTH-tier-2/8
                                           x8x8
