Tl                                      
   1.00000000000000     
     3.592550    0.000000    0.000000
     1.796275    3.111240    0.000000
     0.000000    0.000000    5.641950
   Tl
     2
Direct
  0.000000  0.000000  0.000000
  0.333333  0.333333  0.500000
 
   32   32   48
  476.51      459.15      412.49      349.09      281.08      215.61      156.05      105.26      66.438      40.927    
  26.291      17.462      11.975      8.7625      6.9363      5.9807      5.6794      5.9811      6.9365      8.7622    
  11.974      17.462      26.292      40.927      66.437      105.26      156.05      215.61      281.08      349.09    
  412.49      459.15      459.15      427.20      372.61      307.86      242.34      180.87      126.41      82.250    
  50.957      31.987      21.092      14.198      10.063      7.6747      6.3468      5.7401      5.7402      6.3470    
  7.6746      10.063      14.198      21.092      31.986      50.956      82.252      126.42      180.88      242.34    
  307.86      372.60      427.20      459.14      412.49      372.61      317.52      257.02      197.47      142.61    
  95.931      60.686      37.862      24.717      16.545      11.471      8.4845      6.7713      5.8665      5.5793    
  5.8663      6.7712      8.4847      11.471      16.544      24.716      37.860      60.685      95.934      142.62    
  197.47      257.03      317.51      372.61      412.48      427.20      349.09      307.86      257.02      203.31    
  151.40      105.20      68.423      43.116      27.976      18.783      12.880      9.3180      7.2267      6.0422    
  5.4935      5.4935      6.0421      7.2267      9.3182      12.881      18.783      27.976      43.114      68.420    
  105.19      151.39      203.31      257.03      307.87      349.09      372.62      372.62      281.08      242.34    
  197.47      151.40      108.47      72.707      46.780      30.515      20.641      14.143      10.104      7.6767    
  6.2442      5.4696      5.2208      5.4699      6.2443      7.6764      10.104      14.144      20.643      30.517    
  46.780      72.703      108.47      151.39      197.47      242.35      281.09      307.90      317.55      307.89    
  215.61      180.87      142.61      105.20      72.707      48.096      31.922      21.871      15.102      10.757    
  8.0763      6.4448      5.4891      5.0364      5.0365      5.4892      6.4447      8.0757      10.757      15.102    
  21.873      31.925      48.098      72.704      105.19      142.61      180.87      215.61      242.39      257.09    
  257.09      242.39      156.05      126.41      95.931      68.423      46.780      31.922      22.301      15.620    
  11.193      8.3785      6.6145      5.5287      4.9236      4.7261      4.9233      5.5288      6.6147      8.3779    
  11.191      15.619      22.302      31.924      46.783      68.424      95.931      126.41      156.04      180.92    
  197.55      203.41      197.56      180.93      105.26      82.250      60.686      43.116      30.515      21.871    
  15.620      11.346      8.5425      6.7285      5.5673      4.8611      4.5202      4.5200      4.8610      5.5679    
  6.7294      8.5424      11.344      15.617      21.869      30.516      43.119      60.689      82.251      105.26    
  126.46      142.70      151.51      151.51      142.71      126.47      66.438      50.957      37.862      27.976    
  20.641      15.102      11.193      8.5425      6.7688      5.5903      4.8310      4.3979      4.2557      4.3978    
  4.8310      5.5911      6.7706      8.5444      11.193      15.099      20.637      27.974      37.862      50.958    
  66.438      82.291      96.015      105.31      108.60      105.31      96.018      82.293      40.927      31.987    
  24.717      18.783      14.143      10.757      8.3785      6.7285      5.5903      4.8223      4.3417      4.1086    
  4.1085      4.3413      4.8214      5.5902      6.7305      8.3822      10.760      14.143      18.780      24.713    
  31.984      40.927      50.980      60.745      68.513      72.813      72.811      68.508      60.741      50.978    
  26.291      21.092      16.545      12.880      10.104      8.0763      6.6145      5.5673      4.8310      4.3417    
  4.0617      3.9707      4.0618      4.3409      4.8290      5.5654      6.6147      8.0791      10.108      12.883    
  16.545      21.090      26.289      31.984      37.878      43.158      46.842      48.164      46.838      43.153    
  37.876      31.985      17.462      14.198      11.471      9.3180      7.6767      6.4448      5.5287      4.8611    
  4.3979      4.1086      3.9707      3.9712      4.1094      4.3977      4.8589      5.5251      6.4418      7.6766    
  9.3212      11.475      14.201      17.462      21.071      24.690      27.957      30.509      31.926      31.926    
  30.511      27.959      24.693      21.073      11.975      10.063      8.4845      7.2267      6.2442      5.4891    
  4.9236      4.5202      4.2557      4.1085      4.0618      4.1094      4.2575      4.5219      4.9234      5.4860    
  6.2398      7.2237      8.4847      10.066      11.979      14.169      16.491      18.715      20.570      21.802    
  22.236      21.806      20.575      18.718      16.490      14.166      8.7625      7.6747      6.7713      6.0422    
  5.4696      5.0364      4.7261      4.5200      4.3978      4.3413      4.3409      4.3977      4.5219      4.7297    
  5.0392      5.4694      6.0388      6.7667      7.6715      8.7624      10.024      11.400      12.784      14.029    
  14.977      15.492      15.493      14.980      14.030      12.781      11.396      10.021      6.9363      6.3468    
  5.8665      5.4935      5.2208      5.0365      4.9233      4.8610      4.8310      4.8214      4.8290      4.8589    
  4.9234      5.0392      5.2248      5.4962      5.8661      6.3435      6.9320      7.6248      8.3970      9.2000    
  9.9622      10.597      11.020      11.169      11.019      10.594      9.9581      9.1970      8.3968      7.6276    
  5.9807      5.7401      5.5793      5.4935      5.4699      5.4892      5.5288      5.5679      5.5911      5.5902    
  5.5654      5.5251      5.4860      5.4694      5.4962      5.5834      5.7429      5.9804      6.2940      6.6717    
  7.0890      7.5099      7.8886      8.1761      8.3305      8.3285      8.1717      7.8852      7.5099      7.0923    
  6.6762      6.2974      5.6794      5.7402      5.8663      6.0421      6.2443      6.4447      6.6147      6.7294    
  6.7706      6.7305      6.6147      6.4418      6.2398      6.0388      5.8661      5.7429      5.6830      5.6921    
  5.7673      5.8967      6.0610      6.2340      6.3861      6.4895      6.5254      6.4884      6.3860      6.2367    
  6.0654      5.9001      5.7678      5.6898      5.9811      6.3470      6.7712      7.2267      7.6764      8.0757    
  8.3779      8.5424      8.5444      8.3822      8.0791      7.6766      7.2237      6.7667      6.3435      5.9804    
  5.6921      5.4834      5.3507      5.2843      5.2683      5.2825      5.3062      5.3227      5.3236      5.3087    
  5.2863      5.2713      5.2846      5.3478      5.4793      5.6896      6.9365      7.6746      8.4847      9.3182    
  10.104      10.757      11.191      11.344      11.193      10.760      10.108      9.3212      8.4847      7.6715    
  6.9320      6.2940      5.7673      5.3507      5.0377      4.8170      4.6733      4.5887      4.5467      4.5351    
  4.5487      4.5909      4.6734      4.8144      5.0337      5.3479      5.7673      6.2972      8.7622      10.063    
  11.471      12.881      14.144      15.102      15.619      15.617      15.099      14.143      12.883      11.475    
  10.066      8.7624      7.6248      6.6717      5.8967      5.2843      4.8170      4.4771      4.2466      4.1071    
  4.0427      4.0430      4.1071      4.2446      4.4736      4.8143      5.2848      5.9002      6.6761      7.6277    
  11.974      14.198      16.544      18.783      20.643      21.873      22.302      21.869      20.637      18.780    
  16.545      14.201      11.979      10.024      8.3970      7.0890      6.0610      5.2683      4.6733      4.2466    
  3.9642      3.8054      3.7543      3.8045      3.9624      4.2448      4.6733      5.2713      6.0655      7.0923    
  8.3971      10.021      17.462      21.092      24.716      27.976      30.517      31.925      31.924      30.516    
  27.974      24.713      21.090      17.462      14.169      11.400      9.2000      7.5099      6.2340      5.2825    
  4.5887      4.1071      3.8054      3.6606      3.6601      3.8046      4.1073      4.5909      5.2861      6.2368    
  7.5098      9.1968      11.396      14.166      26.292      31.986      37.860      43.114      46.780      48.098    
  46.783      43.119      37.862      31.984      26.289      21.071      16.491      12.784      9.9622      7.8886    
  6.3861      5.3062      4.5467      4.0427      3.7543      3.6601      3.7542      4.0435      4.5488      5.3082    
  6.3860      7.8858      9.9579      12.781      16.490      21.073      40.927      50.956      60.685      68.420    
  72.703      72.704      68.424      60.689      50.958      40.927      31.984      24.690      18.715      14.029    
  10.597      8.1761      6.4895      5.3227      4.5351      4.0430      3.8045      3.8046      4.0435      4.5359    
  5.3227      6.4875      8.1725      10.595      14.029      18.718      24.693      31.987      66.437      82.252    
  95.934      105.19      108.47      105.19      95.931      82.251      66.438      50.980      37.878      27.957    
  20.570      14.977      11.020      8.3305      6.5254      5.3236      4.5487      4.1071      3.9624      4.1073    
  4.5488      5.3227      6.5235      8.3286      11.020      14.980      20.574      27.959      37.878      50.978    
  105.26      126.42      142.62      151.39      151.39      142.61      126.41      105.26      82.291      60.745    
  43.158      30.509      21.802      15.492      11.169      8.3285      6.4883      5.3087      4.5909      4.2446    
  4.2448      4.5909      5.3082      6.4875      8.3286      11.171      15.495      21.804      30.509      43.155    
  60.742      82.291      156.05      180.88      197.47      203.31      197.47      180.87      156.04      126.46    
  96.015      68.513      46.842      31.926      22.236      15.493      11.019      8.1717      6.3860      5.2863    
  4.6734      4.4736      4.6733      5.2861      6.3860      8.1725      11.020      15.495      22.236      31.923    
  46.838      68.511      96.016      126.46      215.61      242.34      257.03      257.03      242.35      215.61    
  180.92      142.70      105.31      72.813      48.164      31.926      21.806      14.980      10.594      7.8852    
  6.2367      5.2713      4.8144      4.8143      5.2713      6.2368      7.8858      10.595      14.980      21.804    
  31.923      48.162      72.815      105.31      142.71      180.92      281.08      307.86      317.51      307.87    
  281.09      242.39      197.55      151.51      108.60      72.811      46.838      30.511      20.575      14.030    
  9.9581      7.5099      6.0654      5.2846      5.0337      5.2848      6.0655      7.5098      9.9579      14.029    
  20.574      30.509      46.838      72.815      108.60      151.52      197.55      242.38      349.09      372.60    
  372.61      349.09      307.90      257.09      203.41      151.51      105.31      68.508      43.153      27.959    
  18.718      12.781      9.1970      7.0923      5.9001      5.3478      5.3479      5.9002      7.0923      9.1968    
  12.781      18.718      27.959      43.155      68.511      105.31      151.52      203.41      257.09      307.89    
  412.49      427.20      412.48      372.62      317.55      257.09      197.56      142.71      96.018      60.741    
  37.876      24.693      16.490      11.396      8.3968      6.6762      5.7678      5.4793      5.7673      6.6761    
  8.3971      11.396      16.490      24.693      37.878      60.742      96.016      142.71      197.55      257.09    
  317.56      372.63      459.15      459.14      427.20      372.62      307.89      242.39      180.93      126.47    
  82.293      50.978      31.985      21.073      14.166      10.021      7.6276      6.2974      5.6898      5.6896    
  6.2972      7.6277      10.021      14.166      21.073      31.987      50.978      82.291      126.46      180.92    
  242.38      307.89      372.63      427.21      457.51      441.19      397.20      337.07      272.00      208.81    
  151.03      101.77      64.277      39.770      25.698      17.110      11.774      8.6441      6.8587      5.9214    
  5.6253      5.9218      6.8589      8.6438      11.774      17.110      25.698      39.770      64.277      101.77    
  151.03      208.81      272.00      337.07      397.20      441.19      441.19      411.10      359.44      297.70    
  234.67      175.13      122.27      79.524      49.395      31.192      20.642      13.938      9.9141      7.5834    
  6.2829      5.6870      5.6872      6.2831      7.5833      9.9139      13.938      20.642      31.191      49.394    
  79.526      122.28      175.13      234.68      297.70      359.43      411.09      441.18      397.20      359.44    
  306.94      248.84      191.23      137.99      92.746      58.745      36.833      24.173      16.222      11.287    
  8.3768      6.7014      5.8138      5.5315      5.8136      6.7012      8.3769      11.287      16.222      24.172    
  36.831      58.744      92.748      137.99      191.24      248.85      306.94      359.43      397.20      411.10    
  337.07      297.70      248.84      196.90      146.52      101.71      66.193      41.873      27.332      18.400    
  12.660      9.1921      7.1496      5.9891      5.4503      5.4503      5.9890      7.1496      9.1924      12.661    
  18.400      27.331      41.872      66.190      101.71      146.52      196.90      248.85      297.71      337.08    
  359.45      359.45      272.00      234.67      191.23      146.52      104.88      70.321      45.389      29.780    
  20.208      13.891      9.9606      7.5921      6.1901      5.4301      5.1856      5.4304      6.1902      7.5917    
  9.9604      13.892      20.210      29.782      45.389      70.317      104.88      146.51      191.23      234.68    
  272.01      297.74      306.98      297.73      208.81      175.13      137.99      101.71      70.321      46.652    
  31.133      21.406      14.824      10.598      7.9844      6.3892      5.4523      5.0079      5.0079      5.4523    
  6.3891      7.9839      10.598      14.824      21.408      31.136      46.654      70.319      101.71      137.99    
  175.13      208.82      234.72      248.91      248.91      234.72      151.03      122.27      92.746      66.193    
  45.389      31.133      21.825      15.328      11.023      8.2811      6.5574      5.4937      4.9001      4.7062    
  4.8998      5.4938      6.5576      8.2805      11.021      15.327      21.825      31.136      45.393      66.194    
  92.745      122.27      151.03      175.18      191.31      197.00      191.32      175.18      101.77      79.524    
  58.745      41.873      29.780      21.406      15.328      11.173      8.4420      6.6703      5.5334      4.8410    
  4.5066      4.5065      4.8410      5.5340      6.6712      8.4419      11.171      15.325      21.404      29.781    
  41.876      58.748      79.525      101.77      122.32      138.07      146.62      146.63      138.08      122.32    
  64.277      49.395      36.833      27.332      20.208      14.824      11.023      8.4420      6.7103      5.5571    
  4.8130      4.3884      4.2490      4.3883      4.8130      5.5577      6.7120      8.4438      11.023      14.821    
  20.205      27.329      36.833      49.396      64.277      79.561      92.822      101.82      105.00      101.82    
  92.824      79.563      39.770      31.192      24.173      18.400      13.891      10.598      8.2811      6.6703    
  5.5571      4.8049      4.3342      4.1059      4.1058      4.3338      4.8041      5.5570      6.6723      8.2847    
  10.601      13.891      18.397      24.169      31.189      39.770      49.414      58.796      66.272      70.415    
  70.413      66.267      58.792      49.411      25.698      20.642      16.222      12.660      9.9606      7.9844    
  6.5574      5.5334      4.8130      4.3342      4.0603      3.9714      4.0605      4.3334      4.8110      5.5316    
  6.5576      7.9873      9.9647      12.663      16.222      20.640      25.694      31.185      36.842      41.904    
  45.438      46.706      45.434      41.900      36.840      31.187      17.110      13.938      11.287      9.1921    
  7.5921      6.3892      5.4937      4.8410      4.3884      4.1059      3.9714      3.9719      4.1067      4.3882    
  4.8390      5.4902      6.3862      7.5920      9.1954      11.292      13.942      17.110      20.618      24.139    
  27.302      29.762      31.123      31.123      29.763      27.305      24.142      20.620      11.774      9.9141    
  8.3768      7.1496      6.1901      5.4523      4.9001      4.5066      4.2490      4.1058      4.0605      4.1067    
  4.2508      4.5083      4.8999      5.4492      6.1857      7.1466      8.3769      9.9171      11.778      13.906    
  16.162      18.323      20.126      21.324      21.746      21.328      20.131      18.326      16.162      13.903    
  8.6441      7.5834      6.7014      5.9891      5.4301      5.0079      4.7062      4.5065      4.3883      4.3338    
  4.3334      4.3882      4.5083      4.7097      5.0106      5.4299      5.9857      6.6968      7.5801      8.6440    
  9.8729      11.211      12.556      13.765      14.686      15.185      15.187      14.688      13.766      12.553    
  11.207      9.8697      6.8587      6.2829      5.8138      5.4503      5.1856      5.0079      4.8998      4.8410    
  4.8130      4.8041      4.8110      4.8390      4.8999      5.0106      5.1896      5.4530      5.8134      6.2795    
  6.8544      7.5306      8.2834      9.0653      9.8067      10.424      10.835      10.979      10.833      10.421    
  9.8026      9.0623      8.2831      7.5334      5.9214      5.6870      5.5315      5.4503      5.4304      5.4523    
  5.4938      5.5340      5.5577      5.5570      5.5316      5.4902      5.4492      5.4299      5.4530      5.5357    
  5.6899      5.9211      6.2271      6.5956      7.0027      7.4128      7.7814      8.0612      8.2114      8.2095    
  8.0569      7.7781      7.4128      7.0059      6.6002      6.2305      5.6253      5.6872      5.8136      5.9890    
  6.1902      6.3891      6.5576      6.6712      6.7120      6.6723      6.5576      6.3862      6.1857      5.9857    
  5.8134      5.6899      5.6289      5.6361      5.7083      5.8338      5.9936      6.1619      6.3098      6.4104    
  6.4454      6.4093      6.3097      6.1645      5.9979      5.8373      5.7088      5.6337      5.9218      6.2831    
  6.7012      7.1496      7.5917      7.9839      8.2805      8.4419      8.4438      8.2847      7.9873      7.5920    
  7.1466      6.6968      6.2795      5.9211      5.6361      5.4293      5.2975      5.2309      5.2139      5.2269    
  5.2494      5.2653      5.2661      5.2519      5.2306      5.2169      5.2311      5.2946      5.4252      5.6335    
  6.8589      7.5833      8.3769      9.1924      9.9604      10.598      11.021      11.171      11.023      10.601    
  9.9647      9.1954      8.3769      7.5801      6.8544      6.2271      5.7083      5.2975      4.9884      4.7702    
  4.6280      4.5443      4.5025      4.4909      4.5045      4.5463      4.6281      4.7677      4.9845      5.2946    
  5.7083      6.2303      8.6438      9.9139      11.287      12.661      13.892      14.824      15.327      15.325    
  14.821      13.891      12.663      11.292      9.9171      8.6440      7.5306      6.5956      5.8338      5.2309    
  4.7702      4.4351      4.2077      4.0701      4.0066      4.0069      4.0701      4.2058      4.4316      4.7676    
  5.2313      5.8374      6.6001      7.5335      11.774      13.938      16.222      18.400      20.210      21.408    
  21.825      21.404      20.205      18.397      16.222      13.942      11.778      9.8729      8.2834      7.0027    
  5.9936      5.2139      4.6280      4.2077      3.9295      3.7731      3.7228      3.7723      3.9278      4.2059    
  4.6281      5.2168      5.9980      7.0059      8.2835      9.8699      17.110      20.642      24.172      27.331    
  29.782      31.136      31.136      29.781      27.329      24.169      20.640      17.110      13.906      11.211    
  9.0653      7.4128      6.1619      5.2269      4.5443      4.0701      3.7731      3.6306      3.6302      3.7723    
  4.0703      4.5464      5.2304      6.1646      7.4127      9.0620      11.207      13.903      25.698      31.191    
  36.831      41.872      45.389      46.654      45.393      41.876      36.833      31.189      25.694      20.618    
  16.162      12.556      9.8067      7.7814      6.3098      5.2494      4.5025      4.0066      3.7228      3.6302    
  3.7227      4.0073      4.5045      5.2514      6.3098      7.7786      9.8024      12.552      16.161      20.620    
  39.770      49.394      58.744      66.190      70.317      70.319      66.194      58.748      49.396      39.770    
  31.185      24.139      18.323      13.765      10.424      8.0612      6.4104      5.2653      4.4909      4.0069    
  3.7723      3.7723      4.0073      4.4917      5.2653      6.4085      8.0577      10.421      13.765      18.326    
  24.142      31.188      64.277      79.526      92.748      101.71      104.88      101.71      92.745      79.525    
  64.277      49.414      36.842      27.302      20.126      14.686      10.835      8.2114      6.4454      5.2661    
  4.5045      4.0701      3.9278      4.0703      4.5045      5.2653      6.4436      8.2096      10.835      14.688    
  20.129      27.305      36.842      49.412      101.77      122.28      137.99      146.52      146.51      137.99    
  122.27      101.77      79.561      58.796      41.904      29.762      21.324      15.185      10.979      8.2095    
  6.4093      5.2519      4.5463      4.2058      4.2059      4.5464      5.2514      6.4085      8.2096      10.981    
  15.188      21.326      29.761      41.901      58.793      79.561      151.03      175.13      191.24      196.90    
  191.23      175.13      151.03      122.32      92.822      66.272      45.438      31.123      21.746      15.187    
  10.833      8.0569      6.3097      5.2306      4.6281      4.4316      4.6281      5.2304      6.3097      8.0577    
  10.835      15.188      21.745      31.121      45.434      66.270      92.822      122.32      208.81      234.68    
  248.85      248.85      234.68      208.82      175.18      138.07      101.82      70.415      46.706      31.123    
  21.328      14.688      10.421      7.7781      6.1645      5.2169      4.7677      4.7676      5.2168      6.1646    
  7.7786      10.421      14.688      21.326      31.121      46.705      70.417      101.82      138.08      175.18    
  272.00      297.70      306.94      297.71      272.01      234.72      191.31      146.62      105.00      70.413    
  45.434      29.763      20.131      13.766      9.8026      7.4128      5.9979      5.2311      4.9845      5.2313    
  5.9980      7.4127      9.8024      13.765      20.129      29.761      45.434      70.417      105.00      146.63    
  191.31      234.71      337.07      359.43      359.43      337.08      297.74      248.91      197.00      146.63    
  101.82      66.267      41.900      27.305      18.326      12.553      9.0623      7.0059      5.8373      5.2946    
  5.2946      5.8374      7.0059      9.0620      12.552      18.326      27.305      41.901      66.270      101.82    
  146.63      197.00      248.91      297.73      397.20      411.09      397.20      359.45      306.98      248.91    
  191.32      138.08      92.824      58.792      36.840      24.142      16.162      11.207      8.2831      6.6002    
  5.7088      5.4251      5.7083      6.6001      8.2835      11.207      16.161      24.142      36.842      58.793    
  92.822      138.08      191.31      248.91      306.98      359.45      441.19      441.18      411.10      359.45    
  297.73      234.72      175.18      122.32      79.563      49.411      31.187      20.620      13.903      9.8697    
  7.5334      6.2305      5.6337      5.6335      6.2302      7.5335      9.8699      13.903      20.620      31.188    
  49.412      79.561      122.32      175.18      234.71      297.73      359.45      411.10      406.94      393.26    
  356.04      304.22      246.75      189.66      136.84      91.963      58.271      36.576      24.021      16.113    
  11.204      8.3059      6.6358      5.7506      5.4693      5.7509      6.6359      8.3056      11.204      16.113    
  24.021      36.576      58.271      91.963      136.84      189.66      246.75      304.22      356.04      393.26    
  393.26      367.85      323.63      269.63      213.15      158.89      110.58      71.906      45.075      28.984    
  19.367      13.203      9.4907      7.3214      6.0984      5.5337      5.5339      6.0986      7.3212      9.4905    
  13.203      19.366      28.983      45.075      71.908      110.59      158.89      213.15      269.63      323.62    
  367.85      393.25      356.04      323.63      277.79      225.96      173.61      124.92      83.809      53.361    
  33.992      22.627      15.307      10.766      8.0677      6.4988      5.6601      5.3920      5.6599      6.4986    
  8.0678      10.766      15.307      22.626      33.991      53.360      83.811      124.93      173.62      225.96    
  277.79      323.62      356.03      367.85      304.22      269.63      225.96      178.79      132.72      91.918    
  59.989      38.444      25.525      17.313      12.037      8.8311      6.9253      5.8321      5.3211      5.3211    
  5.8320      6.9253      8.8313      12.037      17.314      25.524      38.442      59.987      91.915      132.72    
  178.79      225.96      269.63      304.22      323.64      323.64      246.75      213.15      173.61      132.72    
  94.792      63.675      41.548      27.733      18.980      13.173      9.5480      7.3444      6.0273      5.3081    
  5.0759      5.3084      6.0274      7.3441      9.5478      13.174      18.982      27.735      41.547      63.671    
  94.786      132.71      173.61      213.16      246.76      269.66      277.83      269.65      189.66      158.89    
  124.92      91.918      63.675      42.664      28.945      20.085      14.033      10.141      7.7147      6.2195    
  5.3346      4.9130      4.9131      5.3347      6.2195      7.7143      10.141      14.034      20.087      28.947    
  42.665      63.673      91.914      124.92      158.89      189.66      213.19      226.01      226.01      213.19    
  136.84      110.58      83.809      59.989      41.548      28.945      20.472      14.498      10.536      7.9941    
  6.3813      5.3782      4.8157      4.6318      4.8155      5.3782      6.3816      7.9936      10.534      14.497    
  20.472      28.947      41.551      59.991      83.809      110.58      136.83      158.93      173.68      178.87    
  173.69      158.93      91.963      71.906      53.361      38.444      27.733      20.085      14.498      10.675    
  8.1453      6.4898      5.4188      4.7635      4.4465      4.4463      4.7634      5.4193      6.4905      8.1453    
  10.673      14.496      20.083      27.734      38.447      53.364      71.907      91.959      110.62      124.99    
  132.80      132.81      125.00      110.63      58.271      45.075      33.992      25.525      18.980      14.033    
  10.536      8.1453      6.5280      5.4427      4.7391      4.3371      4.2052      4.3370      4.7391      5.4433    
  6.5295      8.1470      10.536      14.031      18.977      25.522      33.992      45.077      58.272      71.931    
  83.863      91.992      94.874      91.994      83.865      71.932      36.576      28.984      22.627      17.313    
  13.173      10.141      7.9941      6.4898      5.4427      4.7322      4.2871      4.0714      4.0714      4.2868    
  4.7315      5.4427      6.4915      7.9974      10.144      13.173      17.310      22.623      28.981      36.575    
  45.083      53.389      60.037      63.732      63.730      60.032      53.384      45.080      24.021      19.367    
  15.307      12.037      9.5480      7.7147      6.3813      5.4188      4.7391      4.2871      4.0288      3.9450    
  4.0289      4.2864      4.7374      5.4171      6.3815      7.7174      9.5519      12.040      15.307      19.364    
  24.017      28.967      33.979      38.443      41.558      42.677      41.555      38.439      33.977      28.968    
  16.113      13.203      10.766      8.8311      7.3444      6.2195      5.3782      4.7635      4.3371      4.0714    
  3.9450      3.9454      4.0720      4.3370      4.7616      5.3749      6.2168      7.3443      8.8343      10.770    
  13.206      16.113      19.333      22.574      25.466      27.679      28.894      28.894      27.680      25.469    
  22.577      19.335      11.204      9.4907      8.0677      6.9253      6.0273      5.3346      4.8157      4.4465    
  4.2052      4.0714      4.0289      4.0720      4.2067      4.4480      4.8156      5.3318      6.0231      6.9223    