Tl                                      
   1.00000000000000     
     3.592550    0.000000    0.000000
     1.796275    3.111240    0.000000
     0.000000    0.000000    5.641950
   Tl
     2
Direct
  0.000000  0.000000  0.000000
  0.333333  0.333333  0.500000
 
   32   32   48
 0.47651009676E+03 0.45914533143E+03 0.41248657188E+03 0.34909140821E+03 0.28107720929E+03
 0.21560759962E+03 0.15604814569E+03 0.10526309604E+03 0.66437676738E+02 0.40927213366E+02
 0.26291477306E+02 0.17461901990E+02 0.11974532037E+02 0.87624930457E+01 0.69363151426E+01
 0.59807259210E+01 0.56794036209E+01 0.59810778615E+01 0.69364510325E+01 0.87621885666E+01
 0.11974267141E+02 0.17462089821E+02 0.26291796735E+02 0.40927121643E+02 0.66437294243E+02
 0.10526305154E+03 0.15604860833E+03 0.21560800199E+03 0.28107707513E+03 0.34909099428E+03
 0.41248639276E+03 0.45914540662E+03 0.45914533153E+03 0.42720331044E+03 0.37261046705E+03
 0.30786419463E+03 0.24234193755E+03 0.18086950096E+03 0.12641340391E+03 0.82250397738E+02
 0.50956774967E+02 0.31986739330E+02 0.21091923812E+02 0.14197984616E+02 0.10062762370E+02
 0.76747153745E+01 0.63468121453E+01 0.57400652075E+01 0.57402339712E+01 0.63470045856E+01
 0.76745759352E+01 0.10062536299E+02 0.14197922876E+02 0.21091518556E+02 0.31985567238E+02
 0.50956046659E+02 0.82252431737E+02 0.12641878630E+03 0.18087539251E+03 0.24234415513E+03
 0.30786101429E+03 0.37260398953E+03 0.42719742257E+03 0.45914302910E+03 0.41248657235E+03
 0.37261046739E+03 0.31751723421E+03 0.25702479313E+03 0.19746652701E+03 0.14261263479E+03
 0.95931386867E+02 0.60685664062E+02 0.37861635245E+02 0.24716992150E+02 0.16544554128E+02
 0.11470539947E+02 0.84845319984E+01 0.67713188972E+01 0.58664952298E+01 0.55792531817E+01
 0.58662824987E+01 0.67711593837E+01 0.84847196866E+01 0.11470949612E+02 0.16544471718E+02
 0.24715792689E+02 0.37859871439E+02 0.60685150925E+02 0.95933634442E+02 0.14261701589E+03
 0.19747027895E+03 0.25702514599E+03 0.31751368963E+03 0.37260518798E+03 0.41248280471E+03
 0.42720336830E+03 0.34909140893E+03 0.30786419512E+03 0.25702479321E+03 0.20331372404E+03
 0.15139621090E+03 0.10519748235E+03 0.68422608764E+02 0.43115686176E+02 0.27976077770E+02
 0.18782625256E+02 0.12879938689E+02 0.93180142715E+01 0.72266934799E+01 0.60421863516E+01
 0.54934916276E+01 0.54934754581E+01 0.60421262137E+01 0.72266635060E+01 0.93182475282E+01
 0.12880551961E+02 0.18783244956E+02 0.27975933986E+02 0.43114245424E+02 0.68420131299E+02
 0.10519494363E+03 0.15139471573E+03 0.20331394006E+03 0.25702668624E+03 0.30786701684E+03
 0.34909392093E+03 0.37262130814E+03 0.37262030354E+03 0.28107720961E+03 0.24234193743E+03
 0.19746652641E+03 0.15139621024E+03 0.10847261097E+03 0.72706638599E+02 0.46780369563E+02
 0.30515391386E+02 0.20640860971E+02 0.14143406866E+02 0.10104354201E+02 0.76767189360E+01
 0.62442374364E+01 0.54696199126E+01 0.52207767736E+01 0.54699197425E+01 0.62443284601E+01
 0.76763759240E+01 0.10104179559E+02 0.14144307826E+02 0.20642870668E+02 0.30517082920E+02
 0.46779664137E+02 0.72702545177E+02 0.10846652894E+03 0.15139158606E+03 0.19746676254E+03
 0.24234782647E+03 0.28108583692E+03 0.30789620317E+03 0.31755307474E+03 0.30788993003E+03
 0.21560759845E+03 0.18086949919E+03 0.14261263261E+03 0.10519748034E+03 0.72706637443E+02
 0.48096406316E+02 0.31921894433E+02 0.21870989815E+02 0.15101954668E+02 0.10757469442E+02
 0.80762526513E+01 0.64448062246E+01 0.54891021461E+01 0.50364333597E+01 0.50364675736E+01
 0.54891831335E+01 0.64447203159E+01 0.80756757970E+01 0.10756680982E+02 0.15102150561E+02
 0.21873089781E+02 0.31924892515E+02 0.48097649181E+02 0.72704382413E+02 0.10519301589E+03
 0.14260938990E+03 0.18086999369E+03 0.21561136430E+03 0.24238969851E+03 0.25709208346E+03
 0.25709027797E+03 0.24238545945E+03 0.15604814204E+03 0.12641339976E+03 0.95931382721E+02
 0.68422605316E+02 0.46780367345E+02 0.31921893521E+02 0.22301238521E+02 0.15620311113E+02
 0.11192901668E+02 0.83785292816E+01 0.66144958069E+01 0.55287098119E+01 0.49236018829E+01
 0.47260962151E+01 0.49233369651E+01 0.55287681663E+01 0.66147453937E+01 0.83778954285E+01
 0.11191001797E+02 0.15618576769E+02 0.22301580067E+02 0.31924495263E+02 0.46783479384E+02
 0.68424337128E+02 0.95930959329E+02 0.12641076956E+03 0.15604352969E+03 0.18091992256E+03
 0.19755276552E+03 0.20341321590E+03 0.19755659723E+03 0.18092536129E+03 0.10526308970E+03
 0.82250391432E+02 0.60685658478E+02 0.43115681943E+02 0.30515388774E+02 0.21870988626E+02
 0.15620310816E+02 0.11346192057E+02 0.85424971494E+01 0.67284962261E+01 0.55672608628E+01
 0.48610934359E+01 0.45201957814E+01 0.45200345505E+01 0.48610207294E+01 0.55678528867E+01
 0.67294010792E+01 0.85424222999E+01 0.11344212385E+02 0.15617125917E+02 0.21868706308E+02
 0.30515871703E+02 0.43118834866E+02 0.60689070323E+02 0.82250729708E+02 0.10525843460E+03
 0.12646091547E+03 0.14270346346E+03 0.15151099988E+03 0.15151436857E+03 0.14271161814E+03
 0.12646935205E+03 0.66437668675E+02 0.50956767714E+02 0.37861629472E+02 0.27976073847E+02
 0.20640858835E+02 0.15101953875E+02 0.11192901609E+02 0.85424972889E+01 0.67688212512E+01
 0.55903393499E+01 0.48310068528E+01 0.43978724165E+01 0.42557071032E+01 0.43977505218E+01
 0.48310090909E+01 0.55910590684E+01 0.67705777524E+01 0.85443535267E+01 0.11192991206E+02
 0.15099438253E+02 0.20637256802E+02 0.27973941052E+02 0.37861886731E+02 0.50957871686E+02
 0.66437510371E+02 0.82291017672E+02 0.96015257891E+02 0.10531039963E+03 0.10859595435E+03
 0.10531203292E+03 0.96017766654E+02 0.82292944277E+02 0.40927205311E+02 0.31986732793E+02
 0.24716987558E+02 0.18782622636E+02 0.14143405852E+02 0.10757469451E+02 0.83785297367E+01
 0.67284967043E+01 0.55903396237E+01 0.48222501505E+01 0.43417403289E+01 0.41085592392E+01
 0.41085096391E+01 0.43413062229E+01 0.48214027021E+01 0.55902466306E+01 0.67305071036E+01
 0.83821827432E+01 0.10760377128E+02 0.14143482202E+02 0.18779969701E+02 0.24713407912E+02
 0.31984061746E+02 0.40926583611E+02 0.50979726008E+02 0.60744848912E+02 0.68512959617E+02
 0.72812841517E+02 0.72810892538E+02 0.68508466806E+02 0.60740605933E+02 0.50977723014E+02
 0.26291470996E+02 0.21091919357E+02 0.16544551615E+02 0.12879937834E+02 0.10104354485E+02
 0.80762535113E+01 0.66144967884E+01 0.55672616848E+01 0.48310073950E+01 0.43417405792E+01
 0.40617349660E+01 0.39707397627E+01 0.40618310185E+01 0.43409468972E+01 0.48289917545E+01
 0.55653661716E+01 0.66146749639E+01 0.80791164445E+01 0.10108489824E+02 0.12883020253E+02
 0.16544985344E+02 0.21089795641E+02 0.26288555977E+02 0.31984208870E+02 0.37877927151E+02
 0.43157729842E+02 0.46841724558E+02 0.48163515473E+02 0.46838212819E+02 0.43153444736E+02
 0.37875918586E+02 0.31985418809E+02 0.17461898462E+02 0.14197982797E+02 0.11470539634E+02
 0.93180150393E+01 0.76767202873E+01 0.64448077265E+01 0.55287111709E+01 0.48610945046E+01
 0.43978731580E+01 0.41085596790E+01 0.39707399523E+01 0.39712186332E+01 0.41093996431E+01
 0.43977134357E+01 0.48589384647E+01 0.55250848391E+01 0.64418345231E+01 0.76766382496E+01
 0.93212483510E+01 0.11475190063E+02 0.14201323845E+02 0.17462427691E+02 0.21070790023E+02
 0.24689882313E+02 0.27956881503E+02 0.30509382815E+02 0.31925503802E+02 0.31925912705E+02
 0.30510683800E+02 0.27959102825E+02 0.24692540272E+02 0.21072613576E+02 0.11974531316E+02
 0.10062762863E+02 0.84845333811E+01 0.72266953515E+01 0.62442394282E+01 0.54891039907E+01
 0.49236034309E+01 0.45201969804E+01 0.42557079623E+01 0.41085101978E+01 0.40618313283E+01
 0.41093997633E+01 0.42575160984E+01 0.45219439877E+01 0.49233939388E+01 0.54860251697E+01
 0.62397885539E+01 0.72236964986E+01 0.84847217478E+01 0.10065718441E+02 0.11978518230E+02
 0.14168659550E+02 0.16490780544E+02 0.18715131387E+02 0.20569819506E+02 0.21802312266E+02
 0.22235957383E+02 0.21806454187E+02 0.20575110017E+02 0.18718241758E+02 0.16490409357E+02
 0.14165609832E+02 0.87624944052E+01 0.76747173716E+01 0.67713212307E+01 0.60421887381E+01
 0.54696221381E+01 0.50364352943E+01 0.47260978010E+01 0.45200357795E+01 0.43977514154E+01
 0.43413068195E+01 0.43409472457E+01 0.43977135940E+01 0.45219440254E+01 0.47296671135E+01
 0.50392471188E+01 0.54693945186E+01 0.60388094361E+01 0.67667397679E+01 0.76714745457E+01
 0.87623794902E+01 0.10024288923E+02 0.11400308819E+02 0.12784024063E+02 0.14029300829E+02
 0.14977190315E+02 0.15491665066E+02 0.15493162585E+02 0.14979942748E+02 0.14029993696E+02
 0.12781254103E+02 0.11395819765E+02 0.10021138657E+02 0.69363176313E+01 0.63468148102E+01
 0.58664978686E+01 0.54934940885E+01 0.52207789597E+01 0.50364694316E+01 0.49233384722E+01
 0.48610218860E+01 0.48310099178E+01 0.48214032364E+01 0.48289920444E+01 0.48589385670E+01
 0.49233939214E+01 0.50392470642E+01 0.52247512571E+01 0.54961531733E+01 0.58660997989E+01
 0.63435115596E+01 0.69320406935E+01 0.76248410582E+01 0.83970159881E+01 0.92000347683E+01
 0.99622221058E+01 0.10597284812E+02 0.11020421926E+02 0.11168644763E+02 0.11018568520E+02
 0.10593827806E+02 0.99581252586E+01 0.91970377685E+01 0.83967524394E+01 0.76276020108E+01
 0.59807287732E+01 0.57400679629E+01 0.55792557362E+01 0.54934777451E+01 0.54699217187E+01
 0.54891847698E+01 0.55287694495E+01 0.55678538252E+01 0.55910596917E+01 0.55902469813E+01
 0.55653662966E+01 0.55250847895E+01 0.54860250076E+01 0.54693943231E+01 0.54961530346E+01
 0.55833781554E+01 0.57428594121E+01 0.59803917398E+01 0.62940461487E+01 0.66716631532E+01
 0.70890478371E+01 0.75099450695E+01 0.78885932206E+01 0.81760531104E+01 0.83305140254E+01
 0.83285225488E+01 0.81716678476E+01 0.78851818505E+01 0.75099098330E+01 0.70923129035E+01
 0.66762145649E+01 0.62973736695E+01 0.56794064013E+01 0.57402365195E+01 0.58662847572E+01
 0.60421281405E+01 0.62443300247E+01 0.64447215064E+01 0.66147462258E+01 0.67294015949E+01
 0.67705780059E+01 0.67305071436E+01 0.66146748277E+01 0.64418342458E+01 0.62397881842E+01
 0.60388090445E+01 0.58660994692E+01 0.57428592217E+01 0.56829849244E+01 0.56921492985E+01
 0.57672682996E+01 0.58967129651E+01 0.60610040271E+01 0.62340377539E+01 0.63860873844E+01
 0.64894955486E+01 0.65254409656E+01 0.64883502818E+01 0.63860289280E+01 0.62367260739E+01
 0.60654285031E+01 0.59001494880E+01 0.57677711443E+01 0.56898032458E+01 0.59810803303E+01
 0.63470067013E+01 0.67711610867E+01 0.72266647605E+01 0.76763767306E+01 0.80756762019E+01
 0.83778955168E+01 0.85424221694E+01 0.85443532561E+01 0.83821823752E+01 0.80791159914E+01
 0.76766377178E+01 0.72236959125E+01 0.67667391790E+01 0.63435110370E+01 0.59803913507E+01
 0.56921490918E+01 0.54833935051E+01 0.53507401792E+01 0.52842996088E+01 0.52682947371E+01
 0.52825241146E+01 0.53061534624E+01 0.53227131953E+01 0.53235730030E+01 0.53087400734E+01
 0.52862528303E+01 0.52713434239E+01 0.52845736983E+01 0.53478346091E+01 0.54792666561E+01
 0.56896245332E+01 0.69364528735E+01 0.76745772149E+01 0.84847203549E+01 0.93182476060E+01
 0.10104179144E+02 0.10756680231E+02 0.11191000886E+02 0.11344211457E+02 0.11192990342E+02
 0.10760376339E+02 0.10108489080E+02 0.93212476156E+01 0.84847210080E+01 0.76714738211E+01
 0.69320400278E+01 0.62940455933E+01 0.57672678999E+01 0.53507399684E+01 0.50376936243E+01
 0.48169862092E+01 0.46732704411E+01 0.45887412305E+01 0.45466945287E+01 0.45350549127E+01
 0.45487078682E+01 0.45908759534E+01 0.46733596246E+01 0.48143735158E+01 0.50337454698E+01
 0.53478702874E+01 0.57673369195E+01 0.62971681360E+01 0.87621892182E+01 0.10062536106E+02
 0.11470948614E+02 0.12880550324E+02 0.14144305806E+02 0.15102148440E+02 0.15618574788E+02
 0.15617124222E+02 0.15099436885E+02 0.14143481114E+02 0.12883019356E+02 0.11475189266E+02
 0.10065717681E+02 0.87623787437E+01 0.76248403364E+01 0.66716624894E+01 0.58967124032E+01
 0.52842991943E+01 0.48169859837E+01 0.44771483459E+01 0.42465863113E+01 0.41071066580E+01
 0.40427078705E+01 0.40430442046E+01 0.41070811466E+01 0.42446133890E+01 0.44735953719E+01
 0.48143339437E+01 0.52847721203E+01 0.59002379260E+01 0.66761292501E+01 0.76277487751E+01
 0.11974265915E+02 0.14197920580E+02 0.16544468587E+02 0.18783241357E+02 0.20642867010E+02
 0.21873086422E+02 0.22301577244E+02 0.21868704114E+02 0.20637255205E+02 0.18779968580E+02
 0.16544984539E+02 0.14201323205E+02 0.11978517633E+02 0.10024288298E+02 0.83970153123E+01
 0.70890471302E+01 0.60610033372E+01 0.52682941271E+01 0.46732699768E+01 0.42465860533E+01
 0.39642229703E+01 0.38054053327E+01 0.37542844486E+01 0.38045237085E+01 0.39624049586E+01
 0.42447638125E+01 0.46733311564E+01 0.52712557610E+01 0.60655276669E+01 0.70923375432E+01
 0.83971334315E+01 0.10021383366E+02 0.17462086277E+02 0.21091513961E+02 0.24715787514E+02
 0.27975928762E+02 0.30517078119E+02 0.31924888462E+02 0.31924492113E+02 0.30515869462E+02
 0.27973939613E+02 0.24713407098E+02 0.21089795233E+02 0.17462427467E+02 0.14168659323E+02
 0.11400308464E+02 0.92000342367E+01 0.75099443765E+01 0.62340369615E+01 0.52825233102E+01
 0.45887405095E+01 0.41071061110E+01 0.38054050339E+01 0.36606046113E+01 0.36601270066E+01
 0.38045853283E+01 0.41073192324E+01 0.45909357728E+01 0.52860838132E+01 0.62368131750E+01
 0.75098199739E+01 0.91967820627E+01 0.11395903318E+02 0.14165669852E+02 0.26291791089E+02
 0.31985560905E+02 0.37859865069E+02 0.43114239576E+02 0.46779659183E+02 0.48097645293E+02
 0.46783476584E+02 0.43118833088E+02 0.37861885847E+02 0.31984061571E+02 0.26288556262E+02
 0.21070790476E+02 0.16490780891E+02 0.12784024118E+02 0.99622217986E+01 0.78885925775E+01
 0.63860864949E+01 0.53061524485E+01 0.45466935247E+01 0.40427070043E+01 0.37542838218E+01
 0.36601266810E+01 0.37541625649E+01 0.40434864313E+01 0.45487538622E+01 0.53081656386E+01
 0.63860386478E+01 0.78857540058E+01 0.99579234449E+01 0.12780656751E+02 0.16490150081E+02
 0.21072992849E+02 0.40927114915E+02 0.50956039923E+02 0.60685144828E+02 0.68420126220E+02
 0.72702541219E+02 0.72704379527E+02 0.68424335241E+02 0.60689069394E+02 0.50957871665E+02
 0.40926584360E+02 0.31984210117E+02 0.24689883682E+02 0.18715132490E+02 0.14029301405E+02
 0.10597284777E+02 0.81760525184E+01 0.64894945364E+01 0.53227119365E+01 0.45350535921E+01
 0.40430429935E+01 0.38045227368E+01 0.38045846683E+01 0.40434861055E+01 0.45358655764E+01
 0.53227459092E+01 0.64874913799E+01 0.81725396158E+01 0.10594592173E+02 0.14029346365E+02
 0.18717676378E+02 0.24693159667E+02 0.31986581668E+02 0.66437288004E+02 0.82252426261E+02
 0.95933630135E+02 0.10519494050E+03 0.10846652675E+03 0.10519301443E+03 0.95930958567E+02
 0.82250729775E+02 0.66437511386E+02 0.50979727901E+02 0.37877929593E+02 0.27956883985E+02
 0.20569821503E+02 0.14977191474E+02 0.11020422156E+02 0.83305134370E+01 0.65254397703E+01
 0.53235714485E+01 0.45487062000E+01 0.41070795776E+01 0.39624036401E+01 0.41073182448E+01
 0.45487532321E+01 0.53227456271E+01 0.65235473749E+01 0.83286208076E+01 0.11020360375E+02
 0.14979737900E+02 0.20573529760E+02 0.27959253579E+02 0.37877856134E+02 0.50978493554E+02
 0.10526304727E+03 0.12641878333E+03 0.14261701421E+03 0.15139471493E+03 0.15139158568E+03
 0.14260938973E+03 0.12641076979E+03 0.10525843562E+03 0.82291019809E+02 0.60744852114E+02
 0.43157733655E+02 0.30509386537E+02 0.21802315203E+02 0.15491666777E+02 0.11168645176E+02
 0.83285218632E+01 0.64883488187E+01 0.53087381746E+01 0.45908739256E+01 0.42446114729E+01
 0.42447621691E+01 0.45909344952E+01 0.53081647764E+01 0.64874909420E+01 0.83286207135E+01
 0.11170564589E+02 0.15494698409E+02 0.21804432264E+02 0.30508868650E+02 0.43154776532E+02
 0.60741805441E+02 0.82290974258E+02 0.15604860672E+03 0.18087539229E+03 0.19747027969E+03
 0.20331394108E+03 0.19746676336E+03 0.18086999433E+03 0.15604353063E+03 0.12646091738E+03
 0.96015261207E+02 0.68512964237E+02 0.46841729824E+02 0.31925508767E+02 0.22235961173E+02
 0.15493164696E+02 0.11018568949E+02 0.81716669266E+01 0.63860271166E+01 0.52862505678E+01
 0.46733572614E+01 0.44735931551E+01 0.46733292529E+01 0.52860823500E+01 0.63860377321E+01
 0.81725392976E+01 0.11020360558E+02 0.15494698768E+02 0.22235699294E+02 0.31923091802E+02
 0.46838453104E+02 0.68510787317E+02 0.96015557832E+02 0.12646397920E+03 0.21560800264E+03
 0.24234415684E+03 0.25702514809E+03 0.25702668803E+03 0.24234782769E+03 0.21561136524E+03
 0.18091992399E+03 0.14270346621E+03 0.10531040416E+03 0.72812847571E+02 0.48163522123E+02
 0.31925918735E+02 0.21806458566E+02 0.14979944979E+02 0.10593828020E+02 0.78851805571E+01
 0.62367238743E+01 0.52713408300E+01 0.48143708878E+01 0.48143315190E+01 0.52712537292E+01
 0.62368117388E+01 0.78857533650E+01 0.10594592421E+02 0.14979738889E+02 0.21804433545E+02
 0.31923092728E+02 0.48162421873E+02 0.72815027149E+02 0.10531453485E+03 0.14270634843E+03
 0.18091938928E+03 0.28107707691E+03 0.30786101662E+03 0.31751369183E+03 0.30786701843E+03
 0.28108583790E+03 0.24238969943E+03 0.19755276732E+03 0.15151100346E+03 0.10859596008E+03
 0.72810899908E+02 0.46838220592E+02 0.30510690513E+02 0.20575114557E+02 0.14029995680E+02
 0.99581250247E+01 0.75099080801E+01 0.60654259425E+01 0.52845708626E+01 0.50337426926E+01
 0.52847696331E+01 0.60655257237E+01 0.75098188978E+01 0.99579235367E+01 0.14029347713E+02
 0.20573532082E+02 0.30508871292E+02 0.46838455261E+02 0.72815028241E+02 0.10860269614E+03
 0.15151602594E+03 0.19755210782E+03 0.24238313376E+03 0.34909099600E+03 0.37260399140E+03
 0.37260518946E+03 0.34909392179E+03 0.30789620362E+03 0.25709208423E+03 0.20341321803E+03
 0.15151437296E+03 0.10531203973E+03 0.68508475208E+02 0.43153453164E+02 0.27959109655E+02
 0.18718245933E+02 0.12781255473E+02 0.91970369186E+01 0.70923106900E+01 0.59001466628E+01
 0.53478316638E+01 0.53478675090E+01 0.59002355710E+01 0.70923359805E+01 0.91967817548E+01
 0.12780658051E+02 0.18717679265E+02 0.27959257517E+02 0.43154780582E+02 0.68510790503E+02
 0.10531453663E+03 0.15151602646E+03 0.20341321757E+03 0.25709020476E+03 0.30789308591E+03
 0.41248639378E+03 0.42719742354E+03 0.41248280526E+03 0.37262130820E+03 0.31755307467E+03
 0.25709027863E+03 0.19755659975E+03 0.14271162331E+03 0.96017774328E+02 0.60740614898E+02
 0.37875927024E+02 0.24692546557E+02 0.16490412660E+02 0.11395820255E+02 0.83967509263E+01
 0.66762119804E+01 0.57677681951E+01 0.54792637465E+01 0.57673343021E+01 0.66761272538E+01
 0.83971325701E+01 0.11395904156E+02 0.16490152915E+02 0.24693164228E+02 0.37877861529E+02
 0.60741810426E+02 0.96015561337E+02 0.14270635006E+03 0.19755210802E+03 0.25709020444E+03
 0.31755739460E+03 0.37262688664E+03 0.45914540694E+03 0.45914302933E+03 0.42720336813E+03
 0.37262030301E+03 0.30788992965E+03 0.24238546021E+03 0.18092536432E+03 0.12646935792E+03
 0.82292952433E+02 0.50977731898E+02 0.31985426523E+02 0.21072618695E+02 0.14165611903E+02
 0.10021138174E+02 0.76275999188E+01 0.62973708664E+01 0.56898003197E+01 0.56896217913E+01
 0.62971658375E+01 0.76277473624E+01 0.10021383478E+02 0.14165672057E+02 0.21072997244E+02
 0.31986587626E+02 0.50978499797E+02 0.82290979324E+02 0.12646398210E+03 0.18091938996E+03
 0.24238313301E+03 0.30789308484E+03 0.37262688602E+03 0.42720941459E+03 0.45750586177E+03
 0.44118530382E+03 0.39720145463E+03 0.33707423053E+03 0.27200295330E+03 0.20881364257E+03
 0.15103157497E+03 0.10177351638E+03 0.64277273430E+02 0.39770125105E+02 0.25697547526E+02
 0.17109952860E+02 0.11773774587E+02 0.86440781314E+01 0.68587252621E+01 0.59214105213E+01
 0.56252514324E+01 0.59217550632E+01 0.68588585231E+01 0.86437803619E+01 0.11773515278E+02
 0.17110136918E+02 0.25697862015E+02 0.39770039480E+02 0.64276904032E+02 0.10177347571E+03
 0.15103202671E+03 0.20881403219E+03 0.27200281722E+03 0.33707382213E+03 0.39720127796E+03
 0.44118537713E+03 0.44118530379E+03 0.41109661171E+03 0.35943545209E+03 0.29770417767E+03
 0.23467415062E+03 0.17512881207E+03 0.12227163300E+03 0.79524375934E+02 0.49394631029E+02
 0.31191745533E+02 0.20642335614E+02 0.13938437215E+02 0.99140963946E+01 0.75833914026E+01
 0.62828889401E+01 0.56870426182E+01 0.56872094304E+01 0.62830802033E+01 0.75832554220E+01
 0.99138749112E+01 0.13938387451E+02 0.20641970024E+02 0.31190636248E+02 0.49393930612E+02
 0.79526342039E+02 0.12227687197E+03 0.17513457812E+03 0.23467631301E+03 0.29770095360E+03
 0.35942885837E+03 0.41109056195E+03 0.44118292248E+03 0.39720145475E+03 0.35943545220E+03
 0.30694226915E+03 0.24884488392E+03 0.19123156506E+03 0.13799024078E+03 0.92745553212E+02
 0.58744803727E+02 0.36833061241E+02 0.24172955795E+02 0.16221749402E+02 0.11287107500E+02
 0.83767514506E+01 0.67013848917E+01 0.58138194476E+01 0.55315458074E+01 0.58136140915E+01
 0.67012295948E+01 0.83769286387E+01 0.11287499967E+02 0.16221676191E+02 0.24171812590E+02
 0.36831363420E+02 0.58744292657E+02 0.92747715760E+02 0.13799451765E+03 0.19123527269E+03
 0.24884523495E+03 0.30693866988E+03 0.35943002972E+03 0.39719755283E+03 0.41109661582E+03
 0.33707423069E+03 0.29770417772E+03 0.24884488379E+03 0.19690110261E+03 0.14651698446E+03
 0.10171305687E+03 0.66192545981E+02 0.41873176497E+02 0.27331579421E+02 0.18399503648E+02
 0.12660369371E+02 0.91921372479E+01 0.71496378391E+01 0.59891009280E+01 0.54502841852E+01
 0.54502688813E+01 0.59890432798E+01 0.71496063957E+01 0.91923530367E+01 0.12660947858E+02
 0.18400093861E+02 0.27331439628E+02 0.41871775061E+02 0.66190118564E+02 0.10171056104E+03
 0.14651553042E+03 0.19690136192E+03 0.24884680080E+03 0.29770698015E+03 0.33707669566E+03
 0.35944622881E+03 0.35944524922E+03 0.27200295290E+03 0.23467414992E+03 0.19123156410E+03
 0.14651698366E+03 0.10488476703E+03 0.70320907276E+02 0.45389347228E+02 0.29780168829E+02
 0.20208224439E+02 0.13890717659E+02 0.99605720275E+01 0.75920527876E+01 0.61900699406E+01
 0.54300688069E+01 0.51856044368E+01 0.54303594607E+01 0.61901616981E+01 0.75917258222E+01
 0.99604010801E+01 0.13891577119E+02 0.20210158521E+02 0.29781814094E+02 0.45388685608E+02
 0.70316940700E+02 0.10487881920E+03 0.14651242694E+03 0.19123179464E+03 0.23468001257E+03
 0.27201157665E+03 0.29773577497E+03 0.30697764013E+03 0.29772948926E+03 0.20881364063E+03
 0.17512880970E+03 0.13799023823E+03 0.10171305471E+03 0.70320906089E+02 0.46652424699E+02
 0.31133461492E+02 0.21406030027E+02 0.14823835935E+02 0.10598314575E+02 0.79844398604E+01
 0.63891520978E+01 0.54522693800E+01 0.50078640660E+01 0.50078943033E+01 0.54523457604E+01
 0.63890785888E+01 0.79839006374E+01 0.10597562966E+02 0.14824021710E+02 0.21408068364E+02
 0.31136416611E+02 0.46653721918E+02 0.70318786418E+02 0.10170869486E+03 0.13798698628E+03
 0.17512922215E+03 0.20881735590E+03 0.23472053411E+03 0.24891036954E+03 0.24890854432E+03
 0.23471628039E+03 0.15103157063E+03 0.12227162837E+03 0.92745548811E+02 0.66192542459E+02
 0.45389345031E+02 0.31133460612E+02 0.21825073962E+02 0.15328355794E+02 0.11023270907E+02
 0.82811060051E+01 0.65573830407E+01 0.54937293355E+01 0.49000679266E+01 0.47061916698E+01
 0.48998053798E+01 0.54937795651E+01 0.65576273370E+01 0.82805050286E+01 0.11021440635E+02
 0.15326673036E+02 0.21825412947E+02 0.31136048702E+02 0.45392503070E+02 0.66194380275E+02
 0.92745220530E+02 0.12226903951E+03 0.15102698211E+03 0.17517660419E+03 0.19131387671E+03
 0.19699629688E+03 0.19131765395E+03 0.17518199157E+03 0.10177350957E+03 0.79524369364E+02
 0.58744798074E+02 0.41873172320E+02 0.29780166315E+02 0.21406028918E+02 0.15328355535E+02
 0.11172828263E+02 0.84419556802E+01 0.66703284514E+01 0.55334341214E+01 0.48410404077E+01
 0.45066311589E+01 0.45064736219E+01 0.48409614941E+01 0.55339898604E+01 0.66711898263E+01
 0.84418812380E+01 0.11170907775E+02 0.15325240839E+02 0.21403772162E+02 0.29780639148E+02
 0.41876353922E+02 0.58748343633E+02 0.79524938639E+02 0.10176910914E+03 0.12231558781E+03
 0.13807499001E+03 0.14662456225E+03 0.14662789542E+03 0.13808302942E+03 0.12232382307E+03
 0.64277265172E+02 0.49394623759E+02 0.36833055578E+02 0.27331575663E+02 0.20208222459E+02
 0.14823835253E+02 0.11023270909E+02 0.84419558416E+01 0.67102635112E+01 0.55570612390E+01
 0.48129738931E+01 0.43883802675E+01 0.42490416402E+01 0.43882667380E+01 0.48129737851E+01
 0.55577438731E+01 0.67119501659E+01 0.84437520381E+01 0.11023352418E+02 0.14821345802E+02
 0.20204618470E+02 0.27329402771E+02 0.36833328304E+02 0.49395904476E+02 0.64277423667E+02
 0.79561066107E+02 0.92821943033E+02 0.10181633742E+03 0.10499777848E+03 0.10181792052E+03
 0.92824277681E+02 0.79562684868E+02 0.39770117114E+02 0.31191739169E+02 0.24172951427E+02
 0.18399501245E+02 0.13890716816E+02 0.10598314698E+02 0.82811065238E+01 0.66703289594E+01
 0.55570615230E+01 0.48048715302E+01 0.43342011381E+01 0.41058841829E+01 0.41058452682E+01
 0.43338004955E+01 0.48040640983E+01 0.55569695034E+01 0.66722750071E+01 0.82846699436E+01
 0.10601170958E+02 0.13890780056E+02 0.18396813550E+02 0.24169297334E+02 0.31189027624E+02
 0.39769564213E+02 0.49413616842E+02 0.58796094473E+02 0.66272020240E+02 0.70414691067E+02
 0.70412739925E+02 0.66267485317E+02 0.58791730714E+02 0.49411466602E+02 0.25697541442E+02
 0.20642331424E+02 0.16221747144E+02 0.12660368726E+02 0.99605724640E+01 0.79844408184E+01
 0.65573840790E+01 0.55334349733E+01 0.48129744491E+01 0.43342013930E+01 0.40603495309E+01
 0.39714023118E+01 0.40604525386E+01 0.43334493139E+01 0.48110334995E+01 0.55315963100E+01
 0.65575583313E+01 0.79872593751E+01 0.99646769963E+01 0.12663445995E+02 0.16222154929E+02
 0.20640119712E+02 0.25694496703E+02 0.31185454820E+02 0.36841811516E+02 0.41904365326E+02
 0.45437623964E+02 0.46705672712E+02 0.45434100882E+02 0.41900082919E+02 0.36839854550E+02
 0.31186775098E+02 0.17109949606E+02 0.13938435656E+02 0.11287107409E+02 0.91921381866E+01
 0.75920542590E+01 0.63891536774E+01 0.54937307411E+01 0.48410415025E+01 0.43883810222E+01
 0.41058846279E+01 0.39714025020E+01 0.39718571033E+01 0.41066839541E+01 0.43882241767E+01
 0.48389530818E+01 0.54901931576E+01 0.63862294355E+01 0.75919719803E+01 0.91953697773E+01
 0.11291789415E+02 0.13941805192E+02 0.17110434024E+02 0.20617916357E+02 0.24139118523E+02
 0.27302386371E+02 0.29761604766E+02 0.31123095369E+02 0.31123472845E+02 0.29762864045E+02
 0.27304644975E+02 0.24141901931E+02 0.20619866437E+02 0.11773774104E+02 0.99140970958E+01
 0.83767530029E+01 0.71496398393E+01 0.61900720234E+01 0.54522712845E+01 0.49000695109E+01
 0.45066323777E+01 0.42490425078E+01 0.41058458278E+01 0.40604528453E+01 0.41066840707E+01
 0.42507736592E+01 0.45083264012E+01 0.48998689945E+01 0.54492434175E+01 0.61856529041E+01
 0.71466300419E+01 0.83769360382E+01 0.99171017187E+01 0.11777833885E+02 0.13906251146E+02
 0.16162000533E+02 0.18322974918E+02 0.20125531783E+02 0.21323921959E+02 0.21745695650E+02
 0.21327983543E+02 0.20130756807E+02 0.18326093916E+02 0.16161661097E+02 0.13903177788E+02
 0.86440796688E+01 0.75833935538E+01 0.67013873524E+01 0.59891034136E+01 0.54300711040E+01
 0.50078660475E+01 0.47061932822E+01 0.45064748620E+01 0.43882676315E+01 0.43338010844E+01
 0.43334496505E+01 0.43882243232E+01 0.45083264311E+01 0.47096813432E+01 0.50106354733E+01
 0.54298510697E+01 0.59857268173E+01 0.66967667680E+01 0.75801050854E+01 0.86439660395E+01
 0.98728549714E+01 0.11211182939E+02 0.12555788203E+02 0.13765247938E+02 0.14685675699E+02
 0.15185229001E+02 0.15186706043E+02 0.14688389513E+02 0.13765915130E+02 0.12552996717E+02
 0.11206652364E+02 0.98696602949E+01 0.68587278840E+01 0.62828917262E+01 0.58138221916E+01
 0.54502867307E+01 0.51856066842E+01 0.50078961994E+01 0.48998069046E+01 0.48409626521E+01
 0.48129746010E+01 0.48040646131E+01 0.48110337658E+01 0.48389531609E+01 0.48998689588E+01
 0.50106354085E+01 0.51895625941E+01 0.54529712065E+01 0.58134411938E+01 0.62795477518E+01
 0.68543705788E+01 0.75305855162E+01 0.82833897597E+01 0.90652959272E+01 0.98066773802E+01
 0.10423958729E+02 0.10835083543E+02 0.10979087184E+02 0.10833302873E+02 0.10420583408E+02
 0.98026113596E+01 0.90622851742E+01 0.82831276968E+01 0.75334025805E+01 0.59214134870E+01
 0.56870454827E+01 0.55315484596E+01 0.54502712479E+01 0.54303614941E+01 0.54523474307E+01
 0.54937808610E+01 0.55339907933E+01 0.55577444764E+01 0.55569698240E+01 0.55315964001E+01
 0.54901930735E+01 0.54492432258E+01 0.54298508527E+01 0.54529710562E+01 0.55357331730E+01
 0.56899036443E+01 0.59210894599E+01 0.62270859686E+01 0.65955937467E+01 0.70026569863E+01
 0.74127790589E+01 0.77814377162E+01 0.80611637279E+01 0.82114358503E+01 0.82095090723E+01
 0.80569089054E+01 0.77781110327E+01 0.74127539834E+01 0.70059219664E+01 0.66001837804E+01
 0.62304563526E+01 0.56252543205E+01 0.56872120844E+01 0.58136164459E+01 0.59890452866E+01
 0.61901633229E+01 0.63890798181E+01 0.65576281865E+01 0.66711903392E+01 0.67119503989E+01
 0.66722750132E+01 0.65575581538E+01 0.63862291154E+01 0.61856524949E+01 0.59857263926E+01
 0.58134408396E+01 0.56899034404E+01 0.56289390263E+01 0.56361221255E+01 0.57082867171E+01
 0.58338382317E+01 0.59935563844E+01 0.61618731963E+01 0.63097994605E+01 0.64104103516E+01
 0.64453829444E+01 0.64092902409E+01 0.63097456452E+01 0.61645290054E+01 0.59979492479E+01
 0.58372692692E+01 0.57087726914E+01 0.56337023699E+01 0.59217576362E+01 0.62830824242E+01
 0.67012313989E+01 0.71496077428E+01 0.75917267085E+01 0.79839011052E+01 0.82805051588E+01
 0.84418811258E+01 0.84437517628E+01 0.82846695512E+01 0.79872588842E+01 0.75919714036E+01
 0.71466294092E+01 0.66967661350E+01 0.62795471912E+01 0.59210890427E+01 0.56361219038E+01
 0.54293381036E+01 0.52974850256E+01 0.52308515716E+01 0.52139375963E+01 0.52269337779E+01
 0.52494345123E+01 0.52653142348E+01 0.52661322537E+01 0.52519199994E+01 0.52305600673E+01
 0.52169319716E+01 0.52311156962E+01 0.52945618704E+01 0.54251507285E+01 0.56335258738E+01
 0.68588604719E+01 0.75832568217E+01 0.83769294367E+01 0.91923532491E+01 0.99604007971E+01
 0.10597562335E+02 0.11021439820E+02 0.11170906913E+02 0.11023351586E+02 0.10601170172E+02
 0.99646762311E+01 0.91953690036E+01 0.83769352497E+01 0.75801043081E+01 0.68543698627E+01
 0.62270853711E+01 0.57082862879E+01 0.52974848003E+01 0.49883867304E+01 0.47702433191E+01
 0.46280425069E+01 0.45442823868E+01 0.45025281435E+01 0.44909196210E+01 0.45044621454E+01
 0.45463388816E+01 0.46281199937E+01 0.47676661243E+01 0.49844567855E+01 0.52945961254E+01