   2   2   0   0
  0.3153084E+02  0.3592550E-09  0.3592550E-09  0.5641950E-09  0.5000000E-15
  1.000000000000000E-004
  CAR 
 Tl                                      
     23.84344137     -8.55781227  301      5.51585088      1.00000000
     -8.558  0.0000E+00  0.0000E+00
     -8.450  0.0000E+00  0.0000E+00
     -8.342  0.0000E+00  0.0000E+00
     -8.234  0.0000E+00  0.0000E+00
     -8.126  0.0000E+00  0.0000E+00
     -8.018  0.0000E+00  0.0000E+00
     -7.910  0.0000E+00  0.0000E+00
     -7.802  0.0000E+00  0.0000E+00
     -7.694  0.0000E+00  0.0000E+00
     -7.586  0.0000E+00  0.0000E+00
     -7.478  0.0000E+00  0.0000E+00
     -7.370  0.5059E-15  0.5464E-16
     -7.262  0.9996E-06  0.1080E-06
     -7.154  0.2613E+00  0.2823E-01
     -7.046  0.3315E+02  0.3609E+01
     -6.938  0.3988E+02  0.7917E+01
     -6.830  0.7725E+00  0.8000E+01
     -6.722  0.1558E-04  0.8000E+01
     -6.614  0.8448E-13  0.8000E+01
     -6.506  0.0000E+00  0.8000E+01
     -6.398  0.0000E+00  0.8000E+01
     -6.290  0.0000E+00  0.8000E+01
     -6.182  0.0000E+00  0.8000E+01
     -6.074  0.0000E+00  0.8000E+01
     -5.966  0.0000E+00  0.8000E+01
     -5.858  0.0000E+00  0.8000E+01
     -5.750  0.0000E+00  0.8000E+01
     -5.642  0.0000E+00  0.8000E+01
     -5.534  0.0000E+00  0.8000E+01
     -5.426  0.0000E+00  0.8000E+01
     -5.318  0.2793E-14  0.8000E+01
     -5.210  0.1106E-05  0.8000E+01
     -5.102  0.1263E+00  0.8014E+01
     -4.994  0.1618E+02  0.9761E+01
     -4.886  0.3753E+02  0.1381E+02
     -4.778  0.2687E+02  0.1672E+02
     -4.670  0.2017E+02  0.1889E+02
     -4.562  0.9628E+01  0.1993E+02
     -4.454  0.6059E+00  0.2000E+02
     -4.346  0.3069E-03  0.2000E+02
     -4.238  0.6839E-10  0.2000E+02
     -4.130  0.0000E+00  0.2000E+02
     -4.022  0.3338E-10  0.2000E+02
     -3.914  0.5623E-04  0.2000E+02
     -3.806  0.2057E-01  0.2000E+02
     -3.698  0.7460E-01  0.2001E+02
     -3.590  0.3273E-01  0.2001E+02
     -3.482  0.3492E+00  0.2005E+02
     -3.374  0.3517E+00  0.2009E+02
     -3.266  0.3583E-01  0.2009E+02
     -3.158  0.3788E+00  0.2013E+02
     -3.050  0.9223E-01  0.2014E+02
     -2.942  0.3195E+00  0.2018E+02
     -2.834  0.4019E+00  0.2022E+02
     -2.726  0.5091E+00  0.2028E+02
     -2.618  0.8293E+00  0.2037E+02
     -2.510  0.1299E+00  0.2038E+02
     -2.402  0.2744E+00  0.2041E+02
     -2.294  0.2921E+00  0.2044E+02
     -2.186  0.6949E+00  0.2052E+02
     -2.078  0.9916E-01  0.2053E+02
     -1.970  0.3740E+00  0.2057E+02
     -1.862  0.7925E+00  0.2065E+02
     -1.754  0.5954E+00  0.2072E+02
     -1.646  0.5445E+00  0.2078E+02
     -1.538  0.7968E+00  0.2086E+02
     -1.430  0.6544E+00  0.2093E+02
     -1.322  0.7061E+00  0.2101E+02
     -1.214  0.5554E+00  0.2107E+02
     -1.106  0.6531E+00  0.2114E+02
     -0.998  0.3347E+00  0.2118E+02
     -0.890  0.3569E+00  0.2122E+02
     -0.782  0.9463E-01  0.2123E+02
     -0.674  0.1273E+01  0.2136E+02
     -0.566  0.1441E+01  0.2152E+02
     -0.457  0.4809E+00  0.2157E+02
     -0.349  0.1236E+01  0.2170E+02
     -0.241  0.1944E+00  0.2172E+02
     -0.133  0.1470E+01  0.2188E+02
     -0.025  0.9225E+00  0.2198E+02
      0.083  0.1149E+01  0.2211E+02
      0.191  0.1155E+01  0.2223E+02
      0.299  0.4331E+00  0.2228E+02
      0.407  0.4514E+00  0.2233E+02
      0.515  0.1238E+01  0.2246E+02
      0.623  0.9109E+00  0.2256E+02
      0.731  0.1540E+01  0.2273E+02
      0.839  0.8719E+00  0.2282E+02
      0.947  0.8152E+00  0.2291E+02
      1.055  0.1724E+01  0.2309E+02
      1.163  0.1243E+01  0.2323E+02
      1.271  0.1180E+01  0.2336E+02
      1.379  0.2407E+01  0.2362E+02
      1.487  0.1910E+01  0.2382E+02
      1.595  0.3949E+00  0.2386E+02
      1.703  0.9007E+00  0.2396E+02
      1.811  0.3370E+00  0.2400E+02
      1.919  0.1253E-01  0.2400E+02
      2.027  0.3966E-06  0.2400E+02
      2.135  0.1662E-14  0.2400E+02
      2.243  0.0000E+00  0.2400E+02
      2.351  0.0000E+00  0.2400E+02
      2.459  0.0000E+00  0.2400E+02
      2.567  0.0000E+00  0.2400E+02
      2.675  0.0000E+00  0.2400E+02
      2.783  0.0000E+00  0.2400E+02
      2.891  0.2106E-11  0.2400E+02
      2.999  0.1265E-04  0.2400E+02
      3.107  0.1332E-01  0.2400E+02
      3.215  0.2276E-01  0.2400E+02
      3.323  0.6577E-01  0.2401E+02
      3.431  0.2197E+00  0.2403E+02
      3.539  0.2277E+00  0.2406E+02
      3.647  0.2088E+00  0.2408E+02
      3.755  0.1507E+00  0.2410E+02
      3.863  0.5699E+00  0.2416E+02
      3.971  0.1059E+01  0.2427E+02
      4.079  0.4610E+00  0.2432E+02
      4.187  0.9588E+00  0.2443E+02
      4.295  0.1090E+01  0.2455E+02
      4.403  0.1209E+01  0.2468E+02
      4.511  0.1668E+01  0.2486E+02
      4.619  0.1218E+01  0.2499E+02
      4.727  0.3917E+00  0.2503E+02
      4.835  0.2686E+01  0.2532E+02
      4.943  0.7924E+00  0.2541E+02
      5.051  0.6026E+00  0.2547E+02
      5.159  0.1605E+01  0.2564E+02
      5.267  0.5950E+00  0.2571E+02
      5.375  0.1145E+01  0.2583E+02
      5.483  0.1041E+01  0.2594E+02
      5.591  0.1622E+01  0.2612E+02
      5.699  0.1060E+01  0.2623E+02
      5.807  0.1617E+01  0.2641E+02
      5.915  0.4358E+00  0.2646E+02
      6.023  0.4239E+00  0.2650E+02
      6.131  0.1726E+01  0.2669E+02
      6.239  0.1125E+01  0.2681E+02
      6.347  0.6429E+00  0.2688E+02
      6.455  0.6935E+00  0.2695E+02
      6.563  0.1232E+01  0.2709E+02
      6.671  0.4512E+00  0.2714E+02
      6.779  0.9090E+00  0.2723E+02
      6.887  0.9829E+00  0.2734E+02
      6.995  0.4037E+00  0.2738E+02
      7.103  0.1497E+01  0.2755E+02
      7.211  0.1103E+01  0.2766E+02
      7.319  0.2148E+01  0.2790E+02
      7.427  0.1028E+01  0.2801E+02
      7.535  0.9894E+00  0.2811E+02
      7.643  0.7361E+00  0.2819E+02
      7.751  0.1862E+01  0.2839E+02
      7.859  0.9387E+00  0.2850E+02
      7.967  0.1358E+01  0.2864E+02
      8.075  0.6002E+00  0.2871E+02
      8.183  0.1097E+01  0.2883E+02
      8.291  0.1211E+01  0.2896E+02
      8.399  0.7959E+00  0.2904E+02
      8.507  0.1191E+01  0.2917E+02
      8.615  0.1078E+01  0.2929E+02
      8.723  0.1650E+01  0.2947E+02
      8.831  0.7152E+00  0.2954E+02
      8.939  0.1316E+01  0.2969E+02
      9.047  0.5673E+00  0.2975E+02
      9.155  0.6543E+00  0.2982E+02
      9.263  0.2216E+01  0.3006E+02
      9.371  0.1984E+01  0.3027E+02
      9.479  0.1390E+01  0.3042E+02
      9.587  0.2130E+01  0.3065E+02
      9.695  0.2559E+01  0.3093E+02
      9.803  0.6151E+00  0.3099E+02
      9.911  0.4543E+00  0.3104E+02
     10.019  0.6809E+00  0.3112E+02
     10.127  0.9211E+00  0.3122E+02
     10.235  0.2494E+01  0.3149E+02
     10.343  0.1142E+01  0.3161E+02
     10.451  0.1655E+01  0.3179E+02
     10.559  0.9090E+00  0.3189E+02
     10.667  0.9876E+00  0.3199E+02
     10.775  0.1643E+01  0.3217E+02
     10.883  0.6532E+00  0.3224E+02
     10.991  0.1376E+01  0.3239E+02
     11.099  0.1258E+01  0.3252E+02
     11.207  0.1172E+01  0.3265E+02
     11.315  0.8086E+00  0.3274E+02
     11.423  0.1699E+01  0.3292E+02
     11.531  0.1911E+01  0.3313E+02
     11.639  0.2881E+01  0.3344E+02
     11.747  0.1842E+01  0.3364E+02
     11.855  0.8543E+00  0.3373E+02
     11.963  0.3472E+00  0.3377E+02
     12.071  0.5960E+00  0.3383E+02
     12.179  0.1111E+01  0.3395E+02
     12.287  0.9363E+00  0.3405E+02
     12.395  0.1750E+01  0.3424E+02
     12.503  0.1939E+01  0.3445E+02
     12.611  0.1057E+01  0.3457E+02
     12.719  0.1977E+01  0.3478E+02
     12.827  0.1699E+01  0.3496E+02
     12.935  0.1704E+01  0.3515E+02
     13.043  0.8559E+00  0.3524E+02
     13.151  0.9031E+00  0.3534E+02
     13.259  0.1277E+01  0.3548E+02
     13.367  0.8130E+00  0.3556E+02
     13.475  0.9136E+00  0.3566E+02
     13.583  0.6594E+00  0.3573E+02
     13.691  0.1014E+01  0.3584E+02
     13.799  0.1068E+01  0.3596E+02
     13.907  0.1253E+01  0.3609E+02
     14.015  0.1424E+01  0.3625E+02
     14.123  0.6154E+00  0.3631E+02
     14.231  0.8654E+00  0.3641E+02
     14.339  0.1293E+01  0.3655E+02
     14.447  0.2413E+01  0.3681E+02
     14.555  0.1501E+01  0.3697E+02
     14.663  0.9900E-01  0.3698E+02
     14.771  0.8500E-01  0.3699E+02
     14.879  0.1093E+01  0.3711E+02
     14.987  0.1913E+01  0.3731E+02
     15.095  0.2466E+01  0.3758E+02
     15.203  0.2107E+01  0.3781E+02
     15.311  0.1287E+01  0.3795E+02
     15.419  0.2110E+01  0.3818E+02
     15.527  0.2683E+01  0.3847E+02
     15.635  0.1333E+01  0.3861E+02
     15.743  0.2097E+01  0.3884E+02
     15.851  0.2237E+01  0.3908E+02
     15.959  0.1242E+01  0.3921E+02
     16.067  0.1128E+01  0.3933E+02
     16.175  0.2230E+01  0.3957E+02
     16.283  0.4055E+00  0.3962E+02
     16.391  0.5999E-01  0.3962E+02
     16.499  0.1464E+01  0.3978E+02
     16.607  0.1185E+01  0.3991E+02
     16.715  0.9656E+00  0.4001E+02
     16.823  0.1616E+01  0.4019E+02
     16.931  0.1476E+01  0.4035E+02
     17.039  0.6714E+00  0.4042E+02
     17.147  0.2820E+00  0.4045E+02
     17.255  0.7299E+00  0.4053E+02
     17.363  0.1100E+01  0.4065E+02
     17.471  0.1197E+01  0.4078E+02
     17.579  0.1338E+01  0.4092E+02
     17.687  0.1788E+01  0.4112E+02
     17.795  0.1119E+01  0.4124E+02
     17.903  0.5798E+00  0.4130E+02
     18.011  0.2009E+01  0.4152E+02
     18.119  0.2531E+01  0.4179E+02
     18.227  0.1810E+01  0.4199E+02
     18.335  0.3314E+01  0.4234E+02
     18.443  0.2484E+01  0.4261E+02
     18.551  0.3080E+01  0.4294E+02
     18.659  0.2164E+01  0.4318E+02
     18.767  0.2189E+01  0.4341E+02
     18.875  0.6187E+00  0.4348E+02
     18.983  0.1306E+01  0.4362E+02
     19.091  0.1463E+01  0.4378E+02
     19.199  0.2238E+01  0.4402E+02
     19.307  0.1705E+01  0.4421E+02
     19.415  0.4118E+01  0.4465E+02
     19.523  0.2725E+01  0.4495E+02
     19.631  0.2463E+01  0.4521E+02
     19.739  0.1166E+01  0.4534E+02
     19.847  0.1460E+01  0.4549E+02
     19.955  0.2107E+01  0.4572E+02
     20.063  0.1396E+01  0.4587E+02
     20.171  0.7573E+00  0.4596E+02
     20.279  0.1391E+01  0.4611E+02
     20.387  0.1173E+01  0.4623E+02
     20.495  0.1564E+01  0.4640E+02
     20.603  0.3064E+00  0.4643E+02
     20.711  0.1890E+01  0.4664E+02
     20.819  0.1499E+01  0.4680E+02
     20.927  0.1600E+01  0.4697E+02
     21.035  0.1318E+01  0.4712E+02
     21.143  0.8437E+00  0.4721E+02
     21.251  0.1650E+01  0.4738E+02
     21.359  0.6315E+00  0.4745E+02
     21.467  0.5070E+00  0.4751E+02
     21.575  0.1367E+01  0.4766E+02
     21.683  0.8258E+00  0.4774E+02
     21.791  0.5254E+00  0.4780E+02
     21.899  0.1110E+01  0.4792E+02
     22.007  0.2976E+00  0.4795E+02
     22.115  0.2211E-03  0.4795E+02
     22.223  0.5837E-01  0.4796E+02
     22.331  0.1869E+00  0.4798E+02
     22.439  0.1833E+00  0.4800E+02
     22.547  0.5368E-02  0.4800E+02
     22.655  0.5637E-07  0.4800E+02
     22.763  0.7228E-16  0.4800E+02
     22.871  0.0000E+00  0.4800E+02
     22.979  0.0000E+00  0.4800E+02
     23.087  0.0000E+00  0.4800E+02
     23.195  0.0000E+00  0.4800E+02
     23.303  0.0000E+00  0.4800E+02
     23.411  0.0000E+00  0.4800E+02
     23.519  0.0000E+00  0.4800E+02
     23.627  0.0000E+00  0.4800E+02
     23.735  0.0000E+00  0.4800E+02
     23.843  0.0000E+00  0.4800E+02
