    2    2    1    1
  0.3153084E+02  0.3592550E-09  0.3592550E-09  0.5641950E-09  0.5000000E-15
  1.000000000000000E-004
  CAR 
 Tl                                      
     26    260     48
 
  0.0000000E+00  0.0000000E+00  0.0000000E+00  0.1953125E-02
      1         -7.085028   1.000000
      2         -7.084963   1.000000
      3         -7.082622   1.000000
      4         -7.082514   1.000000
      5         -7.069303   1.000000
      6         -7.069180   1.000000
      7         -7.010191   1.000000
      8         -7.010063   1.000000
      9         -4.982395   1.000000
     10         -4.982214   1.000000
     11         -4.944525   1.000000
     12         -4.944417   1.000000
     13         -4.933230   1.000000
     14         -4.933058   1.000000
     15         -4.929098   1.000000
     16         -4.928921   1.000000
     17         -4.903189   1.000000
     18         -4.903118   1.000000
     19         -4.654557   1.000000
     20         -4.654487   1.000000
     21         -3.809828   1.000000
     22         -3.808317   1.000000
     23          0.618979   1.000000
     24          0.620238   1.000000
     25          3.117746   1.000000
     26          3.119274   1.000000
     27         11.931012   0.000000
     28         11.931550   0.000000
     29         13.172134   0.000000
     30         13.172623   0.000000
     31         13.414280   0.000000
     32         13.414879   0.000000
     33         15.297721   0.000000
     34         15.298577   0.000000
     35         15.534074   0.000000
     36         15.537834   0.000000
     37         15.652056   0.000000
     38         15.653761   0.000000
     39         16.410979   0.000000
     40         16.411854   0.000000
     41         18.109592   0.000000
     42         18.111036   0.000000
     43         19.380375   0.000000
     44         19.381346   0.000000
     45         19.509476   0.000000
     46         19.510331   0.000000
     47         19.669651   0.000000
     48         19.672409   0.000000
 
  0.1250000E+00  0.2954115E-17  0.0000000E+00  0.3906250E-02
      1         -7.083038   1.000000
      2         -7.083009   1.000000
      3         -7.071415   1.000000
      4         -7.071318   1.000000
      5         -7.061988   1.000000
      6         -7.061867   1.000000
      7         -7.005239   1.000000
      8         -7.005119   1.000000
      9         -4.986756   1.000000
     10         -4.986617   1.000000
     11         -4.950238   1.000000
     12         -4.950186   1.000000
     13         -4.927858   1.000000
     14         -4.927726   1.000000
     15         -4.915655   1.000000
     16         -4.915506   1.000000
     17         -4.859216   1.000000
     18         -4.859183   1.000000
     19         -4.677264   1.000000
     20         -4.677192   1.000000
     21         -3.542697   1.000000
     22         -3.541194   1.000000
     23          0.786887   1.000000
     24          0.788142   1.000000
     25          3.446418   1.000000
     26          3.447913   1.000000
     27         10.155511   0.000000
     28         10.156793   0.000000
     29         11.508363   0.000000
     30         11.509228   0.000000
     31         12.868249   0.000000
     32         12.869317   0.000000
     33         14.383132   0.000000
     34         14.384151   0.000000
     35         15.669284   0.000000
     36         15.670906   0.000000
     37         15.936346   0.000000
     38         15.936973   0.000000
     39         16.974381   0.000000
     40         16.976482   0.000000
     41         17.476232   0.000000
     42         17.478404   0.000000
     43         17.865411   0.000000
     44         17.867683   0.000000
     45         19.035275   0.000000
     46         19.036392   0.000000
     47         19.209087   0.000000
     48         19.210419   0.000000
 
  0.1250000E+00  0.1250000E+00  0.0000000E+00  0.3906250E-02
      1         -7.083068   1.000000
      2         -7.082986   1.000000
      3         -7.071404   1.000000
      4         -7.071316   1.000000
      5         -7.061990   1.000000
      6         -7.061868   1.000000
      7         -7.005228   1.000000
      8         -7.005126   1.000000
      9         -4.986754   1.000000
     10         -4.986619   1.000000
     11         -4.950257   1.000000
     12         -4.950168   1.000000
     13         -4.927870   1.000000
     14         -4.927710   1.000000
     15         -4.915611   1.000000
     16         -4.915542   1.000000
     17         -4.859215   1.000000
     18         -4.859184   1.000000
     19         -4.677264   1.000000
     20         -4.677194   1.000000
     21         -3.542696   1.000000
     22         -3.541193   1.000000
     23          0.786887   1.000000
     24          0.788142   1.000000
     25          3.446419   1.000000
     26          3.447912   1.000000
     27         10.155526   0.000000
     28         10.156797   0.000000
     29         11.508333   0.000000
     30         11.509221   0.000000
     31         12.868273   0.000000
     32         12.869307   0.000000
     33         14.383187   0.000000
     34         14.384061   0.000000
     35         15.669299   0.000000
     36         15.670874   0.000000
     37         15.936433   0.000000
     38         15.936871   0.000000
     39         16.974406   0.000000
     40         16.976478   0.000000
     41         17.476227   0.000000
     42         17.478404   0.000000
     43         17.865433   0.000000
     44         17.867674   0.000000
     45         19.035316   0.000000
     46         19.036354   0.000000
     47         19.209064   0.000000
     48         19.210464   0.000000
 
  0.0000000E+00  0.1250000E+00  0.0000000E+00  0.3906250E-02
      1         -7.083054   1.000000
      2         -7.082992   1.000000
      3         -7.071413   1.000000
      4         -7.071321   1.000000
      5         -7.061988   1.000000
      6         -7.061866   1.000000
      7         -7.005235   1.000000
      8         -7.005123   1.000000
      9         -4.986755   1.000000
     10         -4.986618   1.000000
     11         -4.950249   1.000000
     12         -4.950175   1.000000
     13         -4.927866   1.000000
     14         -4.927718   1.000000
     15         -4.915639   1.000000
     16         -4.915523   1.000000
     17         -4.859216   1.000000
     18         -4.859184   1.000000
     19         -4.677264   1.000000
     20         -4.677193   1.000000
     21         -3.542697   1.000000
     22         -3.541194   1.000000
     23          0.786887   1.000000
     24          0.788141   1.000000
     25          3.446419   1.000000
     26          3.447912   1.000000
     27         10.155514   0.000000
     28         10.156791   0.000000
     29         11.508357   0.000000
     30         11.509234   0.000000
     31         12.868257   0.000000
     32         12.869309   0.000000
     33         14.383167   0.000000
     34         14.384116   0.000000
     35         15.669296   0.000000
     36         15.670895   0.000000
     37         15.936390   0.000000
     38         15.936930   0.000000
     39         16.974388   0.000000
     40         16.976475   0.000000
     41         17.476230   0.000000
     42         17.478405   0.000000
     43         17.865419   0.000000
     44         17.867675   0.000000
     45         19.035294   0.000000
     46         19.036372   0.000000
     47         19.209069   0.000000
     48         19.210438   0.000000
 
  0.2500000E+00  0.5908231E-17  0.0000000E+00  0.3906250E-02
      1         -7.079189   1.000000
      2         -7.079161   1.000000
      3         -7.053855   1.000000
      4         -7.053739   1.000000
      5         -7.047416   1.000000
      6         -7.047318   1.000000
      7         -6.998575   1.000000
      8         -6.998469   1.000000
      9         -4.988184   1.000000
     10         -4.988061   1.000000
     11         -4.959803   1.000000
     12         -4.959742   1.000000
     13         -4.917603   1.000000
     14         -4.917473   1.000000
     15         -4.885766   1.000000
     16         -4.885631   1.000000
     17         -4.795507   1.000000
     18         -4.795450   1.000000
     19         -4.682542   1.000000
     20         -4.682454   1.000000
     21         -2.729862   1.000000
     22         -2.728407   1.000000
     23          1.268894   1.000000
     24          1.270096   1.000000
     25          4.357779   1.000000
     26          4.359167   1.000000
     27          7.142045   0.000000
     28          7.143747   0.000000
     29          9.809340   0.000000
     30          9.810159   0.000000
     31         10.835591   0.000000
     32         10.836473   0.000000
     33         12.909332   0.000000
     34         12.910155   0.000000
     35         14.083441   0.000000
     36         14.085881   0.000000
     37         14.411143   0.000000
     38         14.411772   0.000000
     39         16.244197   0.000000
     40         16.246439   0.000000
     41         17.722507   0.000000
     42         17.725085   0.000000
     43         18.310141   0.000000
     44         18.311958   0.000000
     45         18.743872   0.000000
     46         18.745472   0.000000
     47         20.139939   0.000000
     48         20.142127   0.000000
 
  0.2500000E+00  0.2500000E+00  0.0000000E+00  0.3906250E-02
      1         -7.079224   1.000000
      2         -7.079135   1.000000
      3         -7.053864   1.000000
      4         -7.053738   1.000000
      5         -7.047398   1.000000
      6         -7.047325   1.000000
      7         -6.998539   1.000000
      8         -6.998496   1.000000
      9         -4.988173   1.000000
     10         -4.988073   1.000000
     11         -4.959855   1.000000
     12         -4.959691   1.000000
     13         -4.917595   1.000000
     14         -4.917480   1.000000
     15         -4.885734   1.000000
     16         -4.885658   1.000000
     17         -4.795516   1.000000
     18         -4.795438   1.000000
     19         -4.682521   1.000000
     20         -4.682482   1.000000
     21         -2.729858   1.000000
     22         -2.728403   1.000000
     23          1.268899   1.000000
     24          1.270099   1.000000
     25          4.357789   1.000000
     26          4.359157   1.000000
     27          7.142059   0.000000
     28          7.143736   0.000000
     29          9.809337   0.000000
     30          9.810145   0.000000
     31         10.835575   0.000000
     32         10.836460   0.000000
     33         12.909349   0.000000
     34         12.910125   0.000000
     35         14.083507   0.000000
     36         14.085813   0.000000
     37         14.410894   0.000000
     38         14.411946   0.000000
     39         16.244156   0.000000
     40         16.246488   0.000000
     41         17.722557   0.000000
     42         17.725085   0.000000
     43         18.310163   0.000000
     44         18.311934   0.000000
     45         18.743851   0.000000
     46         18.745478   0.000000
     47         20.139982   0.000000
     48         20.142146   0.000000
 
  0.0000000E+00  0.2500000E+00  0.0000000E+00  0.3906250E-02
      1         -7.079208   1.000000
      2         -7.079141   1.000000
      3         -7.053858   1.000000
      4         -7.053737   1.000000
      5         -7.047411   1.000000
      6         -7.047324   1.000000
      7         -6.998563   1.000000
      8         -6.998482   1.000000
      9         -4.988178   1.000000
     10         -4.988067   1.000000
     11         -4.959834   1.000000
     12         -4.959711   1.000000
     13         -4.917599   1.000000
     14         -4.917477   1.000000
     15         -4.885753   1.000000
     16         -4.885644   1.000000
     17         -4.795513   1.000000
     18         -4.795445   1.000000
     19         -4.682532   1.000000
     20         -4.682464   1.000000
     21         -2.729862   1.000000
     22         -2.728407   1.000000
     23          1.268895   1.000000
     24          1.270096   1.000000
     25          4.357784   1.000000
     26          4.359162   1.000000
     27          7.142051   0.000000
     28          7.143740   0.000000
     29          9.809343   0.000000
     30          9.810156   0.000000
     31         10.835590   0.000000
     32         10.836474   0.000000
     33         12.909343   0.000000
     34         12.910144   0.000000
     35         14.083475   0.000000
     36         14.085848   0.000000
     37         14.411024   0.000000
     38         14.411892   0.000000
     39         16.244174   0.000000
     40         16.246462   0.000000
     41         17.722519   0.000000
     42         17.725073   0.000000
     43         18.310153   0.000000
     44         18.311947   0.000000
     45         18.743865   0.000000
     46         18.745479   0.000000
     47         20.139945   0.000000
     48         20.142121   0.000000
 
  0.3750000E+00  0.2274013E-16  0.0000000E+00  0.3906250E-02
      1         -7.073911   1.000000
      2         -7.073877   1.000000
      3         -7.056129   1.000000
      4         -7.056014   1.000000
      5         -7.027902   1.000000
      6         -7.027798   1.000000
      7         -7.002121   1.000000
      8         -7.002019   1.000000
      9         -4.989202   1.000000
     10         -4.989105   1.000000
     11         -4.968147   1.000000
     12         -4.968033   1.000000
     13         -4.898176   1.000000
     14         -4.898022   1.000000
     15         -4.888603   1.000000
     16         -4.888515   1.000000
     17         -4.759964   1.000000
     18         -4.759907   1.000000
     19         -4.607044   1.000000
     20         -4.606960   1.000000
     21         -1.412643   1.000000
     22         -1.411309   1.000000
     23          1.664514   1.000000
     24          1.665559   1.000000
     25          4.809473   1.000000
     26          4.811305   1.000000
     27          5.822674   0.000000
     28          5.823881   0.000000
     29          7.646865   0.000000
     30          7.648513   0.000000
     31          9.545266   0.000000
     32          9.546483   0.000000
     33         10.643112   0.000000
     34         10.644352   0.000000
     35         13.350979   0.000000
     36         13.352317   0.000000
     37         13.472431   0.000000
     38         13.473571   0.000000
     39         15.401712   0.000000
     40         15.403950   0.000000
     41         17.571812   0.000000
     42         17.574429   0.000000
     43         18.437018   0.000000
     44         18.438578   0.000000
     45         19.682714   0.000000
     46         19.684439   0.000000
     47         21.287715   0.000000
     48         21.289717   0.000000
 
  0.3750000E+00  0.3750000E+00  0.0000000E+00  0.3906250E-02
      1         -7.073950   1.000000
      2         -7.073848   1.000000
      3         -7.056152   1.000000
      4         -7.056003   1.000000
      5         -7.027870   1.000000
      6         -7.027818   1.000000
      7         -7.002079   1.000000
      8         -7.002048   1.000000
      9         -4.989222   1.000000
     10         -4.989086   1.000000
     11         -4.968149   1.000000
     12         -4.968031   1.000000
     13         -4.898120   1.000000
     14         -4.898071   1.000000
     15         -4.888609   1.000000
     16         -4.888513   1.000000
     17         -4.759992   1.000000
     18         -4.759878   1.000000
     19         -4.607033   1.000000
     20         -4.606978   1.000000
     21         -1.412635   1.000000
     22         -1.411302   1.000000
     23          1.664528   1.000000
     24          1.665567   1.000000
     25          4.809516   1.000000
     26          4.811247   1.000000
     27          5.822823   0.000000
     28          5.823729   0.000000
     29          7.646895   0.000000
     30          7.648473   0.000000
     31          9.545200   0.000000
     32          9.546492   0.000000
     33         10.643081   0.000000
     34         10.644376   0.000000
     35         13.351013   0.000000
     36         13.352242   0.000000
     37         13.472443   0.000000
     38         13.473514   0.000000
     39         15.401672   0.000000
     40         15.403999   0.000000
     41         17.571847   0.000000
     42         17.574462   0.000000
     43         18.436994   0.000000
     44         18.438587   0.000000
     45         19.682707   0.000000
     46         19.684440   0.000000
     47         21.287697   0.000000
     48         21.289707   0.000000
 
  0.0000000E+00  0.3750000E+00  0.0000000E+00  0.3906250E-02
      1         -7.073932   1.000000
      2         -7.073855   1.000000
      3         -7.056138   1.000000
      4         -7.056005   1.000000
      5         -7.027891   1.000000
      6         -7.027809   1.000000
      7         -7.002108   1.000000
      8         -7.002033   1.000000
      9         -4.989213   1.000000
     10         -4.989094   1.000000
     11         -4.968148   1.000000
     12         -4.968032   1.000000
     13         -4.898156   1.000000
     14         -4.898042   1.000000
     15         -4.888605   1.000000
     16         -4.888514   1.000000
     17         -4.759980   1.000000
     18         -4.759890   1.000000
     19         -4.607037   1.000000
     20         -4.606966   1.000000
     21         -1.412643   1.000000
     22         -1.411309   1.000000
     23          1.664515   1.000000
     24          1.665557   1.000000
     25          4.809498   1.000000
     26          4.811279   1.000000
     27          5.822744   0.000000
     28          5.823811   0.000000
     29          7.646882   0.000000
     30          7.648496   0.000000
     31          9.545247   0.000000
     32          9.546502   0.000000
     33         10.643097   0.000000
     34         10.644366   0.000000
     35         13.351006   0.000000
     36         13.352290   0.000000
     37         13.472449   0.000000
     38         13.473554   0.000000
     39         15.401689   0.000000
     40         15.403972   0.000000
     41         17.571813   0.000000
     42         17.574429   0.000000
     43         18.437010   0.000000
     44         18.438586   0.000000
     45         19.682712   0.000000
     46         19.684441   0.000000
     47         21.287713   0.000000
     48         21.289719   0.000000
 
  0.5000000E+00  0.1181646E-16  0.0000000E+00  0.1953125E-02
      1         -7.068370   1.000000
      2         -7.068337   1.000000
      3         -7.062316   1.000000
      4         -7.062187   1.000000
      5         -7.017146   1.000000
      6         -7.017030   1.000000
      7         -7.010667   1.000000
      8         -7.010556   1.000000
      9         -5.000244   1.000000
     10         -5.000146   1.000000
     11         -4.958098   1.000000
     12         -4.957979   1.000000
     13         -4.910979   1.000000
     14         -4.910820   1.000000
     15         -4.876378   1.000000
     16         -4.876290   1.000000
     17         -4.739402   1.000000
     18         -4.739333   1.000000
     19         -4.567417   1.000000
     20         -4.567335   1.000000
     21         -0.153358   1.000000
     22         -0.152329   1.000000
     23          0.956493   1.000000
     24          0.957870   1.000000
     25          4.814192   1.000000
     26          4.815964   1.000000
     27          5.883807   0.000000
     28          5.885426   0.000000
     29          7.070055   0.000000
     30          7.071139   0.000000
     31          9.158607   0.000000
     32          9.160230   0.000000
     33          9.248177   0.000000
     34          9.249527   0.000000
     35         13.051203   0.000000
     36         13.052236   0.000000
     37         13.224671   0.000000
     38         13.226979   0.000000
     39         15.116154   0.000000
     40         15.118406   0.000000
     41         17.496335   0.000000
     42         17.498933   0.000000
     43         18.339267   0.000000
     44         18.340809   0.000000
     45         20.894337   0.000000
     46         20.895809   0.000000
     47         21.608188   0.000000
     48         21.610272   0.000000
 
  0.5000000E+00  0.5000000E+00  0.0000000E+00  0.1953125E-02
      1         -7.068414   1.000000
      2         -7.068305   1.000000
      3         -7.062341   1.000000
      4         -7.062180   1.000000
      5         -7.017114   1.000000
      6         -7.017045   1.000000
      7         -7.010634   1.000000
      8         -7.010576   1.000000
      9         -5.000271   1.000000
     10         -5.000119   1.000000
     11         -4.958104   1.000000
     12         -4.957978   1.000000
     13         -4.910924   1.000000
     14         -4.910869   1.000000
     15         -4.876379   1.000000
     16         -4.876290   1.000000
     17         -4.739426   1.000000
     18         -4.739310   1.000000
     19         -4.567408   1.000000
     20         -4.567351   1.000000
     21         -0.153340   1.000000
     22         -0.152321   1.000000
     23          0.956499   1.000000
     24          0.957881   1.000000
     25          4.814178   1.000000
     26          4.815965   1.000000
     27          5.883901   0.000000
     28          5.885313   0.000000
     29          7.070376   0.000000
     30          7.070808   0.000000
     31          9.158602   0.000000
     32          9.160233   0.000000
     33          9.248113   0.000000
     34          9.249530   0.000000
     35         13.051061   0.000000
     36         13.052291   0.000000
     37         13.224691   0.000000
     38         13.226962   0.000000
     39         15.116119   0.000000
     40         15.118453   0.000000
     41         17.496370   0.000000
     42         17.498969   0.000000
     43         18.339241   0.000000
     44         18.340820   0.000000
     45         20.894345   0.000000
     46         20.895793   0.000000
     47         21.608173   0.000000
     48         21.610246   0.000000
 
  0.0000000E+00  0.5000000E+00  0.0000000E+00  0.1953125E-02
      1         -7.068394   1.000000
      2         -7.068313   1.000000
      3         -7.062324   1.000000
      4         -7.062179   1.000000
      5         -7.017135   1.000000
      6         -7.017040   1.000000
      7         -7.010656   1.000000
      8         -7.010568   1.000000
      9         -5.000259   1.000000
     10         -5.000131   1.000000
     11         -4.958099   1.000000
     12         -4.957977   1.000000
     13         -4.910960   1.000000
     14         -4.910840   1.000000
     15         -4.876378   1.000000
     16         -4.876289   1.000000
     17         -4.739416   1.000000
     18         -4.739320   1.000000
     19         -4.567411   1.000000
     20         -4.567341   1.000000
     21         -0.153356   1.000000
     22         -0.152332   1.000000
     23          0.956492   1.000000
     24          0.957872   1.000000
     25          4.814188   1.000000
     26          4.815967   1.000000
     27          5.883857   0.000000
     28          5.885376   0.000000
     29          7.070185   0.000000
     30          7.071009   0.000000
     31          9.158605   0.000000
     32          9.160232   0.000000
     33          9.248160   0.000000
     34          9.249544   0.000000
     35         13.051151   0.000000
     36         13.052288   0.000000
     37         13.224680   0.000000
     38         13.226970   0.000000
     39         15.116133   0.000000
     40         15.118427   0.000000
     41         17.496335   0.000000
     42         17.498934   0.000000
     43         18.339257   0.000000
     44         18.340818   0.000000
     45         20.894343   0.000000
     46         20.895803   0.000000
     47         21.608191   0.000000
     48         21.610269   0.000000
 
  0.2500000E+00  0.1250000E+00  0.0000000E+00  0.3906250E-02
      1         -7.079063   1.000000
      2         -7.079006   1.000000
      3         -7.054997   1.000000
      4         -7.054920   1.000000
      5         -7.052038   1.000000
      6         -7.051911   1.000000
      7         -7.001053   1.000000
      8         -7.000967   1.000000
      9         -4.996101   1.000000
     10         -4.996004   1.000000
     11         -4.951940   1.000000
     12         -4.951853   1.000000
     13         -4.928507   1.000000
     14         -4.928389   1.000000
     15         -4.878951   1.000000
     16         -4.878832   1.000000
     17         -4.802887   1.000000
     18         -4.802816   1.000000
     19         -4.702194   1.000000
     20         -4.702122   1.000000
     21         -3.000639   1.000000
     22         -2.999167   1.000000
     23          1.116051   1.000000
     24          1.117277   1.000000
     25          4.068747   1.000000
     26          4.070170   1.000000
     27          8.395236   0.000000
     28          8.396568   0.000000
     29          9.227577   0.000000
     30          9.229265   0.000000
     31         12.124071   0.000000
     32         12.124956   0.000000
     33         13.247176   0.000000
     34         13.247974   0.000000
     35         14.348314   0.000000
     36         14.348994   0.000000
     37         15.681510   0.000000
     38         15.683208   0.000000
     39         15.836960   0.000000
     40         15.838693   0.000000
     41         16.643245   0.000000
     42         16.645224   0.000000
     43         18.002210   0.000000
     44         18.004037   0.000000
     45         20.065620   0.000000
     46         20.066903   0.000000
     47         20.430109   0.000000
     48         20.431366   0.000000
 
  0.1250000E+00  0.2500000E+00  0.0000000E+00  0.3906250E-02
      1         -7.079074   1.000000
      2         -7.078996   1.000000
      3         -7.055014   1.000000
      4         -7.054903   1.000000
      5         -7.052019   1.000000
      6         -7.051930   1.000000
      7         -7.001041   1.000000
      8         -7.000980   1.000000
      9         -4.996111   1.000000
     10         -4.995994   1.000000
     11         -4.951947   1.000000
     12         -4.951846   1.000000
     13         -4.928510   1.000000
     14         -4.928387   1.000000
     15         -4.878948   1.000000
     16         -4.878835   1.000000
     17         -4.802880   1.000000
     18         -4.802824   1.000000
     19         -4.702195   1.000000
     20         -4.702121   1.000000
     21         -3.000639   1.000000
     22         -2.999167   1.000000
     23          1.116051   1.000000
     24          1.117277   1.000000
     25          4.068748   1.000000
     26          4.070169   1.000000
     27          8.395239   0.000000
     28          8.396564   0.000000
     29          9.227575   0.000000
     30          9.229266   0.000000
     31         12.124096   0.000000
     32         12.124931   0.000000
     33         13.247154   0.000000
     34         13.247996   0.000000
     35         14.348190   0.000000
     36         14.349117   0.000000
     37         15.681274   0.000000
     38         15.683449   0.000000
     39         15.836726   0.000000
     40         15.838921   0.000000
     41         16.643244   0.000000
     42         16.645226   0.000000
     43         18.002197   0.000000
     44         18.004049   0.000000
     45         20.065399   0.000000
     46         20.067125   0.000000
     47         20.429892   0.000000
     48         20.431582   0.000000
 
 -0.1250000E+00  0.1250000E+00  0.0000000E+00  0.3906250E-02
      1         -7.079040   1.000000
      2         -7.079018   1.000000
      3         -7.055001   1.000000
      4         -7.054925   1.000000
      5         -7.052037   1.000000
      6         -7.051908   1.000000
      7         -7.001066   1.000000
      8         -7.000960   1.000000
      9         -4.996101   1.000000
     10         -4.996005   1.000000
     11         -4.951927   1.000000
     12         -4.951859   1.000000
     13         -4.928499   1.000000
     14         -4.928402   1.000000
     15         -4.878962   1.000000
     16         -4.878825   1.000000
     17         -4.802888   1.000000
     18         -4.802812   1.000000
     19         -4.702187   1.000000
     20         -4.702124   1.000000
     21         -3.000642   1.000000
     22         -2.999170   1.000000
     23          1.116048   1.000000
     24          1.117275   1.000000
     25          4.068745   1.000000
     26          4.070172   1.000000
     27          8.395236   0.000000
     28          8.396573   0.000000
     29          9.227584   0.000000
     30          9.229271   0.000000
     31         12.124060   0.000000
     32         12.124984   0.000000
     33         13.247206   0.000000
     34         13.247968   0.000000
     35         14.348527   0.000000
     36         14.348786   0.000000
     37         15.681850   0.000000
     38         15.682874   0.000000
     39         15.837284   0.000000
     40         15.838381   0.000000
     41         16.643244   0.000000
     42         16.645221   0.000000
     43         18.002223   0.000000
     44         18.004026   0.000000
     45         20.065970   0.000000
     46         20.066538   0.000000
     47         20.430450   0.000000
     48         20.431016   0.000000
 
  0.3750000E+00  0.1250000E+00  0.0000000E+00  0.3906250E-02
      1         -7.072807   1.000000
      2         -7.072769   1.000000
      3         -7.045012   1.000000
      4         -7.044902   1.000000
      5         -7.033311   1.000000
      6         -7.033217   1.000000
      7         -7.003424   1.000000
      8         -7.003330   1.000000