Tl                                      
           1
     3.592550    0.000000    0.000000
     1.796275    3.111240    0.000000
     0.000000    0.000000    5.641950
   Tl
     2
Direct configuration=     1
   0.00000000  0.00000000  0.00000000
   0.33333333  0.33333333  0.50000000
