Hg                                      
   1.00000000000000     
     4.103050    0.000000    0.000000
     0.000000    4.103050    0.000000
     0.000000    0.000000    3.548310
   Hg
     2
Direct
  0.000000  0.000000  0.000000
  0.500000  0.500000  0.500000
 
   36   36   32
  337.79      326.46      296.60      257.27      215.85      174.86      134.28      95.545      62.405      38.290    
  23.515      15.073      9.8618      6.7132      4.7898      3.5745      2.8182      2.4104      2.2841      2.4104    
  2.8182      3.5745      4.7898      6.7132      9.8618      15.073      23.515      38.290      62.405      95.545    
  134.28      174.86      215.85      257.27      296.60      326.46      326.46      315.86      287.82      250.56    
  210.76      170.81      130.96      92.956      60.624      37.252      22.990      14.792      9.7107      6.6351    
  4.7503      3.5558      2.8114      2.4100      2.2857      2.4100      2.8114      3.5558      4.7503      6.6351    
  9.7107      14.792      22.990      37.252      60.624      92.956      130.96      170.81      210.76      250.56    
  287.82      315.86      296.60      287.82      264.30      232.14      196.39      159.12      121.34      85.522    
  55.578      34.347      21.520      13.990      9.2807      6.4122      4.6371      3.5025      2.7925      2.4098    
  2.2914      2.4098      2.7925      3.5025      4.6371      6.4122      9.2806      13.990      21.520      34.347    
  55.578      85.522      121.34      159.12      196.39      232.14      264.30      287.82      257.27      250.56    
  232.14      205.78      174.77      141.01      106.44      74.237      48.118      30.143      19.374      12.790    
  8.6353      6.0753      4.4653      3.4226      2.7664      2.4127      2.3036      2.4127      2.7664      3.4226    
  4.4653      6.0753      8.6353      12.790      19.374      30.143      48.118      74.237      106.44      141.01    
  174.77      205.78      232.14      250.56      215.85      210.76      196.39      174.77      148.02      118.20    
  87.943      60.689      39.492      25.397      16.857      11.356      7.8611      5.6671      4.2564      3.3282    
  2.7407      2.4242      2.3267      2.4242      2.7407      3.3282      4.2564      5.6670      7.8611      11.356    
  16.857      25.397      39.492      60.689      87.943      118.20      148.02      174.77      196.39      210.76    
  174.86      170.81      159.12      141.01      118.20      92.942      68.141      46.833      31.044      20.796    
  14.232      9.8613      7.0467      5.2324      4.0348      3.2344      2.7256      2.4519      2.3677      2.4519    
  2.7256      3.2344      4.0348      5.2324      7.0467      9.8613      14.232      20.796      31.044      46.833    
  68.141      92.942      118.20      141.01      159.12      170.81      134.28      130.96      121.34      106.44    
  87.943      68.141      49.614      34.532      23.803      16.687      11.760      8.4489      6.2651      4.8110    
  3.8247      3.1573      2.7329      2.5052      2.4352      2.5052      2.7329      3.1573      3.8247      4.8110    
  6.2651      8.4489      11.760      16.687      23.803      34.532      49.614      68.141      87.943      106.44    
  121.34      130.96      95.545      92.956      85.522      74.237      60.689      46.833      34.532      24.951    
  18.111      13.141      9.6181      7.2080      5.5655      4.4333      3.6475      3.1127      2.7745      2.5938    
  2.5383      2.5938      2.7745      3.1127      3.6475      4.4333      5.5655      7.2080      9.6181      13.141    
  18.111      24.951      34.532      46.833      60.689      74.237      85.522      92.956      62.405      60.624    
  55.578      48.118      39.492      31.044      23.803      18.111      13.649      10.287      7.8754      6.1752    
  4.9735      4.1203      3.5202      3.1139      2.8604      2.7262      2.6850      2.7262      2.8604      3.1139    
  3.5202      4.1203      4.9735      6.1752      7.8754      10.287      13.649      18.111      23.803      31.044    
  39.492      48.118      55.578      60.624      38.290      37.252      34.347      30.143      25.397      20.796    
  16.687      13.141      10.287      8.1168      6.5165      5.3486      4.4979      3.8844      3.4548      3.1700    
  2.9971      2.9075      2.8803      2.9075      2.9971      3.1700      3.4548      3.8844      4.4979      5.3486    
  6.5165      8.1168      10.287      13.141      16.687      20.796      25.397      30.143      34.347      37.252    
  23.515      22.990      21.520      19.374      16.857      14.232      11.760      9.6181      7.8754      6.5165    
  5.4827      4.7079      4.1376      3.7311      3.4563      3.2838      3.1858      3.1381      3.1241      3.1381    
  3.1858      3.2838      3.4563      3.7311      4.1376      4.7079      5.4826      6.5165      7.8754      9.6181    
  11.760      14.232      16.857      19.374      21.520      22.990      15.073      14.792      13.990      12.790    
  11.356      9.8613      8.4489      7.2080      6.1752      5.3486      4.7079      4.2282      3.8860      3.6587    
  3.5222      3.4513      3.4214      3.4122      3.4106      3.4122      3.4214      3.4513      3.5222      3.6586    
  3.8860      4.2282      4.7079      5.3486      6.1752      7.2080      8.4489      9.8613      11.356      12.790    
  13.990      14.792      9.8618      9.7107      9.2807      8.6353      7.8611      7.0467      6.2651      5.5655    
  4.9735      4.4979      4.1376      3.8860      3.7317      3.6576      3.6419      3.6609      3.6921      3.7181    
  3.7280      3.7181      3.6921      3.6609      3.6419      3.6576      3.7317      3.8860      4.1376      4.4979    
  4.9735      5.5655      6.2651      7.0467      7.8611      8.6353      9.2806      9.7107      6.7132      6.6351    
  6.4122      6.0753      5.6671      5.2324      4.8110      4.4333      4.1203      3.8844      3.7311      3.6587    
  3.6576      3.7113      3.7982      3.8948      3.9802      4.0381      4.0585      4.0381      3.9802      3.8948    
  3.7982      3.7113      3.6576      3.6586      3.7311      3.8844      4.1203      4.4333      4.8110      5.2324    
  5.6670      6.0753      6.4122      6.6351      4.7898      4.7503      4.6371      4.4653      4.2564      4.0348    
  3.8247      3.6475      3.5202      3.4548      3.4563      3.5222      3.6419      3.7982      3.9689      4.1310    
  4.2635      4.3499      4.3798      4.3499      4.2635      4.1310      3.9689      3.7982      3.6419      3.5222    
  3.4563      3.4548      3.5202      3.6475      3.8247      4.0348      4.2564      4.4653      4.6371      4.7503    
  3.5745      3.5558      3.5025      3.4226      3.3282      3.2344      3.1573      3.1127      3.1139      3.1700    
  3.2838      3.4513      3.6609      3.8948      4.1310      4.3460      4.5178      4.6286      4.6669      4.6286    
  4.5178      4.3460      4.1310      3.8948      3.6609      3.4513      3.2838      3.1700      3.1139      3.1127    
  3.1573      3.2344      3.3282      3.4226      3.5025      3.5558      2.8182      2.8114      2.7925      2.7664    
  2.7407      2.7256      2.7329      2.7745      2.8604      2.9971      3.1858      3.4214      3.6921      3.9802    
  4.2635      4.5178      4.7197      4.8497      4.8945      4.8497      4.7197      4.5178      4.2635      3.9802    
  3.6921      3.4214      3.1858      2.9971      2.8604      2.7745      2.7329      2.7256      2.7407      2.7664    
  2.7925      2.8114      2.4104      2.4100      2.4098      2.4127      2.4242      2.4519      2.5052      2.5938    
  2.7262      2.9075      3.1381      3.4122      3.7181      4.0381      4.3499      4.6286      4.8497      4.9920    
  5.0411      4.9920      4.8497      4.6286      4.3499      4.0381      3.7181      3.4122      3.1381      2.9075    
  2.7262      2.5938      2.5052      2.4519      2.4242      2.4127      2.4098      2.4100      2.2841      2.2857    
  2.2914      2.3036      2.3267      2.3677      2.4352      2.5383      2.6850      2.8803      3.1241      3.4106    
  3.7280      4.0585      4.3798      4.6669      4.8945      5.0411      5.0917      5.0411      4.8945      4.6669    
  4.3798      4.0585      3.7280      3.4106      3.1241      2.8803      2.6850      2.5383      2.4352      2.3677    
  2.3267      2.3036      2.2914      2.2857      2.4104      2.4100      2.4098      2.4127      2.4242      2.4519    
  2.5052      2.5938      2.7262      2.9075      3.1381      3.4122      3.7181      4.0381      4.3499      4.6286    
  4.8497      4.9920      5.0411      4.9920      4.8497      4.6286      4.3499      4.0381      3.7181      3.4122    
  3.1381      2.9075      2.7262      2.5938      2.5052      2.4519      2.4242      2.4127      2.4098      2.4100    
  2.8182      2.8114      2.7925      2.7664      2.7407      2.7256      2.7329      2.7745      2.8604      2.9971    
  3.1858      3.4214      3.6921      3.9802      4.2635      4.5178      4.7197      4.8497      4.8945      4.8497    
  4.7197      4.5178      4.2635      3.9802      3.6921      3.4214      3.1858      2.9971      2.8604      2.7745    
  2.7329      2.7256      2.7407      2.7664      2.7925      2.8114      3.5745      3.5558      3.5025      3.4226    
  3.3282      3.2344      3.1573      3.1127      3.1139      3.1700      3.2838      3.4513      3.6609      3.8948    
  4.1310      4.3460      4.5178      4.6286      4.6669      4.6286      4.5178      4.3460      4.1310      3.8948    
  3.6609      3.4513      3.2838      3.1700      3.1139      3.1127      3.1573      3.2344      3.3282      3.4226    
  3.5025      3.5558      4.7898      4.7503      4.6371      4.4653      4.2564      4.0348      3.8247      3.6475    
  3.5202      3.4548      3.4563      3.5222      3.6419      3.7982      3.9689      4.1310      4.2635      4.3499    
  4.3798      4.3499      4.2635      4.1310      3.9689      3.7982      3.6419      3.5222      3.4563      3.4548    
  3.5202      3.6475      3.8247      4.0348      4.2564      4.4653      4.6371      4.7503      6.7132      6.6351    
  6.4122      6.0753      5.6670      5.2324      4.8110      4.4333      4.1203      3.8844      3.7311      3.6586    
  3.6576      3.7113      3.7982      3.8948      3.9802      4.0381      4.0585      4.0381      3.9802      3.8948    
  3.7982      3.7113      3.6576      3.6587      3.7311      3.8844      4.1203      4.4333      4.8110      5.2324    
  5.6671      6.0753      6.4122      6.6351      9.8618      9.7107      9.2806      8.6353      7.8611      7.0467    
  6.2651      5.5655      4.9735      4.4979      4.1376      3.8860      3.7317      3.6576      3.6419      3.6609    
  3.6921      3.7181      3.7280      3.7181      3.6921      3.6609      3.6419      3.6576      3.7317      3.8860    
  4.1376      4.4979      4.9735      5.5655      6.2651      7.0467      7.8611      8.6353      9.2807      9.7107    
  15.073      14.792      13.990      12.790      11.356      9.8613      8.4489      7.2080      6.1752      5.3486    
  4.7079      4.2282      3.8860      3.6586      3.5222      3.4513      3.4214      3.4122      3.4106      3.4122    
  3.4214      3.4513      3.5222      3.6587      3.8860      4.2282      4.7079      5.3486      6.1752      7.2080    
  8.4489      9.8613      11.356      12.790      13.990      14.792      23.515      22.990      21.520      19.374    
  16.857      14.232      11.760      9.6181      7.8754      6.5165      5.4826      4.7079      4.1376      3.7311    
  3.4563      3.2838      3.1858      3.1381      3.1241      3.1381      3.1858      3.2838      3.4563      3.7311    
  4.1376      4.7079      5.4827      6.5165      7.8754      9.6181      11.760      14.232      16.857      19.374    
  21.520      22.990      38.290      37.252      34.347      30.143      25.397      20.796      16.687      13.141    
  10.287      8.1168      6.5165      5.3486      4.4979      3.8844      3.4548      3.1700      2.9971      2.9075    
  2.8803      2.9075      2.9971      3.1700      3.4548      3.8844      4.4979      5.3486      6.5165      8.1168    
  10.287      13.141      16.687      20.796      25.397      30.143      34.347      37.252      62.405      60.624    
  55.578      48.118      39.492      31.044      23.803      18.111      13.649      10.287      7.8754      6.1752    
  4.9735      4.1203      3.5202      3.1139      2.8604      2.7262      2.6850      2.7262      2.8604      3.1139    
  3.5202      4.1203      4.9735      6.1752      7.8754      10.287      13.649      18.111      23.803      31.044    
  39.492      48.118      55.578      60.624      95.545      92.956      85.522      74.237      60.689      46.833    
  34.532      24.951      18.111      13.141      9.6181      7.2080      5.5655      4.4333      3.6475      3.1127    
  2.7745      2.5938      2.5383      2.5938      2.7745      3.1127      3.6475      4.4333      5.5655      7.2080    
  9.6181      13.141      18.111      24.951      34.532      46.833      60.689      74.237      85.522      92.956    
  134.28      130.96      121.34      106.44      87.943      68.141      49.614      34.532      23.803      16.687    
  11.760      8.4489      6.2651      4.8110      3.8247      3.1573      2.7329      2.5052      2.4352      2.5052    
  2.7329      3.1573      3.8247      4.8110      6.2651      8.4489      11.760      16.687      23.803      34.532    
  49.614      68.141      87.943      106.44      121.34      130.96      174.86      170.81      159.12      141.01    
  118.20      92.942      68.141      46.833      31.044      20.796      14.232      9.8613      7.0467      5.2324    
  4.0348      3.2344      2.7256      2.4519      2.3677      2.4519      2.7256      3.2344      4.0348      5.2324    
  7.0467      9.8613      14.232      20.796      31.044      46.833      68.141      92.942      118.20      141.01    
  159.12      170.81      215.85      210.76      196.39      174.77      148.02      118.20      87.943      60.689    
  39.492      25.397      16.857      11.356      7.8611      5.6670      4.2564      3.3282      2.7407      2.4242    
  2.3267      2.4242      2.7407      3.3282      4.2564      5.6671      7.8611      11.356      16.857      25.397    
  39.492      60.689      87.943      118.20      148.02      174.77      196.39      210.76      257.27      250.56    
  232.14      205.78      174.77      141.01      106.44      74.237      48.118      30.143      19.374      12.790    
  8.6353      6.0753      4.4653      3.4226      2.7664      2.4127      2.3036      2.4127      2.7664      3.4226    
  4.4653      6.0753      8.6353      12.790      19.374      30.143      48.118      74.237      106.44      141.01    
  174.77      205.78      232.14      250.56      296.60      287.82      264.30      232.14      196.39      159.12    
  121.34      85.522      55.578      34.347      21.520      13.990      9.2806      6.4122      4.6371      3.5025    
  2.7925      2.4098      2.2914      2.4098      2.7925      3.5025      4.6371      6.4122      9.2807      13.990    
  21.520      34.347      55.578      85.522      121.34      159.12      196.39      232.14      264.30      287.82    
  326.46      315.86      287.82      250.56      210.76      170.81      130.96      92.956      60.624      37.252    
  22.990      14.792      9.7107      6.6351      4.7503      3.5558      2.8114      2.4100      2.2857      2.4100    
  2.8114      3.5558      4.7503      6.6351      9.7107      14.792      22.990      37.252      60.624      92.956    
  130.96      170.81      210.76      250.56      287.82      315.86      327.04      316.40      288.27      250.90    
  211.03      171.02      131.13      93.091      60.715      37.303      23.013      14.802      9.7135      6.6336    
  4.7465      3.5506      2.8054      2.4037      2.2793      2.4037      2.8054      3.5506      4.7465      6.6336    
  9.7135      14.802      23.013      37.303      60.715      93.091      131.13      171.02      211.03      250.90    
  288.27      316.40      316.40      306.44      279.97      244.48      206.09      167.04      127.87      90.555    
  58.982      36.299      22.506      14.528      9.5666      6.5579      4.7084      3.5329      2.7994      2.4039    
  2.2815      2.4039      2.7994      3.5329      4.7084      6.5579      9.5666      14.528      22.506      36.299    
  58.982      90.555      127.87      167.04      206.09      244.48      279.97      306.44      288.27      279.97    
  257.61      226.78      192.09      155.57      118.41      83.280      54.076      33.490      21.084      13.748    
  9.1489      6.3418      4.5992      3.4824      2.7827      2.4056      2.2890      2.4056      2.7827      3.4824    
  4.5992      6.3418      9.1489      13.748      21.084      33.490      54.076      83.280      118.41      155.57    
  192.09      226.78      257.61      279.97      250.90      244.48      226.78      201.25      170.94      137.76    
  103.78      72.255      46.834      29.429      19.004      12.580      8.5219      6.0152      4.4339      3.4073    
  2.7606      2.4120      2.3045      2.4120      2.7606      3.4073      4.4338      6.0152      8.5219      12.580    
  19.004      29.429      46.833      72.255      103.78      137.76      170.94      201.25      226.78      244.48    
  211.03      206.09      192.09      170.94      144.66      115.33      85.655      59.053      38.476      24.846    
  16.555      11.185      7.7698      5.6199      4.2336      3.3197      2.7408      2.4291      2.3331      2.4291    
  2.7408      3.3197      4.2336      5.6199      7.7698      11.185      16.555      24.846      38.476      59.053    
  85.655      115.33      144.66      170.94      192.09      206.09      171.02      167.04      155.57      137.76    
  115.33      90.550      66.314      45.594      30.309      20.395      13.998      9.7314      6.9792      5.2002    
  4.0230      3.2352      2.7344      2.4650      2.3822      2.4650      2.7344      3.2352      4.0230      5.2002    
  6.9792      9.7314      13.998      20.395      30.309      45.594      66.314      90.550      115.33      137.76    
  155.57      167.04      131.13      127.87      118.41      103.78      85.655      66.314      48.293      33.684    
  23.313      16.398      11.591      8.3583      6.2215      4.7953      3.8263      3.1703      2.7535      2.5299    
  2.4612      2.5299      2.7535      3.1703      3.8263      4.7953      6.2215      8.3582      11.591      16.398    
  23.313      33.684      48.293      66.314      85.655      103.78      118.41      127.87      93.091      90.555    
  83.280      72.255      59.053      45.594      33.684      24.424      17.791      12.943      9.5066      7.1527    
  5.5454      4.4357      3.6652      3.1413      2.8106      2.6342      2.5799      2.6342      2.8106      3.1413    
  3.6652      4.4357      5.5454      7.1527      9.5066      12.943      17.791      24.424      33.684      45.594    
  59.053      72.255      83.280      90.555      60.715      58.982      54.076      46.834      38.476      30.309    
  23.313      17.791      13.440      10.164      7.8111      6.1508      4.9764      4.1426      3.5572      3.1618    
  2.9160      2.7864      2.7466      2.7864      2.9160      3.1618      3.5572      4.1426      4.9764      6.1508    
  7.8111      10.164      13.440      17.791      23.313      30.309      38.476      46.833      54.076      58.982    
  37.303      36.299      33.490      29.429      24.846      20.395      16.398      12.943      10.164      8.0491    
  6.4896      5.3516      4.5238      3.9286      3.5137      3.2406      3.0761      2.9915      2.9659      2.9915    
  3.0761      3.2406      3.5137      3.9286      4.5238      5.3516      6.4896      8.0491      10.164      12.943    
  16.398      20.395      24.846      29.429      33.490      36.299      23.013      22.506      21.084      19.004    
  16.555      13.998      11.591      9.5066      7.8111      6.4896      5.4856      4.7356      4.1866      3.7987    
  3.5396      3.3799      3.2913      3.2492      3.2372      3.2492      3.2913      3.3799      3.5396      3.7987    
  4.1866      4.7356      5.4856      6.4896      7.8111      9.5066      11.591      13.998      16.555      19.004    
  21.084      22.506      14.802      14.528      13.748      12.580      11.185      9.7314      8.3583      7.1527    
  6.1508      5.3516      4.7356      4.2790      3.9582      3.7506      3.6314      3.5748      3.5557      3.5531    
  3.5538      3.5531      3.5557      3.5748      3.6314      3.7506      3.9582      4.2790      4.7356      5.3516    
  6.1508      7.1527      8.3582      9.7314      11.185      12.580      13.748      14.528      9.7135      9.5666    
  9.1489      8.5219      7.7698      6.9792      6.2215      5.5454      4.9764      4.5238      4.1866      3.9582    
  3.8266      3.7739      3.7776      3.8128      3.8564      3.8902      3.9028      3.8902      3.8564      3.8128    
  3.7776      3.7739      3.8266      3.9582      4.1866      4.5238      4.9764      5.5454      6.2215      6.9792    
  7.7698      8.5219      9.1489      9.5666      6.6336      6.5579      6.3418      6.0152      5.6199      5.2002    
  4.7953      4.4357      4.1426      3.9286      3.7987      3.7506      3.7739      3.8512      3.9596      4.0749    
  4.1747      4.2418      4.2654      4.2418      4.1747      4.0749      3.9596      3.8512      3.7739      3.7506    
  3.7987      3.9286      4.1426      4.4357      4.7953      5.2002      5.6199      6.0152      6.3418      6.5579    
  4.7465      4.7084      4.5992      4.4339      4.2336      4.0230      3.8263      3.6652      3.5572      3.5137    
  3.5396      3.6314      3.7776      3.9596      4.1545      4.3379      4.4871      4.5842      4.6179      4.5842    
  4.4871      4.3379      4.1545      3.9596      3.7776      3.6314      3.5396      3.5137      3.5572      3.6652    
  3.8263      4.0230      4.2336      4.4338      4.5992      4.7084      3.5506      3.5329      3.4824      3.4073    
  3.3197      3.2352      3.1703      3.1413      3.1618      3.2406      3.3799      3.5748      3.8128      4.0749    
  4.3379      4.5767      4.7675      4.8906      4.9332      4.8906      4.7675      4.5767      4.3379      4.0749    
  3.8128      3.5748      3.3799      3.2406      3.1618      3.1413      3.1703      3.2352      3.3197      3.4073    
  3.4824      3.5329      2.8054      2.7994      2.7827      2.7606      2.7408      2.7344      2.7535      2.8106    
  2.9160      3.0761      3.2913      3.5557      3.8564      4.1747      4.4871      4.7675      4.9904      5.1341    
  5.1838      5.1341      4.9904      4.7675      4.4871      4.1747      3.8564      3.5556      3.2913      3.0761    
  2.9160      2.8106      2.7535      2.7344      2.7408      2.7606      2.7827      2.7994      2.4037      2.4039    
  2.4056      2.4120      2.4291      2.4650      2.5299      2.6342      2.7864      2.9915      3.2492      3.5531    
  3.8902      4.2418      4.5842      4.8906      5.1341      5.2911      5.3453      5.2911      5.1341      4.8906    
  4.5842      4.2418      3.8902      3.5531      3.2492      2.9915      2.7864      2.6342      2.5299      2.4650    
  2.4291      2.4120      2.4056      2.4039      2.2793      2.2815      2.2890      2.3045      2.3331      2.3822    
  2.4612      2.5799      2.7466      2.9659      3.2372      3.5538      3.9028      4.2654      4.6179      4.9332    
  5.1838      5.3453      5.4012      5.3453      5.1838      4.9332      4.6179      4.2654      3.9028      3.5538    
  3.2372      2.9659      2.7466      2.5799      2.4612      2.3822      2.3331      2.3045      2.2890      2.2815    
  2.4037      2.4039      2.4056      2.4120      2.4291      2.4650      2.5299      2.6342      2.7864      2.9915    
  3.2492      3.5531      3.8902      4.2418      4.5842      4.8906      5.1341      5.2911      5.3453      5.2911    
  5.1341      4.8906      4.5842      4.2418      3.8902      3.5531      3.2492      2.9915      2.7864      2.6342    
  2.5299      2.4650      2.4291      2.4120      2.4056      2.4039      2.8054      2.7994      2.7827      2.7606    
  2.7408      2.7344      2.7535      2.8106      2.9160      3.0761      3.2913      3.5557      3.8564      4.1747    
  4.4871      4.7675      4.9904      5.1341      5.1838      5.1341      4.9904      4.7675      4.4871      4.1747    
  3.8564      3.5557      3.2913      3.0761      2.9160      2.8106      2.7535      2.7344      2.7408      2.7606    
  2.7827      2.7994      3.5506      3.5329      3.4824      3.4073      3.3197      3.2352      3.1703      3.1413    
  3.1618      3.2406      3.3799      3.5748      3.8128      4.0749      4.3379      4.5767      4.7675      4.8906    
  4.9332      4.8906      4.7675      4.5767      4.3379      4.0749      3.8128      3.5748      3.3799      3.2406    
  3.1618      3.1413      3.1703      3.2352      3.3197      3.4073      3.4824      3.5329      4.7465      4.7084    
  4.5992      4.4338      4.2336      4.0230      3.8263      3.6652      3.5572      3.5137      3.5396      3.6314    
  3.7776      3.9596      4.1545      4.3379      4.4871      4.5842      4.6179      4.5842      4.4871      4.3379    
  4.1545      3.9596      3.7776      3.6314      3.5396      3.5137      3.5572      3.6652      3.8263      4.0230    
  4.2336      4.4339      4.5992      4.7084      6.6336      6.5579      6.3418      6.0152      5.6199      5.2002    
  4.7953      4.4357      4.1426      3.9286      3.7987      3.7506      3.7739      3.8512      3.9596      4.0749    
  4.1747      4.2418      4.2654      4.2418      4.1747      4.0749      3.9596      3.8512      3.7739      3.7506    
  3.7987      3.9286      4.1426      4.4357      4.7953      5.2002      5.6199      6.0152      6.3418      6.5579    
  9.7135      9.5666      9.1489      8.5219      7.7698      6.9792      6.2215      5.5454      4.9764      4.5238    
  4.1866      3.9582      3.8266      3.7739      3.7776      3.8128      3.8564      3.8902      3.9028      3.8902    
  3.8564      3.8128      3.7776      3.7739      3.8266      3.9582      4.1866      4.5238      4.9764      5.5454    
  6.2215      6.9792      7.7698      8.5219      9.1489      9.5666      14.802      14.528      13.748      12.580    
  11.185      9.7314      8.3582      7.1527      6.1508      5.3516      4.7356      4.2790      3.9582      3.7506    
  3.6314      3.5748      3.5556      3.5531      3.5538      3.5531      3.5557      3.5748      3.6314      3.7506    
  3.9582      4.2790      4.7356      5.3516      6.1508      7.1527      8.3583      9.7314      11.185      12.580    
  13.748      14.528      23.013      22.506      21.084      19.004      16.555      13.998      11.591      9.5066    
  7.8111      6.4896      5.4856      4.7356      4.1866      3.7987      3.5396      3.3799      3.2913      3.2492    
  3.2372      3.2492      3.2913      3.3799      3.5396      3.7987      4.1866      4.7356      5.4856      6.4896    
  7.8111      9.5066      11.591      13.998      16.555      19.004      21.084      22.506      37.303      36.299    
  33.490      29.429      24.846      20.395      16.398      12.943      10.164      8.0491      6.4896      5.3516    
  4.5238      3.9286      3.5137      3.2406      3.0761      2.9915      2.9659      2.9915      3.0761      3.2406    
  3.5137      3.9286      4.5238      5.3516      6.4896      8.0491      10.164      12.943      16.398      20.395    
  24.846      29.429      33.490      36.299      60.715      58.982      54.076      46.833      38.476      30.309    
  23.313      17.791      13.440      10.164      7.8111      6.1508      4.9764      4.1426      3.5572      3.1618    
  2.9160      2.7864      2.7466      2.7864      2.9160      3.1618      3.5572      4.1426      4.9764      6.1508    
  7.8111      10.164      13.440      17.791      23.313      30.309      38.476      46.834      54.076      58.982    
  93.091      90.555      83.280      72.255      59.053      45.594      33.684      24.424      17.791      12.943    
  9.5066      7.1527      5.5454      4.4357      3.6652      3.1413      2.8106      2.6342      2.5799      2.6342    
  2.8106      3.1413      3.6652      4.4357      5.5454      7.1527      9.5066      12.943      17.791      24.424    
  33.684      45.594      59.053      72.255      83.280      90.555      131.13      127.87      118.41      103.78    
  85.655      66.314      48.293      33.684      23.313      16.398      11.591      8.3582      6.2215      4.7953    
  3.8263      3.1703      2.7535      2.5299      2.4612      2.5299      2.7535      3.1703      3.8263      4.7953    
  6.2215      8.3583      11.591      16.398      23.313      33.684      48.293      66.314      85.655      103.78    
  118.41      127.87      171.02      167.04      155.57      137.76      115.33      90.550      66.314      45.594    
  30.309      20.395      13.998      9.7314      6.9792      5.2002      4.0230      3.2352      2.7344      2.4650    
  2.3822      2.4650      2.7344      3.2352      4.0230      5.2002      6.9792      9.7314      13.998      20.395    
  30.309      45.594      66.314      90.550      115.33      137.76      155.57      167.04      211.03      206.09    