Hg                                      
   1.00000000000000     
     4.103050    0.000000    0.000000
     0.000000    4.103050    0.000000
     0.000000    0.000000    3.548310
   Hg
     2
Direct
  0.000000  0.000000  0.000000
  0.500000  0.500000  0.500000
 
   36   36   32
 0.33779362787E+03 0.32645991893E+03 0.29660200961E+03 0.25726883094E+03 0.21584723717E+03
 0.17485536076E+03 0.13427794322E+03 0.95544905404E+02 0.62405120968E+02 0.38290204225E+02
 0.23514866813E+02 0.15073151928E+02 0.98618099748E+01 0.67131972867E+01 0.47898400041E+01
 0.35744517406E+01 0.28181890041E+01 0.24104480903E+01 0.22840967968E+01 0.24104480903E+01
 0.28181890041E+01 0.35744517406E+01 0.47898400041E+01 0.67131972867E+01 0.98618099748E+01
 0.15073151928E+02 0.23514866813E+02 0.38290204225E+02 0.62405120968E+02 0.95544905404E+02
 0.13427794322E+03 0.17485536076E+03 0.21584723717E+03 0.25726883094E+03 0.29660200961E+03
 0.32645991893E+03 0.32645991894E+03 0.31585981130E+03 0.28782256108E+03 0.25055570894E+03
 0.21075953001E+03 0.17080517509E+03 0.13095657516E+03 0.92955647432E+02 0.60623964306E+02
 0.37252101523E+02 0.22989956902E+02 0.14791571511E+02 0.97106747470E+01 0.66351147718E+01
 0.47503136265E+01 0.35557620336E+01 0.28113640467E+01 0.24100310967E+01 0.22857359789E+01
 0.24100309499E+01 0.28113636872E+01 0.35557614093E+01 0.47503127646E+01 0.66351137635E+01
 0.97106736702E+01 0.14791570340E+02 0.22989955447E+02 0.37252099478E+02 0.60623961463E+02
 0.92955643950E+02 0.13095657161E+03 0.17080517215E+03 0.21075952803E+03 0.25055570781E+03
 0.28782256048E+03 0.31585981103E+03 0.29660200964E+03 0.28782256111E+03 0.26429537026E+03
 0.23213784585E+03 0.19638642601E+03 0.15911920113E+03 0.12133672345E+03 0.85521699102E+02
 0.55578222048E+02 0.34346634029E+02 0.21520122858E+02 0.13990411262E+02 0.92806512556E+01
 0.64121851182E+01 0.46371282774E+01 0.35024816567E+01 0.27925040834E+01 0.24097650457E+01
 0.22914087003E+01 0.24097647679E+01 0.27925034150E+01 0.35024805091E+01 0.46371266985E+01
 0.64121832653E+01 0.92806492632E+01 0.13990409086E+02 0.21520120175E+02 0.34346630311E+02
 0.55578216928E+02 0.85521692842E+02 0.12133671703E+03 0.15911919572E+03 0.19638642224E+03
 0.23213784357E+03 0.26429536898E+03 0.28782256050E+03 0.25726883099E+03 0.25055570900E+03
 0.23213784590E+03 0.20578363644E+03 0.17476628575E+03 0.14101214474E+03 0.10643820387E+03
 0.74236692555E+02 0.48118113261E+02 0.30142541278E+02 0.19373586101E+02 0.12789586820E+02
 0.86352814612E+01 0.60752966074E+01 0.44652891011E+01 0.34225898189E+01 0.27663805905E+01
 0.24127122892E+01 0.23035644200E+01 0.24127119096E+01 0.27663797004E+01 0.34225883163E+01
 0.44652870435E+01 0.60752941798E+01 0.86352788232E+01 0.12789583925E+02 0.19373582573E+02
 0.30142536496E+02 0.48118106765E+02 0.74236684601E+02 0.10643819556E+03 0.14101213745E+03
 0.17476628027E+03 0.20578363275E+03 0.23213784359E+03 0.25055570785E+03 0.21584723725E+03
 0.21075953011E+03 0.19638642611E+03 0.17476628581E+03 0.14802299633E+03 0.11819902885E+03
 0.87943330519E+02 0.60688584248E+02 0.39491935566E+02 0.25396997413E+02 0.16857170942E+02
 0.11355587821E+02 0.78611089834E+01 0.56670518883E+01 0.42563771866E+01 0.33282377719E+01
 0.27406956383E+01 0.24242208708E+01 0.23267348878E+01 0.24242204272E+01 0.27406946275E+01
 0.33282360975E+01 0.42563749027E+01 0.56670491718E+01 0.78611059928E+01 0.11355584526E+02
 0.16857166996E+02 0.25396992216E+02 0.39491928621E+02 0.60688575685E+02 0.87943321265E+02
 0.11819902017E+03 0.14802298910E+03 0.17476628028E+03 0.19638642226E+03 0.21075952808E+03
 0.17485536085E+03 0.17080517522E+03 0.15911920128E+03 0.14101214488E+03 0.11819902893E+03
 0.92942151878E+02 0.68140848581E+02 0.46833098232E+02 0.31044181542E+02 0.20795933892E+02
 0.14232168823E+02 0.98613372698E+01 0.70466604193E+01 0.52323791712E+01 0.40348395202E+01
 0.32343894657E+01 0.27256248971E+01 0.24519272846E+01 0.23677199787E+01 0.24519268177E+01
 0.27256238587E+01 0.32343877706E+01 0.40348372063E+01 0.52323763849E+01 0.70466573077E+01
 0.98613338383E+01 0.14232164813E+02 0.20795928799E+02 0.31044174876E+02 0.46833089932E+02
 0.68140839215E+02 0.92942142390E+02 0.11819902018E+03 0.14101213746E+03 0.15911919575E+03
 0.17080517220E+03 0.13427794332E+03 0.13095657530E+03 0.12133672362E+03 0.10643820404E+03
 0.87943330655E+02 0.68140848650E+02 0.49614357029E+02 0.34532086275E+02 0.23803376877E+02
 0.16686970291E+02 0.11760033255E+02 0.84489350335E+01 0.62650879586E+01 0.48109567193E+01
 0.38247374182E+01 0.31572776350E+01 0.27329272115E+01 0.25051942927E+01 0.24351504044E+01
 0.25051938393E+01 0.27329262156E+01 0.31572760134E+01 0.38247351816E+01 0.48109539773E+01
 0.62650848501E+01 0.84489316149E+01 0.11760029384E+02 0.16686965597E+02 0.23803370923E+02
 0.34532078841E+02 0.49614348316E+02 0.68140839239E+02 0.87943321301E+02 0.10643819560E+03
 0.12133671707E+03 0.13095657167E+03 0.95544905502E+02 0.92955647564E+02 0.85521699263E+02
 0.74236692724E+02 0.60688584397E+02 0.46833098336E+02 0.34532086324E+02 0.24950829821E+02
 0.18111108129E+02 0.13141180070E+02 0.96180843742E+01 0.72080489097E+01 0.55654911659E+01
 0.44332949050E+01 0.36474598344E+01 0.31126616016E+01 0.27744806625E+01 0.25938216510E+01
 0.25382549481E+01 0.25938212376E+01 0.27744797497E+01 0.31126600931E+01 0.36474577060E+01
 0.44332922324E+01 0.55654880875E+01 0.72080455380E+01 0.96180806855E+01 0.13141175843E+02
 0.18111103019E+02 0.24950823551E+02 0.34532078865E+02 0.46833089982E+02 0.60688575752E+02
 0.74236684672E+02 0.85521692912E+02 0.92955644027E+02 0.62405121063E+02 0.60623964409E+02
 0.55578222163E+02 0.48118113383E+02 0.39491935683E+02 0.31044181639E+02 0.23803376943E+02
 0.18111108160E+02 0.13648875977E+02 0.10287407195E+02 0.78754241212E+01 0.61751713577E+01
 0.49735351358E+01 0.41202710697E+01 0.35202106117E+01 0.31138932246E+01 0.28603972222E+01
 0.27262277913E+01 0.26850348839E+01 0.27262274282E+01 0.28603964035E+01 0.31138918318E+01
 0.35202085847E+01 0.41202684551E+01 0.49735320729E+01 0.61751680056E+01 0.78754205555E+01
 0.10287403334E+02 0.13648871601E+02 0.18111103031E+02 0.23803370960E+02 0.31044174943E+02
 0.39491928712E+02 0.48118106866E+02 0.55578217028E+02 0.60623961557E+02 0.38290204307E+02
 0.37252101589E+02 0.34346634087E+02 0.30142541337E+02 0.25396997477E+02 0.20795933957E+02
 0.16686970349E+02 0.13141180112E+02 0.10287407216E+02 0.81167855137E+01 0.65165134330E+01
 0.53485971058E+01 0.44979284143E+01 0.38844329418E+01 0.34547756768E+01 0.31699620289E+01
 0.29971110301E+01 0.29075488495E+01 0.28803100994E+01 0.29075485277E+01 0.29971102892E+01
 0.31699607349E+01 0.34547737430E+01 0.38844303892E+01 0.44979253734E+01 0.53485937583E+01
 0.65165099198E+01 0.81167818628E+01 0.10287403333E+02 0.13141175853E+02 0.16686965630E+02
 0.20795928863E+02 0.25396992309E+02 0.30142536607E+02 0.34346630423E+02 0.37252099578E+02
 0.23514866876E+02 0.22989956935E+02 0.21520122871E+02 0.19373586108E+02 0.16857170957E+02
 0.14232168852E+02 0.11760033294E+02 0.96180844146E+01 0.78754241515E+01 0.65165134474E+01
 0.54826526128E+01 0.47079003342E+01 0.41376303488E+01 0.37311456804E+01 0.34562863182E+01
 0.32838148632E+01 0.31858036552E+01 0.31380672079E+01 0.31241026225E+01 0.31380669010E+01
 0.31858029537E+01 0.32838136405E+01 0.34562844818E+01 0.37311432305E+01 0.41376273914E+01
 0.47078970415E+01 0.54826491513E+01 0.65165099127E+01 0.78754205464E+01 0.96180806837E+01
 0.11760029401E+02 0.14232164859E+02 0.16857167073E+02 0.19373582671E+02 0.21520120278E+02
 0.22989955536E+02 0.15073151973E+02 0.14791571526E+02 0.13990411252E+02 0.12789586802E+02
 0.11355587811E+02 0.98613372774E+01 0.84489350589E+01 0.72080489439E+01 0.61751713891E+01
 0.53485971261E+01 0.47079003419E+01 0.42282294353E+01 0.38860397446E+01 0.36586502403E+01
 0.35221818790E+01 0.34512747392E+01 0.34213683790E+01 0.34121909398E+01 0.34106300099E+01
 0.34121906128E+01 0.34213676665E+01 0.34512735534E+01 0.35221801494E+01 0.36586479573E+01
 0.38860369787E+01 0.42282263212E+01 0.47078970330E+01 0.53485937429E+01 0.61751679875E+01
 0.72080455244E+01 0.84489316157E+01 0.98613338627E+01 0.11355584577E+02 0.12789583998E+02
 0.13990409167E+02 0.14791570411E+02 0.98618100116E+01 0.97106747596E+01 0.92806512481E+01
 0.86352814454E+01 0.78611089730E+01 0.70466604235E+01 0.62650879782E+01 0.55654911940E+01
 0.49735351624E+01 0.44979284318E+01 0.41376303553E+01 0.38860397443E+01 0.37316779363E+01
 0.36575802426E+01 0.36419462548E+01 0.36608707313E+01 0.36920804922E+01 0.37180885346E+01
 0.37279838403E+01 0.37180881577E+01 0.36920797245E+01 0.36608695494E+01 0.36419446365E+01
 0.36575781862E+01 0.37316754794E+01 0.38860369697E+01 0.41376273749E+01 0.44979253516E+01
 0.49735320493E+01 0.55654880677E+01 0.62650848418E+01 0.70466573183E+01 0.78611060257E+01
 0.86352788754E+01 0.92806493243E+01 0.97106737256E+01 0.67131973263E+01 0.66351147963E+01
 0.64121851290E+01 0.60752966110E+01 0.56670518930E+01 0.52323791825E+01 0.48109567377E+01
 0.44332949259E+01 0.41202710866E+01 0.38844329497E+01 0.37311456788E+01 0.36586502330E+01
 0.36575802360E+01 0.37113222371E+01 0.37981520114E+01 0.38948032248E+01 0.39801851848E+01
 0.40380803045E+01 0.40584953213E+01 0.40380798690E+01 0.39801843474E+01 0.38948020341E+01
 0.37981505082E+01 0.37113204461E+01 0.36575781770E+01 0.36586479399E+01 0.37311432071E+01
 0.38844303627E+01 0.41202684291E+01 0.44332922116E+01 0.48109539675E+01 0.52323763912E+01
 0.56670491968E+01 0.60752942213E+01 0.64121833161E+01 0.66351138134E+01 0.47898400539E+01
 0.47503136684E+01 0.46371283100E+01 0.44652891258E+01 0.42563772061E+01 0.40348395367E+01
 0.38247374319E+01 0.36474598436E+01 0.35202106140E+01 0.34547756707E+01 0.34562863047E+01
 0.35221818616E+01 0.36419462388E+01 0.37981520018E+01 0.39688835845E+01 0.41310166790E+01
 0.42634949399E+01 0.43498699408E+01 0.43798269981E+01 0.43498694695E+01 0.42634940669E+01
 0.41310155108E+01 0.39688822193E+01 0.37981504993E+01 0.36419446190E+01 0.35221801248E+01
 0.34562844525E+01 0.34547737121E+01 0.35202085562E+01 0.36474576844E+01 0.38247351718E+01
 0.40348372123E+01 0.42563749262E+01 0.44652870826E+01 0.46371267481E+01 0.47503128177E+01
 0.35744518015E+01 0.35557620901E+01 0.35024817044E+01 0.34225898550E+01 0.33282377954E+01
 0.32343894771E+01 0.31572776356E+01 0.31126615932E+01 0.31138932089E+01 0.31699620075E+01
 0.32838148379E+01 0.34512747125E+01 0.36608707067E+01 0.38948032060E+01 0.41310166690E+01
 0.43460078864E+01 0.45178021080E+01 0.46286087959E+01 0.46668778328E+01 0.46286083430E+01
 0.45178012861E+01 0.43460068276E+01 0.41310155026E+01 0.38948020179E+01 0.36608695258E+01
 0.34512735235E+01 0.32838136062E+01 0.31699606988E+01 0.31138917977E+01 0.31126600661E+01
 0.31572759990E+01 0.32343877731E+01 0.33282361188E+01 0.34225883551E+01 0.35024805614E+01
 0.35557614690E+01 0.28181890731E+01 0.28113641115E+01 0.27925041366E+01 0.27663806267E+01
 0.27406956546E+01 0.27256248941E+01 0.27329271929E+01 0.27744806337E+01 0.28603971883E+01
 0.29971109950E+01 0.31858036208E+01 0.34213683463E+01 0.36920804623E+01 0.39801851598E+01
 0.42634949221E+01 0.45178020992E+01 0.47197304355E+01 0.48496797779E+01 0.48945368001E+01
 0.48496794163E+01 0.47197297852E+01 0.45178012786E+01 0.42634940520E+01 0.39801843259E+01
 0.36920796971E+01 0.34213676334E+01 0.31858029154E+01 0.29971102470E+01 0.28603963608E+01
 0.27744797123E+01 0.27329261904E+01 0.27256238518E+01 0.27406946424E+01 0.27663797367E+01
 0.27925034690E+01 0.28113637526E+01 0.24104481636E+01 0.24100311647E+01 0.24097650990E+01
 0.24127123207E+01 0.24242208771E+01 0.24519272672E+01 0.25051942572E+01 0.25938216056E+01
 0.27262277437E+01 0.29075488048E+01 0.31380671680E+01 0.34121909044E+01 0.37180885029E+01
 0.40380802768E+01 0.43498699188E+01 0.46286087815E+01 0.48496797717E+01 0.49919608560E+01
 0.50410890320E+01 0.49919606542E+01 0.48496794104E+01 0.46286083299E+01 0.43498694496E+01
 0.40380798438E+01 0.37180881279E+01 0.34121905779E+01 0.31380668600E+01 0.29075484805E+01
 0.27262273775E+01 0.25938211895E+01 0.25051938020E+01 0.24519267996E+01 0.24242204337E+01
 0.24127119415E+01 0.24097648217E+01 0.24100310181E+01 0.22840968713E+01 0.22857360478E+01
 0.22914087533E+01 0.23035644493E+01 0.23267348899E+01 0.23677199554E+01 0.24351503621E+01
 0.25382548959E+01 0.26850348305E+01 0.28803100507E+01 0.31241025806E+01 0.34106299741E+01
 0.37279838091E+01 0.40584952939E+01 0.43798269756E+01 0.46668778170E+01 0.48945367918E+01
 0.50410890296E+01 0.50917001706E+01 0.50410890296E+01 0.48945367918E+01 0.46668778170E+01
 0.43798269756E+01 0.40584952939E+01 0.37279838091E+01 0.34106299741E+01 0.31241025806E+01
 0.28803100507E+01 0.26850348305E+01 0.25382548959E+01 0.24351503621E+01 0.23677199554E+01
 0.23267348899E+01 0.23035644493E+01 0.22914087533E+01 0.22857360478E+01 0.24104481636E+01
 0.24100310181E+01 0.24097648217E+01 0.24127119415E+01 0.24242204337E+01 0.24519267996E+01
 0.25051938020E+01 0.25938211895E+01 0.27262273775E+01 0.29075484805E+01 0.31380668600E+01
 0.34121905779E+01 0.37180881279E+01 0.40380798438E+01 0.43498694496E+01 0.46286083299E+01
 0.48496794104E+01 0.49919606542E+01 0.50410890320E+01 0.49919608560E+01 0.48496797717E+01
 0.46286087815E+01 0.43498699188E+01 0.40380802768E+01 0.37180885029E+01 0.34121909044E+01
 0.31380671680E+01 0.29075488048E+01 0.27262277437E+01 0.25938216056E+01 0.25051942572E+01
 0.24519272672E+01 0.24242208771E+01 0.24127123207E+01 0.24097650990E+01 0.24100311647E+01
 0.28181890731E+01 0.28113637526E+01 0.27925034690E+01 0.27663797367E+01 0.27406946424E+01
 0.27256238518E+01 0.27329261904E+01 0.27744797123E+01 0.28603963608E+01 0.29971102470E+01
 0.31858029154E+01 0.34213676334E+01 0.36920796971E+01 0.39801843259E+01 0.42634940520E+01
 0.45178012786E+01 0.47197297852E+01 0.48496794163E+01 0.48945368001E+01 0.48496797779E+01
 0.47197304355E+01 0.45178020992E+01 0.42634949221E+01 0.39801851598E+01 0.36920804623E+01
 0.34213683463E+01 0.31858036208E+01 0.29971109950E+01 0.28603971883E+01 0.27744806337E+01
 0.27329271929E+01 0.27256248941E+01 0.27406956546E+01 0.27663806267E+01 0.27925041366E+01
 0.28113641115E+01 0.35744518015E+01 0.35557614690E+01 0.35024805614E+01 0.34225883551E+01
 0.33282361188E+01 0.32343877731E+01 0.31572759990E+01 0.31126600661E+01 0.31138917977E+01
 0.31699606988E+01 0.32838136062E+01 0.34512735235E+01 0.36608695258E+01 0.38948020179E+01
 0.41310155026E+01 0.43460068276E+01 0.45178012861E+01 0.46286083430E+01 0.46668778328E+01
 0.46286087959E+01 0.45178021080E+01 0.43460078864E+01 0.41310166690E+01 0.38948032060E+01
 0.36608707067E+01 0.34512747125E+01 0.32838148379E+01 0.31699620075E+01 0.31138932089E+01
 0.31126615932E+01 0.31572776356E+01 0.32343894771E+01 0.33282377954E+01 0.34225898550E+01
 0.35024817044E+01 0.35557620901E+01 0.47898400539E+01 0.47503128177E+01 0.46371267481E+01
 0.44652870826E+01 0.42563749262E+01 0.40348372123E+01 0.38247351718E+01 0.36474576844E+01
 0.35202085562E+01 0.34547737121E+01 0.34562844525E+01 0.35221801248E+01 0.36419446190E+01
 0.37981504993E+01 0.39688822193E+01 0.41310155108E+01 0.42634940669E+01 0.43498694695E+01
 0.43798269981E+01 0.43498699408E+01 0.42634949399E+01 0.41310166790E+01 0.39688835845E+01
 0.37981520018E+01 0.36419462388E+01 0.35221818616E+01 0.34562863047E+01 0.34547756707E+01
 0.35202106140E+01 0.36474598436E+01 0.38247374319E+01 0.40348395367E+01 0.42563772061E+01
 0.44652891258E+01 0.46371283100E+01 0.47503136684E+01 0.67131973263E+01 0.66351138134E+01
 0.64121833161E+01 0.60752942213E+01 0.56670491968E+01 0.52323763912E+01 0.48109539675E+01
 0.44332922116E+01 0.41202684291E+01 0.38844303627E+01 0.37311432071E+01 0.36586479399E+01
 0.36575781770E+01 0.37113204461E+01 0.37981505082E+01 0.38948020341E+01 0.39801843474E+01
 0.40380798690E+01 0.40584953213E+01 0.40380803045E+01 0.39801851848E+01 0.38948032248E+01
 0.37981520114E+01 0.37113222371E+01 0.36575802360E+01 0.36586502330E+01 0.37311456788E+01
 0.38844329497E+01 0.41202710866E+01 0.44332949259E+01 0.48109567377E+01 0.52323791825E+01
 0.56670518930E+01 0.60752966110E+01 0.64121851290E+01 0.66351147963E+01 0.98618100116E+01
 0.97106737256E+01 0.92806493243E+01 0.86352788754E+01 0.78611060257E+01 0.70466573183E+01
 0.62650848418E+01 0.55654880677E+01 0.49735320493E+01 0.44979253516E+01 0.41376273749E+01
 0.38860369697E+01 0.37316754794E+01 0.36575781862E+01 0.36419446365E+01 0.36608695494E+01
 0.36920797245E+01 0.37180881577E+01 0.37279838403E+01 0.37180885346E+01 0.36920804922E+01
 0.36608707313E+01 0.36419462548E+01 0.36575802426E+01 0.37316779363E+01 0.38860397443E+01
 0.41376303553E+01 0.44979284318E+01 0.49735351624E+01 0.55654911940E+01 0.62650879782E+01
 0.70466604235E+01 0.78611089730E+01 0.86352814454E+01 0.92806512481E+01 0.97106747596E+01
 0.15073151973E+02 0.14791570411E+02 0.13990409167E+02 0.12789583998E+02 0.11355584577E+02
 0.98613338627E+01 0.84489316157E+01 0.72080455244E+01 0.61751679875E+01 0.53485937429E+01
 0.47078970330E+01 0.42282263212E+01 0.38860369787E+01 0.36586479573E+01 0.35221801494E+01
 0.34512735534E+01 0.34213676665E+01 0.34121906128E+01 0.34106300099E+01 0.34121909398E+01
 0.34213683790E+01 0.34512747392E+01 0.35221818790E+01 0.36586502403E+01 0.38860397446E+01
 0.42282294353E+01 0.47079003419E+01 0.53485971261E+01 0.61751713891E+01 0.72080489439E+01
 0.84489350589E+01 0.98613372774E+01 0.11355587811E+02 0.12789586802E+02 0.13990411252E+02
 0.14791571526E+02 0.23514866876E+02 0.22989955536E+02 0.21520120278E+02 0.19373582671E+02
 0.16857167073E+02 0.14232164859E+02 0.11760029401E+02 0.96180806837E+01 0.78754205464E+01
 0.65165099127E+01 0.54826491513E+01 0.47078970415E+01 0.41376273914E+01 0.37311432305E+01
 0.34562844818E+01 0.32838136405E+01 0.31858029537E+01 0.31380669010E+01 0.31241026225E+01
 0.31380672079E+01 0.31858036552E+01 0.32838148632E+01 0.34562863182E+01 0.37311456804E+01
 0.41376303488E+01 0.47079003342E+01 0.54826526128E+01 0.65165134474E+01 0.78754241515E+01
 0.96180844146E+01 0.11760033294E+02 0.14232168852E+02 0.16857170957E+02 0.19373586108E+02
 0.21520122871E+02 0.22989956935E+02 0.38290204307E+02 0.37252099578E+02 0.34346630423E+02
 0.30142536607E+02 0.25396992309E+02 0.20795928863E+02 0.16686965630E+02 0.13141175853E+02
 0.10287403333E+02 0.81167818628E+01 0.65165099198E+01 0.53485937583E+01 0.44979253734E+01
 0.38844303892E+01 0.34547737430E+01 0.31699607349E+01 0.29971102892E+01 0.29075485277E+01
 0.28803100994E+01 0.29075488495E+01 0.29971110301E+01 0.31699620289E+01 0.34547756768E+01
 0.38844329418E+01 0.44979284143E+01 0.53485971058E+01 0.65165134330E+01 0.81167855137E+01
 0.10287407216E+02 0.13141180112E+02 0.16686970349E+02 0.20795933957E+02 0.25396997477E+02
 0.30142541337E+02 0.34346634087E+02 0.37252101589E+02 0.62405121063E+02 0.60623961557E+02
 0.55578217028E+02 0.48118106866E+02 0.39491928712E+02 0.31044174943E+02 0.23803370960E+02
 0.18111103031E+02 0.13648871601E+02 0.10287403334E+02 0.78754205555E+01 0.61751680056E+01
 0.49735320729E+01 0.41202684551E+01 0.35202085847E+01 0.31138918318E+01 0.28603964035E+01
 0.27262274282E+01 0.26850348839E+01 0.27262277913E+01 0.28603972222E+01 0.31138932246E+01
 0.35202106117E+01 0.41202710697E+01 0.49735351358E+01 0.61751713577E+01 0.78754241212E+01
 0.10287407195E+02 0.13648875977E+02 0.18111108160E+02 0.23803376943E+02 0.31044181639E+02
 0.39491935683E+02 0.48118113383E+02 0.55578222163E+02 0.60623964409E+02 0.95544905502E+02
 0.92955644027E+02 0.85521692912E+02 0.74236684672E+02 0.60688575752E+02 0.46833089982E+02
 0.34532078865E+02 0.24950823551E+02 0.18111103019E+02 0.13141175843E+02 0.96180806855E+01
 0.72080455380E+01 0.55654880875E+01 0.44332922324E+01 0.36474577060E+01 0.31126600931E+01
 0.27744797497E+01 0.25938212376E+01 0.25382549481E+01 0.25938216510E+01 0.27744806625E+01
 0.31126616016E+01 0.36474598344E+01 0.44332949050E+01 0.55654911659E+01 0.72080489097E+01
 0.96180843742E+01 0.13141180070E+02 0.18111108129E+02 0.24950829821E+02 0.34532086324E+02
 0.46833098336E+02 0.60688584397E+02 0.74236692724E+02 0.85521699263E+02 0.92955647564E+02
 0.13427794332E+03 0.13095657167E+03 0.12133671707E+03 0.10643819560E+03 0.87943321301E+02
 0.68140839239E+02 0.49614348316E+02 0.34532078841E+02 0.23803370923E+02 0.16686965597E+02
 0.11760029384E+02 0.84489316149E+01 0.62650848501E+01 0.48109539773E+01 0.38247351816E+01
 0.31572760134E+01 0.27329262156E+01 0.25051938393E+01 0.24351504044E+01 0.25051942927E+01
 0.27329272115E+01 0.31572776350E+01 0.38247374182E+01 0.48109567193E+01 0.62650879586E+01
 0.84489350335E+01 0.11760033255E+02 0.16686970291E+02 0.23803376877E+02 0.34532086275E+02
 0.49614357029E+02 0.68140848650E+02 0.87943330655E+02 0.10643820404E+03 0.12133672362E+03
 0.13095657530E+03 0.17485536085E+03 0.17080517220E+03 0.15911919575E+03 0.14101213746E+03
 0.11819902018E+03 0.92942142390E+02 0.68140839215E+02 0.46833089932E+02 0.31044174876E+02
 0.20795928799E+02 0.14232164813E+02 0.98613338383E+01 0.70466573077E+01 0.52323763849E+01
 0.40348372063E+01 0.32343877706E+01 0.27256238587E+01 0.24519268177E+01 0.23677199787E+01
 0.24519272846E+01 0.27256248971E+01 0.32343894657E+01 0.40348395202E+01 0.52323791712E+01
 0.70466604193E+01 0.98613372698E+01 0.14232168823E+02 0.20795933892E+02 0.31044181542E+02
 0.46833098232E+02 0.68140848581E+02 0.92942151878E+02 0.11819902893E+03 0.14101214488E+03
 0.15911920128E+03 0.17080517522E+03 0.21584723725E+03 0.21075952808E+03 0.19638642226E+03
 0.17476628028E+03 0.14802298910E+03 0.11819902017E+03 0.87943321265E+02 0.60688575685E+02
 0.39491928621E+02 0.25396992216E+02 0.16857166996E+02 0.11355584526E+02 0.78611059928E+01
 0.56670491718E+01 0.42563749027E+01 0.33282360975E+01 0.27406946275E+01 0.24242204272E+01
 0.23267348878E+01 0.24242208708E+01 0.27406956383E+01 0.33282377719E+01 0.42563771866E+01
 0.56670518883E+01 0.78611089834E+01 0.11355587821E+02 0.16857170942E+02 0.25396997413E+02
 0.39491935566E+02 0.60688584248E+02 0.87943330519E+02 0.11819902885E+03 0.14802299633E+03
 0.17476628581E+03 0.19638642611E+03 0.21075953011E+03 0.25726883099E+03 0.25055570785E+03
 0.23213784359E+03 0.20578363275E+03 0.17476628027E+03 0.14101213745E+03 0.10643819556E+03
 0.74236684601E+02 0.48118106765E+02 0.30142536496E+02 0.19373582573E+02 0.12789583925E+02
 0.86352788232E+01 0.60752941798E+01 0.44652870435E+01 0.34225883163E+01 0.27663797004E+01
 0.24127119096E+01 0.23035644200E+01 0.24127122892E+01 0.27663805905E+01 0.34225898189E+01
 0.44652891011E+01 0.60752966074E+01 0.86352814612E+01 0.12789586820E+02 0.19373586101E+02
 0.30142541278E+02 0.48118113261E+02 0.74236692555E+02 0.10643820387E+03 0.14101214474E+03
 0.17476628575E+03 0.20578363644E+03 0.23213784590E+03 0.25055570900E+03 0.29660200964E+03
 0.28782256050E+03 0.26429536898E+03 0.23213784357E+03 0.19638642224E+03 0.15911919572E+03
 0.12133671703E+03 0.85521692842E+02 0.55578216928E+02 0.34346630311E+02 0.21520120175E+02
 0.13990409086E+02 0.92806492632E+01 0.64121832653E+01 0.46371266985E+01 0.35024805091E+01
 0.27925034150E+01 0.24097647679E+01 0.22914087003E+01 0.24097650457E+01 0.27925040834E+01
 0.35024816567E+01 0.46371282774E+01 0.64121851182E+01 0.92806512556E+01 0.13990411262E+02
 0.21520122858E+02 0.34346634029E+02 0.55578222048E+02 0.85521699102E+02 0.12133672345E+03
 0.15911920113E+03 0.19638642601E+03 0.23213784585E+03 0.26429537026E+03 0.28782256111E+03
 0.32645991894E+03 0.31585981103E+03 0.28782256048E+03 0.25055570781E+03 0.21075952803E+03
 0.17080517215E+03 0.13095657161E+03 0.92955643950E+02 0.60623961463E+02 0.37252099478E+02
 0.22989955447E+02 0.14791570340E+02 0.97106736702E+01 0.66351137635E+01 0.47503127646E+01
 0.35557614093E+01 0.28113636872E+01 0.24100309499E+01 0.22857359789E+01 0.24100310967E+01
 0.28113640467E+01 0.35557620336E+01 0.47503136265E+01 0.66351147718E+01 0.97106747470E+01
 0.14791571511E+02 0.22989956902E+02 0.37252101523E+02 0.60623964306E+02 0.92955647432E+02
 0.13095657516E+03 0.17080517509E+03 0.21075953001E+03 0.25055570894E+03 0.28782256108E+03
 0.31585981130E+03 0.32704022205E+03 0.31640307710E+03 0.28827405358E+03 0.25090331704E+03
 0.21102549090E+03 0.17101841561E+03 0.13113138314E+03 0.93090731258E+02 0.60715152073E+02
 0.37303172880E+02 0.23013406091E+02 0.14801732625E+02 0.97134547264E+01 0.66336376377E+01
 0.47464916614E+01 0.35506144698E+01 0.28054440221E+01 0.24036973648E+01 0.22792717945E+01
 0.24036971761E+01 0.28054435531E+01 0.35506136397E+01 0.47464905150E+01 0.66336363803E+01
 0.97134536540E+01 0.14801731983E+02 0.23013405925E+02 0.37303172974E+02 0.60715152055E+02
 0.93090730840E+02 0.13113138231E+03 0.17101841461E+03 0.21102549003E+03 0.25090331646E+03
 0.28827405328E+03 0.31640307698E+03 0.31640307709E+03 0.30643596051E+03 0.27996815896E+03
 0.24448059579E+03 0.20608746874E+03 0.16704491138E+03 0.12786529956E+03 0.90554765821E+02
 0.58981889900E+02 0.36299115548E+02 0.22506060480E+02 0.14527674621E+02 0.95666348524E+01
 0.65579274909E+01 0.47083616992E+01 0.35328741281E+01 0.27993566447E+01 0.24039026485E+01
 0.22814917034E+01 0.24039023232E+01 0.27993558463E+01 0.35328727331E+01 0.47083597786E+01
 0.65579253274E+01 0.95666328022E+01 0.14527672893E+02 0.22506058941E+02 0.36299113704E+02
 0.58981887195E+02 0.90554762127E+02 0.12786529541E+03 0.16704490763E+03 0.20608746603E+03
 0.24448059417E+03 0.27996815812E+03 0.30643596016E+03 0.28827405359E+03 0.27996815898E+03
 0.25761237080E+03 0.22678162943E+03 0.19209249892E+03 0.15556726672E+03 0.11840871816E+03
 0.83279850856E+02 0.54075837840E+02 0.33490261280E+02 0.21084375075E+02 0.13748004180E+02
 0.91488640384E+01 0.63417744433E+01 0.45992367770E+01 0.34824226153E+01 0.27827475666E+01
 0.24055752343E+01 0.22889910066E+01 0.24055748000E+01 0.27827465198E+01 0.34824208121E+01
 0.45992343046E+01 0.63417716219E+01 0.91488612378E+01 0.13748001556E+02 0.21084372352E+02
 0.33490257773E+02 0.54075832875E+02 0.83279844423E+02 0.11840871117E+03 0.15556726050E+03
 0.19209249437E+03 0.22678162660E+03 0.25761236923E+03 0.27996815827E+03 0.25090331708E+03
 0.24448059585E+03 0.22678162948E+03 0.20125204353E+03 0.17093631451E+03 0.13776144890E+03
 0.10377817747E+03 0.72254928372E+02 0.46833502189E+02 0.29428813765E+02 0.19003875240E+02
 0.12579609580E+02 0.85218589575E+01 0.60152268408E+01 0.44338514046E+01 0.34072562758E+01
 0.27605526288E+01 0.24120273697E+01 0.23045011401E+01 0.24120268666E+01 0.27605514440E+01
 0.34072542673E+01 0.44338486624E+01 0.60152236774E+01 0.85218557158E+01 0.12579606368E+02
 0.19003871718E+02 0.29428809181E+02 0.46833495832E+02 0.72254920252E+02 0.10377816860E+03
 0.13776144076E+03 0.17093630816E+03 0.20125203915E+03 0.22678162676E+03 0.24448059452E+03
 0.21102549097E+03 0.20608746884E+03 0.19209249902E+03 0.17093631458E+03 0.14465963950E+03
 0.11533010631E+03 0.85654622147E+02 0.59052582977E+02 0.38476380113E+02 0.24845604706E+02
 0.16554645568E+02 0.11184642069E+02 0.77698302320E+01 0.56199482840E+01 0.42336054488E+01
 0.33197136632E+01 0.27408431419E+01 0.24290806106E+01 0.23330666255E+01 0.24290800847E+01
 0.27408419318E+01 0.33197116426E+01 0.42336026945E+01 0.56199450673E+01 0.77698268482E+01
 0.11184638603E+02 0.16554641701E+02 0.24845599739E+02 0.38476373352E+02 0.59052574337E+02
 0.85654612447E+02 0.11533009687E+03 0.14465963140E+03 0.17093630830E+03 0.19209249468E+03
 0.20608746658E+03 0.17101841571E+03 0.16704491152E+03 0.15556726688E+03 0.13776144903E+03
 0.11533010638E+03 0.90549897289E+02 0.66313668078E+02 0.45593596616E+02 0.30308749945E+02
 0.20394941541E+02 0.13997697091E+02 0.97314091325E+01 0.69791553767E+01 0.52001735017E+01
 0.40229926701E+01 0.32351524920E+01 0.27343563662E+01 0.24650289586E+01 0.23821809529E+01
 0.24650284524E+01 0.27343552211E+01 0.32351505955E+01 0.40229900720E+01 0.52001704165E+01
 0.69791520550E+01 0.97314056697E+01 0.13997693253E+02 0.20394936755E+02 0.30308743573E+02
 0.45593588416E+02 0.66313658494E+02 0.90549887273E+02 0.11533009694E+03 0.13776144096E+03
 0.15556726087E+03 0.16704490827E+03 0.13113138326E+03 0.12786529972E+03 0.11840871834E+03
 0.10377817764E+03 0.85654622276E+02 0.66313668143E+02 0.48293406876E+02 0.33683587332E+02
 0.23312586978E+02 0.16397964707E+02 0.11591101339E+02 0.83582522490E+01 0.62215124565E+01
 0.47952664184E+01 0.38263130863E+01 0.31703003962E+01 0.27534754560E+01 0.25299347746E+01
 0.24612019714E+01 0.25299343175E+01 0.27534744265E+01 0.31702986825E+01 0.38263107006E+01
 0.47952635194E+01 0.62215092654E+01 0.83582488979E+01 0.11591097713E+02 0.16397960390E+02
 0.23312581419E+02 0.33683580160E+02 0.48293398165E+02 0.66313658440E+02 0.85654612426E+02
 0.10377816866E+03 0.11840871136E+03 0.12786529587E+03 0.93090731368E+02 0.90554765959E+02
 0.83279851014E+02 0.72254928533E+02 0.59052583117E+02 0.45593596715E+02 0.33683587380E+02
 0.24424098668E+02 0.17790736925E+02 0.12943120504E+02 0.95066224964E+01 0.71527019009E+01
 0.55453682210E+01 0.44357465437E+01 0.36652446094E+01 0.31413421200E+01 0.28105870618E+01
 0.26341554644E+01 0.25799319254E+01 0.26341550657E+01 0.28105861539E+01 0.31413405776E+01
 0.36652424032E+01 0.44357437856E+01 0.55453651167E+01 0.71526986286E+01 0.95066190599E+01
 0.12943116650E+02 0.17790732213E+02 0.24424092693E+02 0.33683579992E+02 0.45593588161E+02
 0.59052574055E+02 0.72254919988E+02 0.83279844247E+02 0.90554762191E+02 0.60715152163E+02
 0.58981889997E+02 0.54075837946E+02 0.46833502302E+02 0.38476380224E+02 0.30308750039E+02
 0.23312587044E+02 0.17790736956E+02 0.13440039704E+02 0.10163646060E+02 0.78110780334E+01
 0.61508077351E+01 0.49764409278E+01 0.41426497647E+01 0.35571628192E+01 0.31618223863E+01
 0.29160309512E+01 0.27863561976E+01 0.27466214049E+01 0.27863558432E+01 0.29160301308E+01
 0.31618209586E+01 0.35571607194E+01 0.41426470671E+01 0.49764378255E+01 0.61508044404E+01
 0.78110746445E+01 0.10163642466E+02 0.13440035603E+02 0.17790731993E+02 0.23312581011E+02
 0.30308743033E+02 0.38476372731E+02 0.46833495187E+02 0.54075832300E+02 0.58981886854E+02
 0.37303172942E+02 0.36299115598E+02 0.33490261325E+02 0.29428813814E+02 0.24845604765E+02
 0.20394941605E+02 0.16397964766E+02 0.12943120546E+02 0.10163646080E+02 0.80490902022E+01