   2   2   0   0
  0.2986793E+02  0.4103050E-09  0.4103050E-09  0.3548310E-09  0.5000000E-15
  1.000000000000000E-004
  CAR 
 Hg                                      
     22.91800860     -7.76057047  301      0.97043957      1.00000000
     -7.761  0.0000E+00  0.0000E+00
     -7.658  0.0000E+00  0.0000E+00
     -7.556  0.0000E+00  0.0000E+00
     -7.454  0.0000E+00  0.0000E+00
     -7.352  0.0000E+00  0.0000E+00
     -7.249  0.0000E+00  0.0000E+00
     -7.147  0.0000E+00  0.0000E+00
     -7.045  0.0000E+00  0.0000E+00
     -6.942  0.0000E+00  0.0000E+00
     -6.840  0.0000E+00  0.0000E+00
     -6.738  0.0000E+00  0.0000E+00
     -6.636  0.5786E-15  0.5917E-16
     -6.533  0.1227E-06  0.1254E-07
     -6.431  0.2006E-01  0.2052E-02
     -6.329  0.7830E+01  0.8027E+00
     -6.227  0.4848E+02  0.5761E+01
     -6.124  0.2165E+02  0.7975E+01
     -6.022  0.4503E+00  0.8021E+01
     -5.920  0.1328E+00  0.8035E+01
     -5.818  0.2062E+00  0.8056E+01
     -5.715  0.2978E+00  0.8086E+01
     -5.613  0.1445E+00  0.8101E+01
     -5.511  0.3841E+00  0.8140E+01
     -5.409  0.3452E+00  0.8176E+01
     -5.306  0.2799E+00  0.8204E+01
     -5.204  0.4933E+00  0.8255E+01
     -5.102  0.5225E+00  0.8308E+01
     -4.999  0.6190E+00  0.8372E+01
     -4.897  0.7876E+00  0.8452E+01
     -4.795  0.1374E+01  0.8593E+01
     -4.693  0.7289E+01  0.9338E+01
     -4.590  0.2058E+02  0.1144E+02
     -4.488  0.1260E+02  0.1273E+02
     -4.386  0.1995E+02  0.1477E+02
     -4.284  0.1556E+02  0.1636E+02
     -4.181  0.8823E+01  0.1726E+02
     -4.079  0.1330E+02  0.1863E+02
     -3.977  0.1172E+02  0.1982E+02
     -3.875  0.5236E+01  0.2036E+02
     -3.772  0.2008E+01  0.2056E+02
     -3.670  0.8126E+00  0.2065E+02
     -3.568  0.5131E+00  0.2070E+02
     -3.466  0.5309E+00  0.2075E+02
     -3.363  0.4097E+00  0.2080E+02
     -3.261  0.6711E+00  0.2087E+02
     -3.159  0.7099E+00  0.2094E+02
     -3.057  0.6275E+00  0.2100E+02
     -2.954  0.5413E+00  0.2106E+02
     -2.852  0.7033E+00  0.2113E+02
     -2.750  0.6396E+00  0.2119E+02
     -2.647  0.3328E+00  0.2123E+02
     -2.545  0.4163E+00  0.2127E+02
     -2.443  0.9619E+00  0.2137E+02
     -2.341  0.7491E+00  0.2145E+02
     -2.238  0.5473E+00  0.2150E+02
     -2.136  0.6763E+00  0.2157E+02
     -2.034  0.8777E+00  0.2166E+02
     -1.932  0.7380E+00  0.2174E+02
     -1.829  0.3634E+00  0.2177E+02
     -1.727  0.8923E+00  0.2186E+02
     -1.625  0.7933E+00  0.2195E+02
     -1.523  0.5171E+00  0.2200E+02
     -1.420  0.1128E+01  0.2211E+02
     -1.318  0.7860E+00  0.2219E+02
     -1.216  0.8756E+00  0.2228E+02
     -1.114  0.8765E+00  0.2237E+02
     -1.011  0.9468E+00  0.2247E+02
     -0.909  0.1082E+01  0.2258E+02
     -0.807  0.9921E+00  0.2268E+02
     -0.704  0.1047E+01  0.2279E+02
     -0.602  0.1028E+01  0.2289E+02
     -0.500  0.8847E+00  0.2299E+02
     -0.398  0.9064E+00  0.2308E+02
     -0.295  0.1128E+01  0.2319E+02
     -0.193  0.1045E+01  0.2330E+02
     -0.091  0.1603E+01  0.2346E+02
      0.011  0.1414E+01  0.2361E+02
      0.114  0.5098E+00  0.2366E+02
      0.216  0.5788E+00  0.2372E+02
      0.318  0.7576E+00  0.2380E+02
      0.420  0.1362E+00  0.2381E+02
      0.523  0.1305E+00  0.2382E+02
      0.625  0.2814E+00  0.2385E+02
      0.727  0.4030E+00  0.2389E+02
      0.829  0.5491E+00  0.2395E+02
      0.932  0.3491E+00  0.2399E+02
      1.034  0.3093E+00  0.2402E+02
      1.136  0.2693E+00  0.2405E+02
      1.238  0.4022E+00  0.2409E+02
      1.341  0.4062E+00  0.2413E+02
      1.443  0.4182E+00  0.2417E+02
      1.545  0.4036E+00  0.2421E+02
      1.648  0.6364E+00  0.2428E+02
      1.750  0.6639E+00  0.2435E+02
      1.852  0.5592E+00  0.2440E+02
      1.954  0.8180E+00  0.2449E+02
      2.057  0.5929E+00  0.2455E+02
      2.159  0.2958E+00  0.2458E+02
      2.261  0.1015E+01  0.2468E+02
      2.363  0.9373E+00  0.2478E+02
      2.466  0.6820E+00  0.2485E+02
      2.568  0.1261E+01  0.2498E+02
      2.670  0.1418E+01  0.2512E+02
      2.772  0.1051E+01  0.2523E+02
      2.875  0.7268E+00  0.2530E+02
      2.977  0.9079E+00  0.2540E+02
      3.079  0.1590E+01  0.2556E+02
      3.181  0.1309E+01  0.2569E+02
      3.284  0.1216E+01  0.2582E+02
      3.386  0.5608E+00  0.2587E+02
      3.488  0.7549E+00  0.2595E+02
      3.591  0.1261E+01  0.2608E+02
      3.693  0.1029E+01  0.2618E+02
      3.795  0.9735E+00  0.2628E+02
      3.897  0.9761E+00  0.2638E+02
      4.000  0.8120E+00  0.2647E+02
      4.102  0.4845E+00  0.2652E+02
      4.204  0.1121E+01  0.2663E+02
      4.306  0.9933E+00  0.2673E+02
      4.409  0.5239E+00  0.2679E+02
      4.511  0.7789E+00  0.2687E+02
      4.613  0.1046E+01  0.2697E+02
      4.715  0.9606E+00  0.2707E+02
      4.818  0.1100E+01  0.2718E+02
      4.920  0.1024E+01  0.2729E+02
      5.022  0.1061E+01  0.2740E+02
      5.124  0.8110E+00  0.2748E+02
      5.227  0.1507E+01  0.2763E+02
      5.329  0.1005E+01  0.2774E+02
      5.431  0.8817E+00  0.2783E+02
      5.533  0.1076E+01  0.2794E+02
      5.636  0.6813E+00  0.2801E+02
      5.738  0.1429E+01  0.2815E+02
      5.840  0.1010E+01  0.2826E+02
      5.943  0.6949E+00  0.2833E+02
      6.045  0.1084E+01  0.2844E+02
      6.147  0.8158E+00  0.2852E+02
      6.249  0.1214E+01  0.2865E+02
      6.352  0.1576E+01  0.2881E+02
      6.454  0.9230E+00  0.2890E+02
      6.556  0.1020E+01  0.2901E+02
      6.658  0.8955E+00  0.2910E+02
      6.761  0.1409E+01  0.2924E+02
      6.863  0.1045E+01  0.2935E+02
      6.965  0.1128E+01  0.2946E+02
      7.067  0.9748E+00  0.2956E+02
      7.170  0.1153E+01  0.2968E+02
      7.272  0.6819E+00  0.2975E+02
      7.374  0.1327E+01  0.2989E+02
      7.476  0.1634E+01  0.3005E+02
      7.579  0.1225E+01  0.3018E+02
      7.681  0.1422E+01  0.3032E+02
      7.783  0.9676E+00  0.3042E+02
      7.886  0.1318E+01  0.3056E+02
      7.988  0.1379E+01  0.3070E+02
      8.090  0.1124E+01  0.3081E+02
      8.192  0.1132E+01  0.3093E+02
      8.295  0.9800E+00  0.3103E+02
      8.397  0.1286E+01  0.3116E+02
      8.499  0.1197E+01  0.3128E+02
      8.601  0.1595E+01  0.3145E+02
      8.704  0.1373E+01  0.3159E+02
      8.806  0.1510E+01  0.3174E+02
      8.908  0.1511E+01  0.3190E+02
      9.010  0.6890E+00  0.3197E+02
      9.113  0.1332E+01  0.3210E+02
      9.215  0.1196E+01  0.3222E+02
      9.317  0.1341E+01  0.3236E+02
      9.419  0.1289E+01  0.3249E+02
      9.522  0.1505E+01  0.3265E+02
      9.624  0.1319E+01  0.3278E+02
      9.726  0.1870E+01  0.3297E+02
      9.828  0.1845E+01  0.3316E+02
      9.931  0.2068E+01  0.3337E+02
     10.033  0.1588E+01  0.3354E+02
     10.135  0.1452E+01  0.3368E+02
     10.238  0.1100E+01  0.3380E+02
     10.340  0.1406E+01  0.3394E+02
     10.442  0.1402E+01  0.3408E+02
     10.544  0.1344E+01  0.3422E+02
     10.647  0.1990E+01  0.3443E+02
     10.749  0.1314E+01  0.3456E+02
     10.851  0.1166E+01  0.3468E+02
     10.953  0.6817E+00  0.3475E+02
     11.056  0.9911E+00  0.3485E+02
     11.158  0.9813E+00  0.3495E+02
     11.260  0.8269E+00  0.3504E+02
     11.362  0.9686E+00  0.3513E+02
     11.465  0.1176E+01  0.3525E+02
     11.567  0.8450E+00  0.3534E+02
     11.669  0.1273E+01  0.3547E+02
     11.771  0.1241E+01  0.3560E+02
     11.874  0.1164E+01  0.3572E+02
     11.976  0.5374E+00  0.3577E+02
     12.078  0.1056E+01  0.3588E+02
     12.181  0.1183E+01  0.3600E+02
     12.283  0.5055E+00  0.3605E+02
     12.385  0.9953E+00  0.3615E+02
     12.487  0.9116E+00  0.3625E+02
     12.590  0.1059E+01  0.3636E+02
     12.692  0.1276E+01  0.3649E+02
     12.794  0.5607E+00  0.3654E+02
     12.896  0.9985E+00  0.3665E+02
     12.999  0.5708E+00  0.3670E+02
     13.101  0.7382E+00  0.3678E+02
     13.203  0.8407E+00  0.3687E+02
     13.305  0.7115E+00  0.3694E+02
     13.408  0.8025E+00  0.3702E+02
     13.510  0.9170E+00  0.3711E+02
     13.612  0.2051E+01  0.3732E+02
     13.714  0.1607E+01  0.3749E+02
     13.817  0.1690E+01  0.3766E+02
     13.919  0.1024E+01  0.3777E+02
     14.021  0.1781E+01  0.3795E+02
     14.123  0.2054E+01  0.3816E+02
     14.226  0.1383E+01  0.3830E+02
     14.328  0.1942E+01  0.3850E+02
     14.430  0.1557E+01  0.3866E+02
     14.533  0.1789E+01  0.3884E+02
     14.635  0.2298E+01  0.3908E+02
     14.737  0.1700E+01  0.3925E+02
     14.839  0.2218E+01  0.3948E+02
     14.942  0.2610E+01  0.3974E+02
     15.044  0.2006E+01  0.3995E+02
     15.146  0.1692E+01  0.4012E+02
     15.248  0.9198E+00  0.4021E+02
     15.351  0.1225E+01  0.4034E+02
     15.453  0.1776E+01  0.4052E+02
     15.555  0.1510E+01  0.4068E+02
     15.657  0.1408E+01  0.4082E+02
     15.760  0.1540E+01  0.4098E+02
     15.862  0.1787E+01  0.4116E+02
     15.964  0.1500E+01  0.4131E+02
     16.066  0.1542E+01  0.4147E+02
     16.169  0.2309E+01  0.4171E+02
     16.271  0.1877E+01  0.4190E+02
     16.373  0.1989E+01  0.4210E+02
     16.476  0.2805E+01  0.4239E+02
     16.578  0.1889E+01  0.4258E+02
     16.680  0.1744E+01  0.4276E+02
     16.782  0.2472E+01  0.4301E+02
     16.885  0.2380E+01  0.4326E+02
     16.987  0.2146E+01  0.4348E+02
     17.089  0.1813E+01  0.4366E+02
     17.191  0.9525E+00  0.4376E+02
     17.294  0.1543E+01  0.4392E+02
     17.396  0.1954E+01  0.4412E+02
     17.498  0.2624E+01  0.4439E+02
     17.600  0.3141E+01  0.4471E+02
     17.703  0.2096E+01  0.4492E+02
     17.805  0.1710E+01  0.4510E+02
     17.907  0.2099E+01  0.4531E+02
     18.009  0.1570E+01  0.4547E+02
     18.112  0.2180E+01  0.4569E+02
     18.214  0.1810E+01  0.4588E+02
     18.316  0.1642E+01  0.4605E+02
     18.418  0.1975E+01  0.4625E+02
     18.521  0.1688E+01  0.4642E+02
     18.623  0.1350E+01  0.4656E+02
     18.725  0.1381E+01  0.4670E+02
     18.828  0.8103E+00  0.4678E+02
     18.930  0.1080E+01  0.4689E+02
     19.032  0.1544E+01  0.4705E+02
     19.134  0.1189E+01  0.4717E+02
     19.237  0.1074E+01  0.4728E+02
     19.339  0.7890E+00  0.4736E+02
     19.441  0.7079E+00  0.4744E+02
     19.543  0.4928E+00  0.4749E+02
     19.646  0.5549E+00  0.4754E+02
     19.748  0.5915E+00  0.4760E+02
     19.850  0.3486E+00  0.4764E+02
     19.952  0.4132E+00  0.4768E+02
     20.055  0.3542E+00  0.4772E+02
     20.157  0.3875E+00  0.4776E+02
     20.259  0.3247E+00  0.4779E+02
     20.361  0.2970E+00  0.4782E+02
     20.464  0.3414E+00  0.4786E+02
     20.566  0.1661E+00  0.4787E+02
     20.668  0.5518E-01  0.4788E+02
     20.771  0.9921E-01  0.4789E+02
     20.873  0.2313E+00  0.4791E+02
     20.975  0.1303E+00  0.4793E+02
     21.077  0.1534E+00  0.4794E+02
     21.180  0.1933E+00  0.4796E+02
     21.282  0.8311E-01  0.4797E+02
     21.384  0.1287E+00  0.4798E+02
     21.486  0.8165E-01  0.4799E+02
     21.589  0.7443E-01  0.4800E+02
     21.691  0.2971E-02  0.4800E+02
     21.793  0.1000E-06  0.4800E+02
     21.895  0.1101E-14  0.4800E+02
     21.998  0.0000E+00  0.4800E+02
     22.100  0.0000E+00  0.4800E+02
     22.202  0.0000E+00  0.4800E+02
     22.304  0.0000E+00  0.4800E+02
     22.407  0.0000E+00  0.4800E+02
     22.509  0.0000E+00  0.4800E+02
     22.611  0.0000E+00  0.4800E+02
     22.713  0.0000E+00  0.4800E+02
     22.816  0.0000E+00  0.4800E+02
     22.918  0.0000E+00  0.4800E+02
