 DBCSR| CPU Multiplication driver                                           BLAS (U)
 DBCSR| Multrec recursion limit                                              512 (U)
 DBCSR| Multiplication stack size                                           1000 (D)
 DBCSR| Maximum elements for images                                    UNLIMITED (U)
 DBCSR| Multiplicative factor virtual images                                   1 (U)
 DBCSR| Use multiplication densification                                       T (D)
 DBCSR| Multiplication size stacks                                             3 (U)
 DBCSR| Use memory pool for CPU allocation                                     F (U)
 DBCSR| Number of 3D layers                                               SINGLE (U)
 DBCSR| Use MPI memory allocation                                              F (U)
 DBCSR| Use RMA algorithm                                                      F (U)
 DBCSR| Use Communication thread                                               T (U)
 DBCSR| Communication thread load                                             45 (D)
 DBCSR| MPI: My process id                                                     0
 DBCSR| MPI: Number of processes                                               8
 DBCSR| OMP: Current number of threads                                        12
 DBCSR| OMP: Max number of threads                                            12
 DBCSR| Split modifier for TAS multiplication algorithm                  1.0E+00 (U)


  **** **** ******  **  PROGRAM STARTED AT               2025-08-04 16:59:56.164
 ***** ** ***  *** **   PROGRAM STARTED ON                          i04r11c04s12
 **    ****   ******    PROGRAM STARTED BY                               di38fab
 ***** **    ** ** **   PROGRAM PROCESS ID                               3828593
  **** **  *******  **  PROGRAM STARTED IN /hppfs/scratch/04/di38fab/09_GTH/Delt
                                           a_Set/Ba/aug-SZV-MOLOPT-GTH-tier-1/8x
                                           8x8

 CP2K| version string:                 CP2K version 2025.1 (Development Version)
 CP2K| source code revision number:                                  git:3130539
 CP2K| cp2kflags: omp libint fftw3 libxc parallel scalapack max_contr=4         
 CP2K| is freely available from                            https://www.cp2k.org/
 CP2K| Program compiled at                         Tue Jun  3 16:14:32 CEST 2025
 CP2K| Program compiled on                                               login01
 CP2K| Program compiled for                                        Supermuc-foss
 CP2K| Data directory path                  /hppfs/work/pn36zo/di38fab/cp2k/data
 CP2K| Input file name                                                    GW.inp

 GLOBAL| Force Environment number                                              1
 GLOBAL| Basis set file name            /hppfs/scratch/04/di38fab/09_GTH/BASIS_A
 GLOBAL| Potential file name            /hppfs/work/pn36zo/di38fab/cp2k/data/GTH
 GLOBAL| MM Potential file name                                     MM_POTENTIAL
 GLOBAL| Coordinate file name                                             Ba.cif
 GLOBAL| Method name                                                        CP2K
 GLOBAL| Project name                                                       WSe2
 GLOBAL| Run type                                                         ENERGY
 GLOBAL| FFT library                                                       FFTW3
 GLOBAL| Diagonalization library                                       ScaLAPACK
 GLOBAL| Cholesky decomposition library                                ScaLAPACK
 GLOBAL| DGEMM library                                                      BLAS
 GLOBAL| Orthonormality check for eigenvectors                          DISABLED
 GLOBAL| Matrix multiplication library                                 ScaLAPACK
 GLOBAL| All-to-all communication in single precision                          F
 GLOBAL| FFTs using library dependent lengths                                  F
 GLOBAL| Grid backend                                                       AUTO
 GLOBAL| Global print level                                               MEDIUM
 GLOBAL| MPI I/O enabled                                                       T
 GLOBAL| Total number of message passing processes                             8
 GLOBAL| Number of threads for this process                                   12
 GLOBAL| This output is from process                                           0
 GLOBAL| OpenMP stack size per thread (OMP_STACKSIZE)                    default
 GLOBAL| CPU model name             Intel(R) Xeon(R) Platinum 8174 CPU @ 3.10GHz

 MEMORY| system memory details [Kb]
 MEMORY|                        rank 0           min           max       average
 MEMORY| MemTotal             98436664      98436664      98436708      98436686
 MEMORY| MemFree              84540380      84540380      86607820      85574100
 MEMORY| Buffers                     0             0             0             0
 MEMORY| Cached                2378024       2327732       2378024       2352878
 MEMORY| Slab                  1269972        960680       1269972       1115326
 MEMORY| SReclaimable           283536        210768        283536        247152
 MEMORY| MemLikelyFree        87201940      87201940      89146320      88174130


 *** Fundamental physical constants (SI units) ***

 *** Literature: B. J. Mohr and B. N. Taylor,
 ***             CODATA recommended values of the fundamental physical
 ***             constants: 2006, Web Version 5.1
 ***             http://physics.nist.gov/constants

 Speed of light in vacuum [m/s]                             2.99792458000000E+08
 Magnetic constant or permeability of vacuum [N/A**2]       1.25663706143592E-06
 Electric constant or permittivity of vacuum [F/m]          8.85418781762039E-12
 Planck constant (h) [J*s]                                  6.62606896000000E-34
 Planck constant (h-bar) [J*s]                              1.05457162825177E-34
 Elementary charge [C]                                      1.60217648700000E-19
 Electron mass [kg]                                         9.10938215000000E-31
 Electron g factor [ ]                                     -2.00231930436220E+00
 Proton mass [kg]                                           1.67262163700000E-27
 Fine-structure constant                                    7.29735253760000E-03
 Rydberg constant [1/m]                                     1.09737315685270E+07
 Avogadro constant [1/mol]                                  6.02214179000000E+23
 Boltzmann constant [J/K]                                   1.38065040000000E-23
 Atomic mass unit [kg]                                      1.66053878200000E-27
 Bohr radius [m]                                            5.29177208590000E-11

 *** Conversion factors ***

 [u] -> [a.u.]                                              1.82288848426455E+03
 [Angstrom] -> [Bohr] = [a.u.]                              1.88972613288564E+00
 [a.u.] = [Bohr] -> [Angstrom]                              5.29177208590000E-01
 [a.u.] -> [s]                                              2.41888432650478E-17
 [a.u.] -> [fs]                                             2.41888432650478E-02
 [a.u.] -> [J]                                              4.35974393937059E-18
 [a.u.] -> [N]                                              8.23872205491840E-08
 [a.u.] -> [K]                                              3.15774647902944E+05
 [a.u.] -> [kJ/mol]                                         2.62549961709828E+03
 [a.u.] -> [kcal/mol]                                       6.27509468713739E+02
 [a.u.] -> [Pa]                                             2.94210107994716E+13
 [a.u.] -> [bar]                                            2.94210107994716E+08
 [a.u.] -> [atm]                                            2.90362800883016E+08
 [a.u.] -> [eV]                                             2.72113838565563E+01
 [a.u.] -> [Hz]                                             6.57968392072181E+15
 [a.u.] -> [1/cm] (wave numbers)                            2.19474631370540E+05
 [a.u./Bohr**2] -> [1/cm]                                   5.14048714338585E+03
 

 CELL_TOP| Volume [angstrom^3]:                                       127.105715
 CELL_TOP| Vector a [angstrom     5.028     0.000     0.000   |a| =     5.027920
 CELL_TOP| Vector b [angstrom     0.000     5.028     0.000   |b| =     5.027920
 CELL_TOP| Vector c [angstrom     0.000     0.000     5.028   |c| =     5.027920
 CELL_TOP| Angle (b,c), alpha [degree]:                                90.000000
 CELL_TOP| Angle (a,c), beta  [degree]:                                90.000000
 CELL_TOP| Angle (a,b), gamma [degree]:                                90.000000
 CELL_TOP| Numerically orthorhombic:                                         YES
 CELL_TOP| Periodicity                                                       XYZ

 CELL_CIF| Volume [angstrom^3]:                                       127.105715
 CELL_CIF| Vector a [angstrom     5.028     0.000     0.000   |a| =     5.027920
 CELL_CIF| Vector b [angstrom     0.000     5.028     0.000   |b| =     5.027920
 CELL_CIF| Vector c [angstrom     0.000     0.000     5.028   |c| =     5.027920
 CELL_CIF| Angle (b,c), alpha [degree]:                                90.000000
 CELL_CIF| Angle (a,c), beta  [degree]:                                90.000000
 CELL_CIF| Angle (a,b), gamma [degree]:                                90.000000
 CELL_CIF| Numerically orthorhombic:                                         YES
 CELL_CIF| Periodicity                                                       XYZ

 GENERATE|  Preliminary Number of Bonds generated:                             0
 GENERATE|  Achieved consistency in connectivity generation.

 CELL| Volume [angstrom^3]:                                           127.105715
 CELL| Vector a [angstrom]:       5.028     0.000     0.000   |a| =     5.027920
 CELL| Vector b [angstrom]:       0.000     5.028     0.000   |b| =     5.027920
 CELL| Vector c [angstrom]:       0.000     0.000     5.028   |c| =     5.027920
 CELL| Angle (b,c), alpha [degree]:                                    90.000000
 CELL| Angle (a,c), beta  [degree]:                                    90.000000
 CELL| Angle (a,b), gamma [degree]:                                    90.000000
 CELL| Numerically orthorhombic:                                             YES
 CELL| Periodicity                                                           XYZ

 CELL_REF| Volume [angstrom^3]:                                       127.105715
 CELL_REF| Vector a [angstrom     5.028     0.000     0.000   |a| =     5.027920
 CELL_REF| Vector b [angstrom     0.000     5.028     0.000   |b| =     5.027920
 CELL_REF| Vector c [angstrom     0.000     0.000     5.028   |c| =     5.027920
 CELL_REF| Angle (b,c), alpha [degree]:                                90.000000
 CELL_REF| Angle (a,c), beta  [degree]:                                90.000000
 CELL_REF| Angle (a,b), gamma [degree]:                                90.000000
 CELL_REF| Numerically orthorhombic:                                         YES
 CELL_REF| Periodicity                                                       XYZ

 *** WARNING in cryssym.F:180 :: Symmetry library SPGLIB not available ***


 *******************************************************************************
                                    Kpoints
 *******************************************************************************
 BRILLOUIN| K-point scheme                                        Monkhorst-Pack
 BRILLOUIN| K-Point grid                                             8    8    8
 BRILLOUIN| Accuracy in Symmetry determination                      0.100000E-05
 BRILLOUIN| K-Point point group symmetrization                               OFF
 BRILLOUIN| Wavefunction type                                            COMPLEX
 BRILLOUIN| List of Kpoints [2 Pi/Bohr]                                      256
 BRILLOUIN| Number           Weight            X              Y              Z
 BRILLOUIN|     1           0.00391       -0.43750       -0.43750       -0.43750
 BRILLOUIN|     2           0.00391       -0.43750       -0.43750       -0.31250
 BRILLOUIN|     3           0.00391       -0.43750       -0.43750       -0.18750
 BRILLOUIN|     4           0.00391       -0.43750       -0.43750       -0.06250
 BRILLOUIN|     5           0.00391       -0.43750       -0.43750        0.06250
 BRILLOUIN|     6           0.00391       -0.43750       -0.43750        0.18750
 BRILLOUIN|     7           0.00391       -0.43750       -0.43750        0.31250
 BRILLOUIN|     8           0.00391       -0.43750       -0.43750        0.43750
 BRILLOUIN|     9           0.00391       -0.43750       -0.31250       -0.43750
 BRILLOUIN|    10           0.00391       -0.43750       -0.31250       -0.31250
 BRILLOUIN|    11           0.00391       -0.43750       -0.31250       -0.18750
 BRILLOUIN|    12           0.00391       -0.43750       -0.31250       -0.06250
 BRILLOUIN|    13           0.00391       -0.43750       -0.31250        0.06250
 BRILLOUIN|    14           0.00391       -0.43750       -0.31250        0.18750
 BRILLOUIN|    15           0.00391       -0.43750       -0.31250        0.31250
 BRILLOUIN|    16           0.00391       -0.43750       -0.31250        0.43750
 BRILLOUIN|    17           0.00391       -0.43750       -0.18750       -0.43750
 BRILLOUIN|    18           0.00391       -0.43750       -0.18750       -0.31250
 BRILLOUIN|    19           0.00391       -0.43750       -0.18750       -0.18750
 BRILLOUIN|    20           0.00391       -0.43750       -0.18750       -0.06250
 BRILLOUIN|    21           0.00391       -0.43750       -0.18750        0.06250
 BRILLOUIN|    22           0.00391       -0.43750       -0.18750        0.18750
 BRILLOUIN|    23           0.00391       -0.43750       -0.18750        0.31250
 BRILLOUIN|    24           0.00391       -0.43750       -0.18750        0.43750
 BRILLOUIN|    25           0.00391       -0.43750       -0.06250       -0.43750
 BRILLOUIN|    26           0.00391       -0.43750       -0.06250       -0.31250
 BRILLOUIN|    27           0.00391       -0.43750       -0.06250       -0.18750
 BRILLOUIN|    28           0.00391       -0.43750       -0.06250       -0.06250
 BRILLOUIN|    29           0.00391       -0.43750       -0.06250        0.06250
 BRILLOUIN|    30           0.00391       -0.43750       -0.06250        0.18750
 BRILLOUIN|    31           0.00391       -0.43750       -0.06250        0.31250
 BRILLOUIN|    32           0.00391       -0.43750       -0.06250        0.43750
 BRILLOUIN|    33           0.00391       -0.43750        0.06250       -0.43750
 BRILLOUIN|    34           0.00391       -0.43750        0.06250       -0.31250
 BRILLOUIN|    35           0.00391       -0.43750        0.06250       -0.18750
 BRILLOUIN|    36           0.00391       -0.43750        0.06250       -0.06250
 BRILLOUIN|    37           0.00391       -0.43750        0.06250        0.06250
 BRILLOUIN|    38           0.00391       -0.43750        0.06250        0.18750
 BRILLOUIN|    39           0.00391       -0.43750        0.06250        0.31250
 BRILLOUIN|    40           0.00391       -0.43750        0.06250        0.43750
 BRILLOUIN|    41           0.00391       -0.43750        0.18750       -0.43750
 BRILLOUIN|    42           0.00391       -0.43750        0.18750       -0.31250
 BRILLOUIN|    43           0.00391       -0.43750        0.18750       -0.18750
 BRILLOUIN|    44           0.00391       -0.43750        0.18750       -0.06250
 BRILLOUIN|    45           0.00391       -0.43750        0.18750        0.06250
 BRILLOUIN|    46           0.00391       -0.43750        0.18750        0.18750
 BRILLOUIN|    47           0.00391       -0.43750        0.18750        0.31250
 BRILLOUIN|    48           0.00391       -0.43750        0.18750        0.43750
 BRILLOUIN|    49           0.00391       -0.43750        0.31250       -0.43750
 BRILLOUIN|    50           0.00391       -0.43750        0.31250       -0.31250
 BRILLOUIN|    51           0.00391       -0.43750        0.31250       -0.18750
 BRILLOUIN|    52           0.00391       -0.43750        0.31250       -0.06250
 BRILLOUIN|    53           0.00391       -0.43750        0.31250        0.06250
 BRILLOUIN|    54           0.00391       -0.43750        0.31250        0.18750
 BRILLOUIN|    55           0.00391       -0.43750        0.31250        0.31250
 BRILLOUIN|    56           0.00391       -0.43750        0.31250        0.43750
 BRILLOUIN|    57           0.00391       -0.43750        0.43750       -0.43750
 BRILLOUIN|    58           0.00391       -0.43750        0.43750       -0.31250
 BRILLOUIN|    59           0.00391       -0.43750        0.43750       -0.18750
 BRILLOUIN|    60           0.00391       -0.43750        0.43750       -0.06250
 BRILLOUIN|    61           0.00391       -0.43750        0.43750        0.06250
 BRILLOUIN|    62           0.00391       -0.43750        0.43750        0.18750
 BRILLOUIN|    63           0.00391       -0.43750        0.43750        0.31250
 BRILLOUIN|    64           0.00391       -0.43750        0.43750        0.43750
 BRILLOUIN|    65           0.00391       -0.31250       -0.43750       -0.43750
 BRILLOUIN|    66           0.00391       -0.31250       -0.43750       -0.31250
 BRILLOUIN|    67           0.00391       -0.31250       -0.43750       -0.18750
 BRILLOUIN|    68           0.00391       -0.31250       -0.43750       -0.06250
 BRILLOUIN|    69           0.00391       -0.31250       -0.43750        0.06250
 BRILLOUIN|    70           0.00391       -0.31250       -0.43750        0.18750
 BRILLOUIN|    71           0.00391       -0.31250       -0.43750        0.31250
 BRILLOUIN|    72           0.00391       -0.31250       -0.43750        0.43750
 BRILLOUIN|    73           0.00391       -0.31250       -0.31250       -0.43750
 BRILLOUIN|    74           0.00391       -0.31250       -0.31250       -0.31250
 BRILLOUIN|    75           0.00391       -0.31250       -0.31250       -0.18750
 BRILLOUIN|    76           0.00391       -0.31250       -0.31250       -0.06250
 BRILLOUIN|    77           0.00391       -0.31250       -0.31250        0.06250
 BRILLOUIN|    78           0.00391       -0.31250       -0.31250        0.18750
 BRILLOUIN|    79           0.00391       -0.31250       -0.31250        0.31250
 BRILLOUIN|    80           0.00391       -0.31250       -0.31250        0.43750
 BRILLOUIN|    81           0.00391       -0.31250       -0.18750       -0.43750
 BRILLOUIN|    82           0.00391       -0.31250       -0.18750       -0.31250
 BRILLOUIN|    83           0.00391       -0.31250       -0.18750       -0.18750
 BRILLOUIN|    84           0.00391       -0.31250       -0.18750       -0.06250
 BRILLOUIN|    85           0.00391       -0.31250       -0.18750        0.06250
 BRILLOUIN|    86           0.00391       -0.31250       -0.18750        0.18750
 BRILLOUIN|    87           0.00391       -0.31250       -0.18750        0.31250
 BRILLOUIN|    88           0.00391       -0.31250       -0.18750        0.43750
 BRILLOUIN|    89           0.00391       -0.31250       -0.06250       -0.43750
 BRILLOUIN|    90           0.00391       -0.31250       -0.06250       -0.31250
 BRILLOUIN|    91           0.00391       -0.31250       -0.06250       -0.18750
 BRILLOUIN|    92           0.00391       -0.31250       -0.06250       -0.06250
 BRILLOUIN|    93           0.00391       -0.31250       -0.06250        0.06250
 BRILLOUIN|    94           0.00391       -0.31250       -0.06250        0.18750
 BRILLOUIN|    95           0.00391       -0.31250       -0.06250        0.31250
 BRILLOUIN|    96           0.00391       -0.31250       -0.06250        0.43750
 BRILLOUIN|    97           0.00391       -0.31250        0.06250       -0.43750
 BRILLOUIN|    98           0.00391       -0.31250        0.06250       -0.31250
 BRILLOUIN|    99           0.00391       -0.31250        0.06250       -0.18750
 BRILLOUIN|   100           0.00391       -0.31250        0.06250       -0.06250
 BRILLOUIN|   101           0.00391       -0.31250        0.06250        0.06250
 BRILLOUIN|   102           0.00391       -0.31250        0.06250        0.18750
 BRILLOUIN|   103           0.00391       -0.31250        0.06250        0.31250
 BRILLOUIN|   104           0.00391       -0.31250        0.06250        0.43750
 BRILLOUIN|   105           0.00391       -0.31250        0.18750       -0.43750
 BRILLOUIN|   106           0.00391       -0.31250        0.18750       -0.31250
 BRILLOUIN|   107           0.00391       -0.31250        0.18750       -0.18750
 BRILLOUIN|   108           0.00391       -0.31250        0.18750       -0.06250
 BRILLOUIN|   109           0.00391       -0.31250        0.18750        0.06250
 BRILLOUIN|   110           0.00391       -0.31250        0.18750        0.18750
 BRILLOUIN|   111           0.00391       -0.31250        0.18750        0.31250
 BRILLOUIN|   112           0.00391       -0.31250        0.18750        0.43750
 BRILLOUIN|   113           0.00391       -0.31250        0.31250       -0.43750
 BRILLOUIN|   114           0.00391       -0.31250        0.31250       -0.31250
 BRILLOUIN|   115           0.00391       -0.31250        0.31250       -0.18750
 BRILLOUIN|   116           0.00391       -0.31250        0.31250       -0.06250
 BRILLOUIN|   117           0.00391       -0.31250        0.31250        0.06250
 BRILLOUIN|   118           0.00391       -0.31250        0.31250        0.18750
 BRILLOUIN|   119           0.00391       -0.31250        0.31250        0.31250
 BRILLOUIN|   120           0.00391       -0.31250        0.31250        0.43750
 BRILLOUIN|   121           0.00391       -0.31250        0.43750       -0.43750
 BRILLOUIN|   122           0.00391       -0.31250        0.43750       -0.31250
 BRILLOUIN|   123           0.00391       -0.31250        0.43750       -0.18750
 BRILLOUIN|   124           0.00391       -0.31250        0.43750       -0.06250
 BRILLOUIN|   125           0.00391       -0.31250        0.43750        0.06250
 BRILLOUIN|   126           0.00391       -0.31250        0.43750        0.18750
 BRILLOUIN|   127           0.00391       -0.31250        0.43750        0.31250
 BRILLOUIN|   128           0.00391       -0.31250        0.43750        0.43750
 BRILLOUIN|   129           0.00391       -0.18750       -0.43750       -0.43750
 BRILLOUIN|   130           0.00391       -0.18750       -0.43750       -0.31250
 BRILLOUIN|   131           0.00391       -0.18750       -0.43750       -0.18750
 BRILLOUIN|   132           0.00391       -0.18750       -0.43750       -0.06250
 BRILLOUIN|   133           0.00391       -0.18750       -0.43750        0.06250
 BRILLOUIN|   134           0.00391       -0.18750       -0.43750        0.18750
 BRILLOUIN|   135           0.00391       -0.18750       -0.43750        0.31250
 BRILLOUIN|   136           0.00391       -0.18750       -0.43750        0.43750
 BRILLOUIN|   137           0.00391       -0.18750       -0.31250       -0.43750
 BRILLOUIN|   138           0.00391       -0.18750       -0.31250       -0.31250
 BRILLOUIN|   139           0.00391       -0.18750       -0.31250       -0.18750
 BRILLOUIN|   140           0.00391       -0.18750       -0.31250       -0.06250
 BRILLOUIN|   141           0.00391       -0.18750       -0.31250        0.06250
 BRILLOUIN|   142           0.00391       -0.18750       -0.31250        0.18750
 BRILLOUIN|   143           0.00391       -0.18750       -0.31250        0.31250
 BRILLOUIN|   144           0.00391       -0.18750       -0.31250        0.43750
 BRILLOUIN|   145           0.00391       -0.18750       -0.18750       -0.43750
 BRILLOUIN|   146           0.00391       -0.18750       -0.18750       -0.31250
 BRILLOUIN|   147           0.00391       -0.18750       -0.18750       -0.18750
 BRILLOUIN|   148           0.00391       -0.18750       -0.18750       -0.06250
 BRILLOUIN|   149           0.00391       -0.18750       -0.18750        0.06250
 BRILLOUIN|   150           0.00391       -0.18750       -0.18750        0.18750
 BRILLOUIN|   151           0.00391       -0.18750       -0.18750        0.31250
 BRILLOUIN|   152           0.00391       -0.18750       -0.18750        0.43750
 BRILLOUIN|   153           0.00391       -0.18750       -0.06250       -0.43750
 BRILLOUIN|   154           0.00391       -0.18750       -0.06250       -0.31250
 BRILLOUIN|   155           0.00391       -0.18750       -0.06250       -0.18750
 BRILLOUIN|   156           0.00391       -0.18750       -0.06250       -0.06250
 BRILLOUIN|   157           0.00391       -0.18750       -0.06250        0.06250
 BRILLOUIN|   158           0.00391       -0.18750       -0.06250        0.18750
 BRILLOUIN|   159           0.00391       -0.18750       -0.06250        0.31250
 BRILLOUIN|   160           0.00391       -0.18750       -0.06250        0.43750
 BRILLOUIN|   161           0.00391       -0.18750        0.06250       -0.43750
 BRILLOUIN|   162           0.00391       -0.18750        0.06250       -0.31250
 BRILLOUIN|   163           0.00391       -0.18750        0.06250       -0.18750
 BRILLOUIN|   164           0.00391       -0.18750        0.06250       -0.06250
 BRILLOUIN|   165           0.00391       -0.18750        0.06250        0.06250
 BRILLOUIN|   166           0.00391       -0.18750        0.06250        0.18750
 BRILLOUIN|   167           0.00391       -0.18750        0.06250        0.31250
 BRILLOUIN|   168           0.00391       -0.18750        0.06250        0.43750
 BRILLOUIN|   169           0.00391       -0.18750        0.18750       -0.43750
 BRILLOUIN|   170           0.00391       -0.18750        0.18750       -0.31250
 BRILLOUIN|   171           0.00391       -0.18750        0.18750       -0.18750
 BRILLOUIN|   172           0.00391       -0.18750        0.18750       -0.06250
 BRILLOUIN|   173           0.00391       -0.18750        0.18750        0.06250
 BRILLOUIN|   174           0.00391       -0.18750        0.18750        0.18750
 BRILLOUIN|   175           0.00391       -0.18750        0.18750        0.31250
 BRILLOUIN|   176           0.00391       -0.18750        0.18750        0.43750
 BRILLOUIN|   177           0.00391       -0.18750        0.31250       -0.43750
 BRILLOUIN|   178           0.00391       -0.18750        0.31250       -0.31250
 BRILLOUIN|   179           0.00391       -0.18750        0.31250       -0.18750
 BRILLOUIN|   180           0.00391       -0.18750        0.31250       -0.06250
 BRILLOUIN|   181           0.00391       -0.18750        0.31250        0.06250
 BRILLOUIN|   182           0.00391       -0.18750        0.31250        0.18750
 BRILLOUIN|   183           0.00391       -0.18750        0.31250        0.31250
 BRILLOUIN|   184           0.00391       -0.18750        0.31250        0.43750
 BRILLOUIN|   185           0.00391       -0.18750        0.43750       -0.43750
 BRILLOUIN|   186           0.00391       -0.18750        0.43750       -0.31250
 BRILLOUIN|   187           0.00391       -0.18750        0.43750       -0.18750
 BRILLOUIN|   188           0.00391       -0.18750        0.43750       -0.06250
 BRILLOUIN|   189           0.00391       -0.18750        0.43750        0.06250
 BRILLOUIN|   190           0.00391       -0.18750        0.43750        0.18750
 BRILLOUIN|   191           0.00391       -0.18750        0.43750        0.31250
 BRILLOUIN|   192           0.00391       -0.18750        0.43750        0.43750
 BRILLOUIN|   193           0.00391       -0.06250       -0.43750       -0.43750
 BRILLOUIN|   194           0.00391       -0.06250       -0.43750       -0.31250
 BRILLOUIN|   195           0.00391       -0.06250       -0.43750       -0.18750
 BRILLOUIN|   196           0.00391       -0.06250       -0.43750       -0.06250
 BRILLOUIN|   197           0.00391       -0.06250       -0.43750        0.06250
 BRILLOUIN|   198           0.00391       -0.06250       -0.43750        0.18750
 BRILLOUIN|   199           0.00391       -0.06250       -0.43750        0.31250
 BRILLOUIN|   200           0.00391       -0.06250       -0.43750        0.43750
 BRILLOUIN|   201           0.00391       -0.06250       -0.31250       -0.43750
 BRILLOUIN|   202           0.00391       -0.06250       -0.31250       -0.31250
 BRILLOUIN|   203           0.00391       -0.06250       -0.31250       -0.18750
 BRILLOUIN|   204           0.00391       -0.06250       -0.31250       -0.06250
 BRILLOUIN|   205           0.00391       -0.06250       -0.31250        0.06250
 BRILLOUIN|   206           0.00391       -0.06250       -0.31250        0.18750
 BRILLOUIN|   207           0.00391       -0.06250       -0.31250        0.31250
 BRILLOUIN|   208           0.00391       -0.06250       -0.31250        0.43750
 BRILLOUIN|   209           0.00391       -0.06250       -0.18750       -0.43750
 BRILLOUIN|   210           0.00391       -0.06250       -0.18750       -0.31250
 BRILLOUIN|   211           0.00391       -0.06250       -0.18750       -0.18750
 BRILLOUIN|   212           0.00391       -0.06250       -0.18750       -0.06250
 BRILLOUIN|   213           0.00391       -0.06250       -0.18750        0.06250
 BRILLOUIN|   214           0.00391       -0.06250       -0.18750        0.18750
 BRILLOUIN|   215           0.00391       -0.06250       -0.18750        0.31250
 BRILLOUIN|   216           0.00391       -0.06250       -0.18750        0.43750
 BRILLOUIN|   217           0.00391       -0.06250       -0.06250       -0.43750
 BRILLOUIN|   218           0.00391       -0.06250       -0.06250       -0.31250
 BRILLOUIN|   219           0.00391       -0.06250       -0.06250       -0.18750
 BRILLOUIN|   220           0.00391       -0.06250       -0.06250       -0.06250
 BRILLOUIN|   221           0.00391       -0.06250       -0.06250        0.06250
 BRILLOUIN|   222           0.00391       -0.06250       -0.06250        0.18750
 BRILLOUIN|   223           0.00391       -0.06250       -0.06250        0.31250
 BRILLOUIN|   224           0.00391       -0.06250       -0.06250        0.43750
 BRILLOUIN|   225           0.00391       -0.06250        0.06250       -0.43750
 BRILLOUIN|   226           0.00391       -0.06250        0.06250       -0.31250
 BRILLOUIN|   227           0.00391       -0.06250        0.06250       -0.18750
 BRILLOUIN|   228           0.00391       -0.06250        0.06250       -0.06250
 BRILLOUIN|   229           0.00391       -0.06250        0.06250        0.06250
 BRILLOUIN|   230           0.00391       -0.06250        0.06250        0.18750
 BRILLOUIN|   231           0.00391       -0.06250        0.06250        0.31250
 BRILLOUIN|   232           0.00391       -0.06250        0.06250        0.43750
 BRILLOUIN|   233           0.00391       -0.06250        0.18750       -0.43750
 BRILLOUIN|   234           0.00391       -0.06250        0.18750       -0.31250
 BRILLOUIN|   235           0.00391       -0.06250        0.18750       -0.18750
 BRILLOUIN|   236           0.00391       -0.06250        0.18750       -0.06250
 BRILLOUIN|   237           0.00391       -0.06250        0.18750        0.06250
 BRILLOUIN|   238           0.00391       -0.06250        0.18750        0.18750
 BRILLOUIN|   239           0.00391       -0.06250        0.18750        0.31250
 BRILLOUIN|   240           0.00391       -0.06250        0.18750        0.43750
 BRILLOUIN|   241           0.00391       -0.06250        0.31250       -0.43750
 BRILLOUIN|   242           0.00391       -0.06250        0.31250       -0.31250
 BRILLOUIN|   243           0.00391       -0.06250        0.31250       -0.18750
 BRILLOUIN|   244           0.00391       -0.06250        0.31250       -0.06250
 BRILLOUIN|   245           0.00391       -0.06250        0.31250        0.06250
 BRILLOUIN|   246           0.00391       -0.06250        0.31250        0.18750
 BRILLOUIN|   247           0.00391       -0.06250        0.31250        0.31250
 BRILLOUIN|   248           0.00391       -0.06250        0.31250        0.43750
 BRILLOUIN|   249           0.00391       -0.06250        0.43750       -0.43750
 BRILLOUIN|   250           0.00391       -0.06250        0.43750       -0.31250
 BRILLOUIN|   251           0.00391       -0.06250        0.43750       -0.18750
 BRILLOUIN|   252           0.00391       -0.06250        0.43750       -0.06250
 BRILLOUIN|   253           0.00391       -0.06250        0.43750        0.06250
 BRILLOUIN|   254           0.00391       -0.06250        0.43750        0.18750
 BRILLOUIN|   255           0.00391       -0.06250        0.43750        0.31250
 BRILLOUIN|   256           0.00391       -0.06250        0.43750        0.43750
 *******************************************************************************

 *******************************************************************************
 *******************************************************************************
 **                                                                           **
 **     #####                         ##              ##                      **
 **    ##   ##            ##          ##              ##                      **
 **   ##     ##                       ##            ######                    **
 **   ##     ##  ##   ##  ##   #####  ##  ##   ####   ##    #####    #####    **
 **   ##     ##  ##   ##  ##  ##      ## ##   ##      ##   ##   ##  ##   ##   **
 **   ##  ## ##  ##   ##  ##  ##      ####     ###    ##   ######   ######    **
 **    ##  ###   ##   ##  ##  ##      ## ##      ##   ##   ##       ##        **
 **     #######   #####   ##   #####  ##  ##  ####    ##    #####   ##        **
 **           ##                                                    ##        **
 **                                                                           **
 **                                                ... make the atoms dance   **
 **                                                                           **
 **            Copyright (C) by CP2K developers group (2000-2025)             **
 **                      J. Chem. Phys. 152, 194103 (2020)                    **
 **                                                                           **
 *******************************************************************************

 DFT| Spin restricted Kohn-Sham (RKS) calculation                            RKS
 DFT| Multiplicity                                                             1
 DFT| Number of spin states                                                    1
 DFT| Charge                                                                   0
 DFT| Self-interaction correction (SIC)                                       NO
 DFT| Cutoffs: density                                              1.000000E-10
 DFT|          gradient                                             1.000000E-10
 DFT|          tau                                                  1.000000E-10
 DFT|          cutoff_smoothing_range                               0.000000E+00
 DFT| XC density smoothing                                                  NONE
 DFT| XC derivatives                                                          PW

 FUNCTIONAL| PBE:
 FUNCTIONAL| J.P.Perdew, K.Burke, M.Ernzerhof, Phys. Rev. Letter, vol. 77, n 18,
 FUNCTIONAL|  pp. 3865-3868, (1996) {spin unpolarized}                          


 QS| Method:                                                                 GPW
 QS| Density plane wave grid type                        NON-SPHERICAL FULLSPACE
 QS| Number of grid levels:                                                    4
 QS| Density cutoff [a.u.]:                                                500.0
 QS| Multi grid cutoff [a.u.]: 1) grid level                               500.0
 QS|                           2) grid level                               166.7
 QS|                           3) grid level                                55.6
 QS|                           4) grid level                                18.5
 QS| Grid level progression factor:                                          3.0
 QS| Relative density cutoff [a.u.]:                                        50.0
 QS| Interaction thresholds: eps_pgf_orb:                                1.0E-16
 QS|                         eps_filter_matrix:                          0.0E+00
 QS|                         eps_core_charge:                            1.0E-18
 QS|                         eps_rho_gspace:                             1.0E-16
 QS|                         eps_rho_rspace:                             1.0E-16
 QS|                         eps_gvg_rspace:                             1.0E-08
 QS|                         eps_ppl:                                    1.0E-02
 QS|                         eps_ppnl:                                   1.0E-10


 ATOMIC KIND INFORMATION

  1. Atomic kind: Ba                                    Number of atoms:       2

     Orbital Basis Set                                 aug-SZV-MOLOPT-GTH-tier-1

       Number of orbital shell sets:                                           1
       Number of orbital shells:                                               5
       Number of primitive Cartesian functions:                                7
       Number of Cartesian basis functions:                                    9
       Number of spherical basis functions:                                    9
       Norm type:                                                              2

       Normalised Cartesian orbitals:

                        Set   Shell   Orbital            Exponent    Coefficient

                          1       1    2s                0.038868      -0.012893
                                                         0.080325       0.000000
                                                         0.166001       0.044269
                                                         0.409515       0.453933
                                                         0.923816       0.760469
                                                         1.042416      -0.854510
                                                         1.099107      -0.430868

                          1       2    3s                0.038868       0.068957
                                                         0.080325       0.000000
                                                         0.166001       0.011828
                                                         0.409515      -0.240951
                                                         0.923816      -0.100271
                                                         1.042416       0.177634
                                                         1.099107       0.081084

                          1       3    4s                0.038868       0.022361
                                                         0.080325      -0.030945
                                                         0.166001       0.107788
                                                         0.409515       0.049596
                                                         0.923816       0.090090
                                                         1.042416       0.098633
                                                         1.099107       0.102629

                          1       4    3px               0.038868       0.000121
                                                         0.080325       0.000000
                                                         0.166001      -0.057128
                                                         0.409515      -0.272956
                                                         0.923816      -1.937095
                                                         1.042416       2.552627
                                                         1.099107      -0.356891
                          1       4    3py               0.038868       0.000121
                                                         0.080325       0.000000
                                                         0.166001      -0.057128
                                                         0.409515      -0.272956
                                                         0.923816      -1.937095
                                                         1.042416       2.552627
                                                         1.099107      -0.356891
                          1       4    3pz               0.038868       0.000121
                                                         0.080325       0.000000
                                                         0.166001      -0.057128
                                                         0.409515      -0.272956
                                                         0.923816      -1.937095
                                                         1.042416       2.552627
                                                         1.099107      -0.356891

                          1       5    4px               0.038868       0.018355
                                                         0.080325       0.017470
                                                         0.166001       0.000208
                                                         0.409515      -0.004259
                                                         0.923816       0.001774
                                                         1.042416       0.002063
                                                         1.099107       0.002204
                          1       5    4py               0.038868       0.018355
                                                         0.080325       0.017470
                                                         0.166001       0.000208
                                                         0.409515      -0.004259
                                                         0.923816       0.001774
                                                         1.042416       0.002063
                                                         1.099107       0.002204
                          1       5    4pz               0.038868       0.018355
                                                         0.080325       0.017470
                                                         0.166001       0.000208
                                                         0.409515      -0.004259
                                                         0.923816       0.001774
                                                         1.042416       0.002063
                                                         1.099107       0.002204

       Atomic covalent radius [Angstrom]:                                  1.980

       Atomic van der Waals radius [Angstrom]:                             2.680

     GTH Potential information for                                       GTH-PBE

       Description:                       Goedecker-Teter-Hutter pseudopotential
                                           Goedecker et al., PRB 54, 1703 (1996)
                                          Hartwigsen et al., PRB 58, 3641 (1998)
                                                      Krack, TCA 114, 145 (2005)

       Gaussian exponent of the core charge distribution:               1.714678
       Electronic configuration (s p d ...):                               4   6

       Parameters of the local part of the GTH pseudopotential:

                          rloc        C1          C2          C3          C4
                        0.540000   24.526781   -2.468670

       Parameters of the non-local part of the GTH (SOC) pseudopotential:

                   l      r(l)      h(i,j,l)
                                    k(i,j,l)
                   0    0.492068    0.095151    1.169318
                                    1.169318   -1.509584
                   1    0.391489    0.800183   -1.616839    0.000000
                                   -1.616839    1.913070    0.000000
                                    0.000000    0.000000    0.000000
                                    1.386777   -2.229262    0.551222
                                   -2.229262    3.555398   -1.304429
                                    0.551222   -1.304429    0.927065
                   2    0.672173    0.388531
                                    0.016633
                   3    0.300498  -19.653795
                                    0.006079


 MOLECULE KIND INFORMATION


 All atoms are their own molecule, skipping detailed information


 TOTAL NUMBERS AND MAXIMUM NUMBERS

  Total number of            - Atomic kinds:                                   1
                             - Atoms:                                          2
                             - Shell sets:                                     2
                             - Shells:                                        10
                             - Primitive Cartesian functions:                 14
                             - Cartesian basis functions:                     18
                             - Spherical basis functions:                     18

  Maximum angular momentum of- Orbital basis functions:                        1
                             - Local part of the GTH pseudopotential:          2
                             - Non-local part of the GTH pseudopotential:      5


 MODULE QUICKSTEP: ATOMIC COORDINATES IN ANGSTROM

   Atom Kind Element         X             Y             Z       Z(eff)     Mass
      1    1 Ba   56      0.000000      0.000000      0.000000  10.0000 137.3270
      2    1 Ba   56      2.513960      2.513960      2.513960  10.0000 137.3270



 SCF PARAMETERS         Density guess:                                    ATOMIC
                        --------------------------------------------------------
                        max_scf:                                             500
                        max_scf_history:                                       0
                        max_diis:                                              4
                        --------------------------------------------------------
                        eps_scf:                                        1.00E-09
                        eps_scf_history:                                0.00E+00
                        eps_diis:                                       1.00E-01
                        eps_eigval:                                     1.00E-05
                        --------------------------------------------------------
                        level_shift [a.u.]:                             0.000000
                        added MOs                                         8    0
                        --------------------------------------------------------
                        Mixing method:                            BROYDEN_MIXING
                                                charge density mixing in g-space
                        --------------------------------------------------------
                        Smear method:                                FERMI_DIRAC
                        Electronic temperature [K]:                        300.0
                        Electronic temperature [a.u.]:                  9.50E-04
                        Accuracy threshold:                             1.00E-10
                        --------------------------------------------------------
                        No outer SCF

 PW_GRID| Information for grid number                                          1
 PW_GRID| Grid distributed over                                     8 processors
 PW_GRID| Real space group dimensions                                     8    1
 PW_GRID| the grid is blocked:                                                NO
 PW_GRID| Cutoff [a.u.]                                                    500.0
 PW_GRID| spherical cutoff:                                                   NO
 PW_GRID|   Bounds   1            -48      47                Points:          96
 PW_GRID|   Bounds   2            -48      47                Points:          96
 PW_GRID|   Bounds   3            -48      47                Points:          96
 PW_GRID| Volume element (a.u.^3)  0.9695E-03     Volume (a.u.^3)       857.7519
 PW_GRID| Grid span                                                    FULLSPACE
 PW_GRID|   Distribution                         Average         Max         Min
 PW_GRID|   G-Vectors                           110592.0      110592      110592
 PW_GRID|   G-Rays                                1152.0        1152        1152
 PW_GRID|   Real Space Points                   110592.0      110592      110592

 PW_GRID| Information for grid number                                          2
 PW_GRID| Number of the reference grid                                         1
 PW_GRID| Grid distributed over                                     8 processors
 PW_GRID| Real space group dimensions                                     8    1
 PW_GRID| the grid is blocked:                                                NO
 PW_GRID| Cutoff [a.u.]                                                    166.7
 PW_GRID| spherical cutoff:                                                   NO
 PW_GRID|   Bounds   1            -30      29                Points:          60
 PW_GRID|   Bounds   2            -30      29                Points:          60
 PW_GRID|   Bounds   3            -30      29                Points:          60
 PW_GRID| Volume element (a.u.^3)  0.3971E-02     Volume (a.u.^3)       857.7519
 PW_GRID| Grid span                                                    FULLSPACE
 PW_GRID|   Distribution                         Average         Max         Min
 PW_GRID|   G-Vectors                            27000.0       27120       26940
 PW_GRID|   G-Rays                                 450.0         452         449
 PW_GRID|   Real Space Points                    27000.0       28800       25200

 PW_GRID| Information for grid number                                          3
 PW_GRID| Number of the reference grid                                         1
 PW_GRID| Grid distributed over                                     8 processors
 PW_GRID| Real space group dimensions                                     8    1
 PW_GRID| the grid is blocked:                                                NO
 PW_GRID| Cutoff [a.u.]                                                     55.6
 PW_GRID| spherical cutoff:                                                   NO
 PW_GRID|   Bounds   1            -16      15                Points:          32
 PW_GRID|   Bounds   2            -16      15                Points:          32
 PW_GRID|   Bounds   3            -16      15                Points:          32
 PW_GRID| Volume element (a.u.^3)  0.2618E-01     Volume (a.u.^3)       857.7519
 PW_GRID| Grid span                                                    FULLSPACE
 PW_GRID|   Distribution                         Average         Max         Min
 PW_GRID|   G-Vectors                             4096.0        4128        4064
 PW_GRID|   G-Rays                                 128.0         129         127
 PW_GRID|   Real Space Points                     4096.0        4096        4096

 PW_GRID| Information for grid number                                          4
 PW_GRID| Number of the reference grid                                         1
 PW_GRID| Grid distributed over                                     8 processors
 PW_GRID| Real space group dimensions                                     8    1
 PW_GRID| the grid is blocked:                                                NO
 PW_GRID| Cutoff [a.u.]                                                     18.5
 PW_GRID| spherical cutoff:                                                   NO
 PW_GRID|   Bounds   1            -10       9                Points:          20
 PW_GRID|   Bounds   2            -10       9                Points:          20
 PW_GRID|   Bounds   3            -10       9                Points:          20
 PW_GRID| Volume element (a.u.^3)  0.1072         Volume (a.u.^3)       857.7519
 PW_GRID| Grid span                                                    FULLSPACE
 PW_GRID|   Distribution                         Average         Max         Min
 PW_GRID|   G-Vectors                             1000.0        1040         980
 PW_GRID|   G-Rays                                  50.0          52          49
 PW_GRID|   Real Space Points                     1000.0        1200         800

 POISSON| Solver                                                        PERIODIC
 POISSON| Periodicity                                                        XYZ

 RS_GRID| Information for grid number                                          1
 RS_GRID|   Bounds   1            -48      47                Points:          96
 RS_GRID|   Bounds   2            -48      47                Points:          96
 RS_GRID|   Bounds   3            -48      47                Points:          96
 RS_GRID| Real space fully replicated
 RS_GRID| Group size                                                           1

 RS_GRID| Information for grid number                                          2
 RS_GRID|   Bounds   1            -30      29                Points:          60
 RS_GRID|   Bounds   2            -30      29                Points:          60
 RS_GRID|   Bounds   3            -30      29                Points:          60
 RS_GRID| Real space fully replicated
 RS_GRID| Group size                                                           1

 RS_GRID| Information for grid number                                          3
 RS_GRID|   Bounds   1            -16      15                Points:          32
 RS_GRID|   Bounds   2            -16      15                Points:          32
 RS_GRID|   Bounds   3            -16      15                Points:          32
 RS_GRID| Real space fully replicated
 RS_GRID| Group size                                                           1

 RS_GRID| Information for grid number                                          4
 RS_GRID|   Bounds   1            -10       9                Points:          20
 RS_GRID|   Bounds   2            -10       9                Points:          20
 RS_GRID|   Bounds   3            -10       9                Points:          20
 RS_GRID| Real space fully replicated
 RS_GRID| Group size                                                           1

 Number of electrons:                                                         20
 Number of occupied orbitals:                                                 10
 Number of molecular orbitals:                                                18

 Number of orbital functions:                                                 18
 Number of independent orbital functions:                                     18

 Extrapolation method: initial_guess

 Atomic guess: The first density matrix is obtained in terms of atomic orbitals
               and electronic configurations assigned to each atomic kind

 Guess for atomic kind: Ba

 Electronic structure
    Total number of core electrons                                         46.00
    Total number of valence electrons                                      10.00
    Total number of electrons                                              56.00
    Multiplicity                                                   not specified
    S   [  2.00  2.00  2.00  2.00] 2.00  2.00
    P   [  6.00  6.00  6.00] 6.00
    D   [ 10.00 10.00]


 *******************************************************************************
                  Iteration          Convergence                     Energy [au]
 *******************************************************************************
                          1        0.314578                     -25.228819879412
                          2        0.449385E-01                 -25.253357152254
                          3        0.111821E-02                 -25.253803666521
                          4        0.563217E-05                 -25.253803944683
                          5        0.331786E-08                 -25.253803944690

 Energy components [Hartree]           Total Energy ::          -25.253803944690
                                        Band Energy ::           -6.566671449253
                                     Kinetic Energy ::            6.400508578762
                                   Potential Energy ::          -31.654312523453
                                      Virial (-V/T) ::            4.945593328081
                                        Core Energy ::          -41.532230795266
                                          XC Energy ::           -3.475602987411
                                     Coulomb Energy ::           19.754029837986
                       Total Pseudopotential Energy ::          -48.008517207850
                       Local Pseudopotential Energy ::          -47.979681314423
                    Nonlocal Pseudopotential Energy ::           -0.028835893427
                                        Confinement ::            0.757778338217

 Orbital energies  State     L     Occupation   Energy[a.u.]          Energy[eV]

                       1     0          2.000      -1.207984          -32.870910
                       2     0          2.000      -0.089157           -2.426078

                       1     1          6.000      -0.662065          -18.015707


 Total Electron Density at R=0:                                         0.003312
 Re-scaling the density matrix to get the right number of electrons
                  # Electrons              Trace(P)               Scaling factor
                           20                20.000                        1.000


 SCF WAVEFUNCTION OPTIMIZATION

  Step     Update method      Time    Convergence         Total energy    Change
  ------------------------------------------------------------------------------
     1 NoMix/Diag. 0.10E+00    2.4     1.14412486       -51.2024122754 -5.12E+01
     2 Broy./Diag. 0.10E+00    2.5     0.00194684       -50.8725619013  3.30E-01
     3 Broy./Diag. 0.10E+00    2.6     0.03256894       -50.9074301119 -3.49E-02
     4 Broy./Diag. 0.10E+00    2.5     0.00044838       -50.8937973514  1.36E-02
     5 Broy./Diag. 0.10E+00    2.6     0.00365564       -50.8912076781  2.59E-03
     6 Broy./Diag. 0.10E+00    2.5     0.00024479       -50.8764669156  1.47E-02
     7 Broy./Diag. 0.10E+00    2.6     0.00184876       -50.8504083760  2.61E-02
     8 Broy./Diag. 0.10E+00    2.6     0.00002853       -50.8462165954  4.19E-03
     9 Broy./Diag. 0.10E+00    2.5     0.00025227       -50.8425494099  3.67E-03
    10 Broy./Diag. 0.10E+00    2.6     0.00000366       -50.8419785030  5.71E-04
    11 Broy./Diag. 0.10E+00    2.5     0.00002903       -50.8419949250 -1.64E-05
    12 Broy./Diag. 0.10E+00    2.6     0.00000157       -50.8419214232  7.35E-05
    13 Broy./Diag. 0.10E+00    2.5     0.00001341       -50.8419358567 -1.44E-05
    14 Broy./Diag. 0.10E+00    2.5     0.00000004       -50.8419387500 -2.89E-06
    15 Broy./Diag. 0.10E+00    2.6     0.00000108       -50.8419355284  3.22E-06
    16 Broy./Diag. 0.10E+00    2.6     0.00000002       -50.8419348169  7.11E-07
    17 Broy./Diag. 0.10E+00    2.6     0.00000008       -50.8419351477 -3.31E-07
    18 Broy./Diag. 0.10E+00    2.6     9.8960E-09       -50.8419348653  2.82E-07
    19 Broy./Diag. 0.10E+00    2.5     0.00000004       -50.8419339681  8.97E-07
    20 Broy./Diag. 0.10E+00    2.6     2.4781E-09       -50.8419338918  7.63E-08
    21 Broy./Diag. 0.10E+00    2.5     0.00000002       -50.8419337898  1.02E-07
    22 Broy./Diag. 0.10E+00    2.6     1.1260E-09       -50.8419337405  4.92E-08
    23 Broy./Diag. 0.10E+00    2.5     2.6749E-09       -50.8419336906  4.99E-08
    24 Broy./Diag. 0.10E+00    2.6     6.8349E-10       -50.8419336833  7.31E-09

  *** SCF run converged in    24 steps ***


  Electronic density on regular grids:        -20.0000000000        0.0000000000
  Core density on regular grids:               20.0000000000       -0.0000000000
  Total charge density on r-space grids:        0.0000000000
  Total charge density g-space grids:           0.0000000000

  Overlap energy of the core charge distribution:               0.00000000000000
  Self energy of the core charge distribution:               -104.47955250884375
  Core Hamiltonian energy:                                     20.47154078394701
  Hartree energy:                                              40.49685765076412
  Exchange-correlation energy:                                 -7.33064133742337
  Electronic entropic energy:                                  -0.00013827174819
  Fermi energy:                                                 0.22775873036205

  Total energy:                                               -50.84193368330461

 !-----------------------------------------------------------------------------!
                     Mulliken Population Analysis

 #  Atom  Element  Kind  Atomic population                           Net charge
       1     Ba       1         10.000000                              0.000000
       2     Ba       1         10.000000                             -0.000000
 # Total charge                             20.000000                 -0.000000

 !-----------------------------------------------------------------------------!

 !-----------------------------------------------------------------------------!
                           Hirshfeld Charges

  #Atom  Element  Kind  Ref Charge     Population                    Net charge
      1       Ba     1      10.000         10.000                        -0.000
      2       Ba     1      10.000         10.000                         0.000

  Total Charge                                                           -0.000
 !-----------------------------------------------------------------------------!

 KPOINTS| Band Structure Calculation
 KPOINTS| Number of k-point sets                                               1
 KPOINTS| Number of added MOs/bands                                           -1
 KPOINTS| Number of k-points in set    1                                     148
 KPOINTS| In units of b-vector [2pi/Bohr]
 KPOINTS| Special point     1 not specifi     0.000000     0.000000     0.000000
 KPOINTS| Special point     2 not specifi     0.500000    -0.500000     0.500000
 KPOINTS| Special point     3 not specifi     0.000000     0.000000     0.500000
 KPOINTS| Special point     4 not specifi     0.000000     0.000000     0.000000
 KPOINTS| Time for k-point line                                            1.064

 ENERGY| Total FORCE_EVAL ( QS ) energy [hartree]            -50.841933683304610

 -------------------------------------------------------------------------------
 -                                                                             -
 -                                DBCSR STATISTICS                             -
 -                                                                             -
 -------------------------------------------------------------------------------
 COUNTER                                    TOTAL       BLAS       SMM       ACC
 flops inhomo. stacks                           0       0.0%      0.0%      0.0%
 flops total                         0.000000E+00       0.0%      0.0%      0.0%
 flops max/rank                      0.000000E+00       0.0%      0.0%      0.0%
 matmuls inhomo. stacks                         0       0.0%      0.0%      0.0%
 matmuls total                                  0       0.0%      0.0%      0.0%
 number of processed stacks                     0       0.0%      0.0%      0.0%
 average stack size                                     0.0       0.0       0.0
 marketing flops                     0.000000E+00
 -------------------------------------------------------------------------------
 -                                                                             -
 -                      DBCSR MESSAGE PASSING PERFORMANCE                      -
 -                                                                             -
 -------------------------------------------------------------------------------
 ROUTINE             CALLS      AVE VOLUME [Bytes]
 MP_Bcast                1                     12.
 MP_Allreduce           19                     21.
 MP_Alltoall        542144                    720.
 -------------------------------------------------------------------------------

 -------------------------------------------------------------------------------
 -                                                                             -
 -                                DBM STATISTICS                               -
 -                                                                             -
 -------------------------------------------------------------------------------
    M  x    N  x    K                                          COUNT     PERCENT
 -------------------------------------------------------------------------------

 -------------------------------------------------------------------------------
 -                                                                             -
 -                                GRID STATISTICS                              -
 -                                                                             -
 -------------------------------------------------------------------------------
 LP    KERNEL             BACKEND                              COUNT     PERCENT
 2     collocate ortho    CPU                                 326250      51.02%
 2     integrate ortho    CPU                                 313200      48.98%
 0     collocate general  CPU                                      4       0.00%
 0     integrate general  CPU                                      2       0.00%
 -------------------------------------------------------------------------------

 MEMORY| Estimated peak process memory [MiB]                                 397

 -------------------------------------------------------------------------------
 ----                             MULTIGRID INFO                            ----
 -------------------------------------------------------------------------------
 count for grid        1:              0          cutoff [a.u.]          500.00
 count for grid        2:          23430          cutoff [a.u.]          166.67
 count for grid        3:          19626          cutoff [a.u.]           55.56
 count for grid        4:          20566          cutoff [a.u.]           18.52
 total gridlevel count  :          63622

 -------------------------------------------------------------------------------
 -                                                                             -
 -                         MESSAGE PASSING PERFORMANCE                         -
 -                                                                             -
 -------------------------------------------------------------------------------

 ROUTINE             CALLS      AVE VOLUME [Bytes]
 MP_Group                6
 MP_Bcast           224942                   2533.
 MP_Allreduce        85861                     21.
 MP_Sync                 4
 MP_Alltoall           437                4934902.
 MP_SendRecv           714                 301050.
 MP_ISendRecv          679                 295514.
 MP_Wait            155259
 MP_comm_split           4
 MP_ISend           164684                     97.
 MP_IRecv           262784                     59.
 -------------------------------------------------------------------------------


 -------------------------------------------------------------------------------
 -                                                                             -
 -                           R E F E R E N C E S                               -
 -                                                                             -
 -------------------------------------------------------------------------------
 
 CP2K version 2025.1 (Development Version), the CP2K developers group (2025).
 CP2K is freely available from https://www.cp2k.org/ .
 
 T. D. Kuehne, M. Iannuzzi, M. Del Ben, V. V. Rybkin, P. Seewald, F. Stein, T. 
 Laino, R. Z. Khaliullin, O. Schuett, F. Schiffmann, D. Golze, J. Wilhelm, S. 
 Chulkov, M. H. Bani-Hashemian, V. Weber, U. Borstnik, M. Taillefumier, A. S. 
 Jakobovits, A. Lazzaro, H. Pabst, T. Mueller, R. Schade, M. Guidon, S. 
 Andermatt, N. Holmberg, G. K. Schenter, A. Hehn, A. Bussy, F. Belleflamme, G. 
 Tabacchi, A. Gloess, M. Lass, I. Bethune, C. J. Mundy, C. Plessl, M. Watkins, 
 J. VandeVondele, M. Krack, J. Hutter.
 J. Chem. Phys. 152, 194103 (2020).
 CP2K: An electronic structure and molecular dynamics software package - 
 Quickstep: Efficient and accurate electronic structure calculations.
 https://doi.org/10.1063/5.0007045

 O. Schuett, P. Messmer, J. Hutter, J. VandeVondele.
 Electronic Structure Calculations on Graphics Processing Units, 173-190 (2016).
 GPU-Accelerated Sparse Matrix-Matrix Multiplication for Linear Scaling Density 
 Functional Theory.
 https://doi.org/10.1002/9781118670712.ch8

 J. Hutter, M. Iannuzzi, F. Schiffmann, J. VandeVondele.
 WIREs Comput Mol Sci. 4, 15-25 (2014).
 CP2K: atomistic simulations of condensed matter systems.
 https://doi.org/10.1002/wcms.1159

 U. Borstnik, J. VandeVondele, V. Weber, J. Hutter.
 Parallel Comput. 40, 47-58 (2014).
 Sparse matrix multiplication: The distributed block-compressed sparse row 
 library.
 https://doi.org/10.1016/j.parco.2014.03.012

 J. VandeVondele, J. Hutter.
 J. Chem. Phys. 127, 114105 (2007).
 Gaussian basis sets for accurate calculations on molecular systems in gas and 
 condensed phases.
 https://doi.org/10.1063/1.2770708

 J. VandeVondele, M. Krack, F. Mohamed, M. Parrinello, T. Chassaing, J. Hutter.
 Comput. Phys. Commun. 167, 103-128 (2005).
 QUICKSTEP: Fast and accurate density functional calculations using a mixed 
 Gaussian and plane waves approach.
 https://doi.org/10.1016/j.cpc.2004.12.014

 M. Krack.
 Theor. Chem. Acc. 114, 145-152 (2005).
 Pseudopotentials for H to Kr optimized for gradient-corrected 
 exchange-correlation functionals.
 https://doi.org/10.1007/s00214-005-0655-y

 M. Frigo, S. G. Johnson.
 Proc. IEEE 93, 216-231 (2005).
 The design and implementation of FFTW3.
 https://doi.org/10.1109/JPROC.2004.840301

 C. Hartwigsen, S. Goedecker, J. Hutter.
 Phys. Rev. B 58, 3641-3662 (1998).
 Relativistic separable dual-space Gaussian pseudopotentials from H to Rn.
 https://doi.org/10.1103/PhysRevB.58.3641

 G. Lippert, J. Hutter, M. Parrinello.
 Mol. Phys. 92, 477-487 (1997).
 A hybrid Gaussian and plane wave density functional scheme.
 https://doi.org/10.1080/002689797170220

 S. Goedecker, M. Teter, J. Hutter.
 Phys. Rev. B 54, 1703-1710 (1996).
 Separable dual-space Gaussian pseudopotentials.
 https://doi.org/10.1103/PhysRevB.54.1703

 J. P. Perdew, K. Burke, M. Ernzerhof.
 Phys. Rev. Lett. 77, 3865-3868 (1996).
 Generalized gradient approximation made simple.
 https://doi.org/10.1103/PhysRevLett.77.3865


 -------------------------------------------------------------------------------
 -                                                                             -
 -                                T I M I N G                                  -
 -                                                                             -
 -------------------------------------------------------------------------------
 SUBROUTINE                       CALLS  ASD         SELF TIME        TOTAL TIME
                                MAXIMUM       AVERAGE  MAXIMUM  AVERAGE  MAXIMUM
 CP2K                                 1  1.0    0.014    0.018   65.445   65.446
 qs_energies                          1  2.0    0.016    0.100   65.149   65.196
 scf_env_do_scf                       1  3.0    0.000    0.000   62.853   62.853
 scf_env_do_scf_inner_loop           24  4.0    0.025    0.027   62.853   62.853
 do_general_diag_kp                  25  5.9    0.133    0.163   55.953   56.494
 qs_scf_new_mos_kp                   24  5.0    0.000    0.000   54.996   55.532
 mp_alltoall_i22                  92504  8.8   29.124   35.642   29.124   35.642
 dbcsr_desymmetrize_deep          52692  7.4    0.755    0.864   25.465   30.062
 dbcsr_complete_redistribute      39812  8.2    1.177    1.392   19.972   21.943
 rskp_transform                   12584  6.9    3.899   21.182    3.899   21.182
 kpoint_density_transform            24  7.0    0.059    0.074   14.264   14.294
 copy_dbcsr_to_fm                 27524  6.8    0.263    0.299   13.617   13.770
 copy_fm_to_dbcsr                 12288  8.0    0.069    0.080   11.411   13.211
 transform_dmat                    6144  8.0    1.800    9.750    1.800    9.750
 qs_ks_update_qs_env                 24  5.0    0.000    0.000    2.564    4.919
 rebuild_ks_matrix                   24  6.0    0.000    0.000    1.745    4.101
 qs_ks_build_kohn_sham_matrix        24  7.0    0.047    0.048    1.745    4.100
 mp_alltoall_d11v                277512  9.3    3.256    3.537    3.256    3.537
 dbcsr_finalize                  111644  8.3    0.451    0.467    3.127    3.290
 sum_up_and_integrate                24  8.0    0.000    0.000    0.841    3.178
 integrate_v_rspace                  24  9.0    0.011    0.053    0.840    3.177
 cp_fm_start_copy_general         37456  7.3    0.394    0.643    2.840    2.865
 grid_integrate_task_list            24 10.0    0.535    2.848    0.535    2.848
 transfer_rs2pw                     102  8.0    0.001    0.002    2.242    2.719
 transfer_rs2pw_500                  27  8.9    0.080    0.083    2.183    2.661
 qs_rho_update_rho_low               25  5.0    0.000    0.000    2.607    2.622
 calculate_rho_elec                  25  6.0    0.021    0.024    2.607    2.621
 mp_sendrecv_dv                     714 10.0    2.141    2.617    2.141    2.617
 mp_cart_sub                      55050  8.8    2.574    2.592    2.574    2.592
 density_rs2pw                       25  7.0    0.001    0.001    2.011    2.403
 hybrid_alltoall_any              52692  8.4    0.200    0.221    2.116    2.269
 grid_collocate_task_list            25  7.0    0.573    2.194    0.573    2.194
 mp_alltoall_i11v                172128  9.0    2.010    2.041    2.010    2.041
 dbcsr_merge_all                  39812 10.2    1.178    1.357    1.779    1.955
 write_kpoints_restart               24  5.0    0.008    0.012    1.653    1.653
 mp_cart_create                   27531  8.8    1.361    1.413    1.361    1.413
 mp_allgather_i                   74912  8.3    1.096    1.182    1.096    1.182
 mp_bcast_iv                     149851  8.3    0.907    1.051    0.907    1.051
 dbcsr_dot                        56545  8.0    0.221    0.259    0.945    0.986
 dbcsr_create_new                197278  8.0    0.702    0.745    0.844    0.907
 dbcsr_work_create                92504  8.8    0.548    0.565    0.795    0.865
 evaluate_core_matrix_traces         24  6.0    0.000    0.000    0.819    0.819
 calculate_ptrace_kp                 48  7.0    0.042    0.043    0.819    0.819
 fft_wrap_pw1pw2                    437 10.0    0.004    0.004    0.786    0.792
 cp_dbcsr_alloc_block_from_nbl     8392  5.0    0.156    0.744    0.170    0.778
 mp_sum_d                         57155  8.9    0.674    0.754    0.674    0.754
 dbcsr_copy                       70010  6.9    0.333    0.361    0.596    0.740
 fft_wrap_pw1pw2_500                290 11.3    0.054    0.055    0.721    0.730
 dbcsr_iterator_start            337749  8.8    0.625    0.639    0.716    0.727
 dbcsr_data_new                 1002547  9.6    0.467    0.707    0.467    0.707
 qs_energies_init_hamiltonians        1  3.0    0.000    0.000    0.676    0.676
 dbcsr_work_destroy_all           92504  9.8    0.432    0.443    0.653    0.665
 fft3d_ps                           437 12.0    0.265    0.269    0.638    0.645
 copy_dbcsr_to_fm_bc              27524  7.8    0.251    0.259    0.573    0.586
 copy_fm_to_dbcsr_bc              12288  9.0    0.152    0.170    0.508    0.559
 cp_fm_write_unformatted           2356  6.0    0.475    0.526    0.478    0.539
 qs_vxc_create                       24  8.0    0.000    0.000    0.531    0.533
 xc_vxc_pw_create                    24  9.0    0.021    0.021    0.531    0.532
 build_core_hamiltonian_matrix        1  4.0    0.004    0.005    0.152    0.510
 tree_to_linear_d                 39812 11.2    0.441    0.497    0.441    0.497
 dbcsr_data_release             1445680 10.1    0.467    0.488    0.467    0.488
 qs_env_update_s_mstruct              1  4.0    0.000    0.000    0.412    0.481
 dbcsr_iterator_stop             337749  8.8    0.397    0.401    0.469    0.475
 calculate_rho_core                   1  5.0    0.001    0.002    0.377    0.470
 self_consistency_check              24  5.0    0.040    0.042    0.455    0.462
 gspace_mixing                       23  5.0    0.018    0.018    0.453    0.453
 dbcsr_destroy                   140734  8.0    0.226    0.241    0.391    0.432
 cp_sm_mix                        28272  6.0    0.069    0.094    0.379    0.388
 broyden_mixing                      23  6.0    0.360    0.366    0.368    0.369
 mp_bcast_im                      74912  8.3    0.309    0.358    0.309    0.358
 init_scf_run                         1  3.0    0.000    0.000    0.316    0.356
 scf_env_initial_rho_setup            1  4.0    0.000    0.000    0.316    0.356
 xc_pw_derive                       144 11.0    0.000    0.001    0.340    0.342
 mp_alltoall_z22v                   437 14.0    0.325    0.335    0.325    0.335
 mp_waitall_1                    155259  8.3    0.164    0.311    0.164    0.311
 potential_pw2rs                     24 10.0    0.002    0.002    0.295    0.301
 xc_rho_set_and_dset_create          24 10.0    0.012    0.015    0.288    0.291
 quick_finalize                   52692  9.4    0.132    0.171    0.215    0.288
 dbcsr_copy_into_existing         13466  9.7    0.098    0.207    0.173    0.285
 mp_max_d                         28274  7.0    0.242    0.259    0.242    0.259
 cp_cfm_geeig_canon                 805  6.9    0.005    0.005    0.232    0.242
 mixing_allocate                      1  3.0    0.007    0.007    0.064    0.236
 mp_comm_free                     82615  8.8    0.187    0.230    0.187    0.230
 cp_cfm_heevd                      1610  7.9    0.002    0.002    0.213    0.222
 xc_pw_divergence                    24 10.0    0.000    0.000    0.218    0.220
 cp_cfm_heevd_base                 1610  8.9    0.212    0.220    0.212    0.220
 calculate_first_density_matrix       1  5.0    0.001    0.001    0.176    0.216
 calculate_atomic_block_dm            1  6.0    0.001    0.001    0.174    0.214
 x_to_yz                            240 13.2    0.028    0.029    0.202    0.210
 transfer_pw2rs                      97 11.0    0.001    0.001    0.198    0.198
 yz_to_x                            197 12.8    0.016    0.018    0.167    0.176
 dbcsr_set                       128689  7.6    0.113    0.119    0.154    0.170
 transfer_pw2rs_500                  25 11.8    0.072    0.075    0.141    0.146
 mp_sum_dv                          319  3.3    0.077    0.142    0.077    0.142
 kpoint_set_mo_occupation            24  7.0    0.129    0.130    0.137    0.139
 calculate_ecore_overlap              1  4.0    0.000    0.000    0.103    0.128
 dbcsr_iterator_seek             337749  9.8    0.091    0.126    0.091    0.126
 build_overlap_matrix_low             1  5.0    0.008    0.011    0.037    0.124
 build_kinetic_matrix_low             1  5.0    0.008    0.011    0.036    0.123
 qs_env_rebuild_rho                   1  5.0    0.000    0.000    0.031    0.117
 qs_rho_rebuild                       1  6.0    0.003    0.003    0.031    0.117
 parser_read_line                  7625  4.0    0.003    0.003    0.112    0.114
 parser_read_line_low                26  6.1    0.010    0.041    0.110    0.112
 broadcast_input_information         26  7.1    0.028    0.040    0.100    0.107
 mp_sum_iv                           24  5.3    0.086    0.107    0.086    0.107
 qs_scf_ensure_work_matrices          1  3.0    0.000    0.000    0.086    0.106
 dbcsr_sort_indices              113184 10.9    0.071    0.104    0.071    0.104
 dbcsr_make_index_exist          197278  9.0    0.090    0.103    0.090    0.103
 scf_post_calculation_gpw             1  3.0    0.000    0.000    0.096    0.096
 write_available_results              1  4.0    0.000    0.000    0.096    0.096
 write_mo_free_results                1  5.0    0.001    0.001    0.096    0.096
 xc_functional_eval                  24 11.0    0.000    0.000    0.093    0.095
 pbe_lda_eval                        24 12.0    0.093    0.095    0.093    0.095
 restraint_control                    1  2.0    0.000    0.000    0.047    0.094
 mp_sum_i                             4  2.8    0.047    0.094    0.047    0.094
 build_core_ppnl                      1  5.0    0.025    0.094    0.025    0.094
 merge_index                      39812 11.2    0.081    0.086    0.081    0.086
 dbcsr_reserve_blocks             20680  9.0    0.042    0.066    0.055    0.085
 kpoint_density_matrices             24  7.0    0.005    0.006    0.079    0.082
 create_qs_kind_set                   1  2.0    0.000    0.000    0.080    0.080
 read_qs_kind                         1  3.0    0.037    0.041    0.080    0.080
 cp_fm_finish_copy_general        15508  7.8    0.037    0.047    0.054    0.077
 dbcsr_reserve_all_blocks         12288 10.0    0.017    0.021    0.061    0.076
 topology_control                     1  2.0    0.000    0.000    0.076    0.076
 parallel_gemm_fm                  3072  8.0    0.003    0.003    0.073    0.075
 parallel_gemm_fm_gemm             3072  9.0    0.003    0.003    0.070    0.073
 cp_fm_gemm                        3072 10.0    0.067    0.070    0.067    0.070
 mp_irecv_iv                     149824  8.3    0.009    0.070    0.009    0.070
 dbcsr_switch_data_area           52692 10.4    0.048    0.048    0.061    0.062
 qs_init_subsys                       1  2.0    0.001    0.002    0.053    0.054
 read_cell_cif                        2  4.5    0.002    0.005    0.053    0.053
 mp_isend_dv                      38048  8.2    0.048    0.052    0.048    0.052
 qs_env_setup                         1  3.0    0.000    0.000    0.051    0.051
 qs_env_rebuild_pw_env                2  3.5    0.000    0.000    0.050    0.051
 pw_env_rebuild                       1  5.0    0.000    0.001    0.050    0.051
 dbcsr_zero                      128689  8.6    0.041    0.050    0.041    0.050
 hirshfeld_integration                1  6.0    0.011    0.045    0.050    0.050
 pw_scatter_p                       240 12.2    0.049    0.050    0.049    0.050
 transfer_rs2pw_170                  25  9.0    0.017    0.017    0.044    0.048
 mp_isend_iv                      84424  8.3    0.013    0.048    0.013    0.048
 mp_bcast_i_src                     104  8.1    0.039    0.047    0.039    0.047
 transfer_pw2rs_170                  24 12.0    0.019    0.020    0.043    0.046
 pw_poisson_solve                    24  8.0    0.000    0.000    0.045    0.046
 coordinate_control                   1  3.0    0.000    0.001    0.045    0.045
 coordinate_control_READ_COORDI       1  4.0    0.000    0.000    0.045    0.045
 cp_fm_cleanup_copy_general       26704  7.0    0.028    0.029    0.044    0.045
 read_coordinate_cif                  1  5.0    0.002    0.002    0.045    0.045
 fft_wrap_pw1pw2_170                 49 10.5    0.003    0.003    0.042    0.044
 mp_bcast_am_src                     26  8.1    0.017    0.019    0.032    0.042
 mp_isendrecv_dv                    679 13.0    0.020    0.040    0.020    0.040
 pw_grid_setup                        4  6.0    0.000    0.000    0.038    0.039
 pw_grid_setup_internal               4  7.0    0.001    0.001    0.038    0.039
 calculate_hirshfeld_normalizat       1  6.0    0.008    0.033    0.038    0.039
 dbcsr_distribution_new           39814  8.5    0.028    0.035    0.028    0.035
 dbcsr_get_data_size_used         92504  9.8    0.029    0.035    0.029    0.035
 mp_irecv_im2                     74912  8.3    0.004    0.034    0.004    0.034
 dbcsr_make_dbcsr_index          113184 10.8    0.028    0.030    0.028    0.030
 pw_integral_ab_c1d_c1d_gs           24  9.0    0.027    0.028    0.029    0.029
 pw_grid_sort                         4  8.0    0.017    0.017    0.024    0.025
 pw_gather_p                        197 11.8    0.023    0.024    0.023    0.024
 build_core_ppl                       1  5.0    0.005    0.023    0.005    0.023
 mixing_init                          1  5.0    0.021    0.023    0.023    0.023
 mp_isend_im2                     42212  8.3    0.006    0.023    0.006    0.023
 qs_create_task_list                  1  5.0    0.000    0.000    0.004    0.022
 generate_qs_task_list                1  6.0    0.003    0.014    0.004    0.022
 dbcsr_data_copy_aa2              39812 11.0    0.014    0.022    0.014    0.022
 mp_irecv_dv                      38048  8.2    0.020    0.021    0.020    0.021
 mp_comm_size                     57451  9.0    0.015    0.019    0.015    0.019
 pw_copy                            360 10.5    0.017    0.018    0.017    0.018
 mp_comm_rank                     57451  9.0    0.013    0.015    0.013    0.015
 kpoint_init_cell_index               2  3.5    0.008    0.011    0.013    0.015
 cp_cfm_gemm                       2415  7.9    0.013    0.014    0.013    0.014
 pw_derive                          216 11.3    0.013    0.013    0.013    0.013
 mp_recv_dv                        7068  7.0    0.002    0.013    0.002    0.013
 fft_wrap_pw1pw2_60                  49 10.5    0.001    0.001    0.012    0.012
 transfer_rs2pw_60                   25  9.0    0.003    0.003    0.010    0.012
 mp_sum_dm3                          24  8.0    0.008    0.011    0.008    0.011
 pw_poisson_set                      25  8.9    0.000    0.000    0.010    0.011
 mp_sum_l                           429  2.1    0.008    0.010    0.008    0.010
 transfer_pw2rs_60                   24 12.0    0.003    0.004    0.009    0.010
 init_cube_info                       4  6.0    0.009    0.010    0.009    0.010
 pw_copy_from_array                 240 12.2    0.008    0.009    0.008    0.009
 grid_free_task_list                  1  2.0    0.008    0.009    0.008    0.009
 mp_sum_dm                           23  7.0    0.005    0.009    0.005    0.009
 sort_shells                          4  9.0    0.007    0.007    0.007    0.007
 pw_zero                            121 10.4    0.005    0.007    0.005    0.007
 pw_grid_assign                       4  8.0    0.005    0.006    0.007    0.007
 -------------------------------------------------------------------------------

 The number of warnings for this run is : 1
 
 -------------------------------------------------------------------------------
  **** **** ******  **  PROGRAM ENDED AT                 2025-08-04 17:01:01.974
 ***** ** ***  *** **   PROGRAM RAN ON                              i04r11c04s12
 **    ****   ******    PROGRAM RAN BY                                   di38fab
 ***** **    ** ** **   PROGRAM PROCESS ID                               3828593
  **** **  *******  **  PROGRAM STOPPED IN /hppfs/scratch/04/di38fab/09_GTH/Delt
                                           a_Set/Ba/aug-SZV-MOLOPT-GTH-tier-1/8x
                                           8x8
